INSANE! Membrane UpperLeaflet>loPI:POPI:DPPI:PYPI:ERGO=140.0:15.0:9.0:6.0:30.0 LowerLeaflet>PSPI:POPI:POPS:YOPS:POPE:YOPE:POPC:YOPC:ERGO=6.0:14.0:21.0:9.0:9.0:21.0:12.0:48.0:60.0
49207
    1loPI    C1    1   6.154   6.659  10.067  0.3816 -0.1041  0.1350
    1loPI    C2    2   6.101   6.277  10.170 -0.0150 -0.0365  0.1972
    1loPI    C3    3   6.291   6.526  10.419 -0.1472 -0.0912  0.3554
    1loPI   PO4    4   6.271   6.700   9.840  0.0477 -0.2047  0.0996
    1loPI   GL1    5   6.290   6.643   9.457  0.1792 -0.2666  0.4020
    1loPI   GL2    6   5.949   6.516   9.465 -0.1352  0.1129  0.1558
    1loPI   C1A    7   6.379   6.913   9.270  0.1113 -0.1973  0.3308
    1loPI   C2A    8   6.366   6.963   8.760  0.2118 -0.1674 -0.1000
    1loPI   C3A    9   6.465   6.779   8.313  0.0837  0.0803 -0.3050
    1loPI   C4A   10   6.689   6.725   7.902  0.3199 -0.2447  0.0390
    1loPI   C5A   11   6.626   7.064   7.575 -0.2144 -0.1424 -0.0723
    1loPI   C6A   12   6.285   7.300   7.415  0.1618  0.1260  0.1846
    1loPI   C1B   13   6.004   6.613   8.975  0.2034 -0.0904 -0.2776
    1loPI   C2B   14   5.982   6.574   8.554 -0.0109 -0.0606  0.1802
    1loPI   C3B   15   6.040   6.620   8.118 -0.2271 -0.1615 -0.0260
    1loPI   C4B   16   5.867   6.307   7.789 -0.1499  0.0424  0.0660
    2loPI    C1   17   0.786  10.047  10.491 -0.3332  0.0657 -0.0714
    2loPI    C2   18   0.700  10.378  10.699 -0.1381  0.1280 -0.0876
    2loPI    C3   19   1.019  10.158  10.797 -0.2310 -0.0213 -0.1171
    2loPI   PO4   20   0.878  10.059  10.278  0.2638 -0.0976 -0.0762
    2loPI   GL1   21   0.884  10.311   9.865  0.1842 -0.0112 -0.1870
    2loPI   GL2   22   1.259   9.987  10.033  0.1535  0.0130  0.0348
    2loPI   C1A   23   0.822  10.492   9.479  0.3071  0.2170  0.0125
    2loPI   C2A   24   0.770  10.512   9.053  0.2869 -0.1171  0.0929
    2loPI   C3A   25   0.702  10.522   8.560 -0.1072  0.1949  0.1879
    2loPI   C4A   26   0.639  10.265   8.199 -0.0984 -0.0018 -0.0855
    2loPI   C5A   27   0.334  10.310   7.760  0.1604  0.2240  0.1442
    2loPI   C6A   28   0.062  10.327   7.463  0.2156  0.0346  0.0070
    2loPI   C1B   29   1.389   9.854   9.647 -0.2085  0.0650  0.0740
    2loPI   C2B   30   1.462   9.821   9.224  0.1714 -0.0770 -0.1708
    2loPI   C3B   31   1.254   9.841   8.846  0.1468  0.0989 -0.0090
    2loPI   C4B   32   1.153   9.741   8.439 -0.1943  0.0752  0.0117
    3loPI    C1   33   4.063   4.154  10.154 -0.2437  0.0629 -0.1041
    3loPI    C2   34   3.666   4.191  10.188 -0.2320  0.0323  0.0784
    3loPI    C3   35   3.907   4.417  10.413 -0.1449  0.0885 -0.0701
    3loPI   PO4   36   4.155   4.234   9.924  0.1355 -0.0326 -0.0943
    3loPI   GL1   37   4.158   4.192   9.456  0.0627 -0.1051 -0.1619
    3loPI   GL2   38   4.154   3.916   9.333 -0.0851  0.2024  0.0730
    3loPI   C1A   39   4.312   4.275   9.006  0.0463  0.0011  0.1030
    3loPI   C2A   40   4.328   4.117   8.547 -0.4522  0.1483 -0.1710
    3loPI   C3A   41   4.109   4.118   8.169 -0.0646  0.2886 -0.0112
    3loPI   C4A   42   3.743   4.295   7.897 -0.0289 -0.2383 -0.0377
    3loPI   C5A   43   3.323   4.364   7.960 -0.0398  0.0196  0.0667
    3loPI   C6A   44   3.001   4.273   8.290 -0.0535  0.2245  0.0031
    3loPI   C1B   45   4.170   3.681   9.038 -0.1871  0.1888 -0.0469
    3loPI   C2B   46   4.436   3.354   8.889  0.2631  0.2189 -0.4739
    3loPI   C3B   47   4.245   3.183   8.450 -0.2100 -0.2331  0.4013
    3loPI   C4B   48   3.996   3.227   8.128  0.3544 -0.1470  0.1066
    4loPI    C1   49  16.843   3.111  10.564 -0.1707 -0.1614 -0.0472
    4loPI    C2   50  17.218   3.003  10.650 -0.0577  0.1087 -0.1886
    4loPI    C3   51  16.994   3.186  10.926 -0.1388 -0.1872 -0.0551
    4loPI   PO4   52  16.759   3.319  10.256 -0.2171 -0.0920  0.0688
    4loPI   GL1   53  16.771   3.211   9.870  0.1197 -0.1111 -0.1920
    4loPI   GL2   54  16.521   3.022   9.646  0.1675  0.4713  0.1311
    4loPI   C1A   55  16.513   3.529   9.576 -0.2556 -0.3641 -0.1935
    4loPI   C2A   56  16.601   3.837   9.467 -0.0359  0.2799 -0.1352
    4loPI   C3A   57  16.692   3.859   9.018 -0.3334 -0.0097 -0.1452
    4loPI   C4A   58  16.735   3.853   8.534  0.1768 -0.1925  0.1123
    4loPI   C5A   59  16.785   3.803   8.168  0.0380 -0.2721 -0.1696
    4loPI   C6A   60  16.566   3.748   7.694 -0.0962  0.1421  0.1345
    4loPI   C1B   61  16.485   3.125   9.158 -0.1582 -0.0180  0.0716
    4loPI   C2B   62  16.193   3.136   8.860 -0.2491 -0.0049  0.1123
    4loPI   C3B   63  16.027   3.048   8.497  0.0292 -0.0825  0.0288
    4loPI   C4B   64  15.626   3.011   8.347 -0.1705  0.2608 -0.2722
    5loPI    C1   65   6.723  12.299  10.534 -0.0446  0.0039  0.0765
    5loPI    C2   66   6.385  12.504  10.593 -0.0195  0.1814 -0.3568
    5loPI    C3   67   6.739  12.689  10.619  0.0417  0.0281 -0.0479
    5loPI   PO4   68   6.623  12.176  10.268 -0.2253 -0.1346 -0.0979
    5loPI   GL1   69   6.896  12.263   9.852 -0.1890  0.1178 -0.0451
    5loPI   GL2   70   6.541  12.198   9.779 -0.0552  0.2147  0.1798
    5loPI   C1A   71   7.081  12.329   9.490  0.0745 -0.5601  0.1353
    5loPI   C2A   72   7.182  12.318   9.070 -0.1571  0.0171  0.2446
    5loPI   C3A   73   7.311  12.548   8.701 -0.0275 -0.1480  0.1684
    5loPI   C4A   74   7.499  12.832   8.361  0.1438  0.0154  0.3140
    5loPI   C5A   75   7.300  13.110   8.059  0.1357 -0.1287 -0.1849
    5loPI   C6A   76   7.343  13.594   7.945  0.0062 -0.0456  0.0275
    5loPI   C1B   77   6.423  12.119   9.316 -0.0330  0.1659  0.0193
    5loPI   C2B   78   6.536  12.080   8.946 -0.0051 -0.1451  0.3022
    5loPI   C3B   79   6.668  12.024   8.504  0.0951 -0.0711 -0.0174
    5loPI   C4B   80   6.461  12.198   8.336 -0.2024  0.1409  0.0882
    6loPI    C1   81   3.106  10.452  10.168  0.2272  0.0562  0.0658
    6loPI    C2   82   3.235  10.073  10.178  0.1753  0.0364 -0.0094
    6loPI    C3   83   3.497  10.375  10.203  0.2108 -0.0044  0.1161
    6loPI   PO4   84   2.939  10.495   9.963 -0.1515 -0.1849  0.0672
    6loPI   GL1   85   2.784  10.378   9.635  0.3029  0.1248  0.2231
    6loPI   GL2   86   2.494  10.278   9.773 -0.1424  0.1943  0.3033
    6loPI   C1A   87   2.727  10.431   9.262  0.2741  0.1668 -0.2710
    6loPI   C2A   88   2.621  10.460   8.850 -0.0996  0.0875  0.2069
    6loPI   C3A   89   2.643  10.429   8.457  0.2429  0.1770 -0.0165
    6loPI   C4A   90   2.731  10.241   8.083  0.0517  0.0021 -0.2170
    6loPI   C5A   91   2.974  10.060   7.825 -0.0602 -0.3316 -0.0344
    6loPI   C6A   92   3.346   9.845   7.864 -0.1463 -0.2291  0.1906
    6loPI   C1B   93   2.353  10.077   9.300 -0.0035 -0.1713  0.0381
    6loPI   C2B   94   2.181  10.003   8.874 -0.0799 -0.2731 -0.2769
    6loPI   C3B   95   2.257   9.889   8.364  0.1590 -0.1755  0.1636
    6loPI   C4B   96   2.048   9.621   8.185 -0.4790 -0.2898  0.1981
    7loPI    C1   97  14.173  15.957  10.189 -0.0611  0.0017  0.0452
    7loPI    C2   98  14.452  15.931  10.474 -0.0134 -0.0698 -0.0077
    7loPI    C3   99  14.126  16.155  10.533  0.0547  0.0136  0.0543
    7loPI   PO4  100  14.075  15.692  10.082  0.0038 -0.0607 -0.1861
    7loPI   GL1  101  14.169  15.498   9.669  0.2664  0.3344  0.1031
    7loPI   GL2  102  13.885  15.463   9.665  0.1256 -0.3268  0.2329
    7loPI   C1A  103  14.214  15.086   9.473 -0.1833  0.0353  0.0951
    7loPI   C2A  104  14.524  14.812   9.333  0.1732 -0.0912  0.2736
    7loPI   C3A  105  14.734  14.657   8.916  0.0483  0.0592  0.1367
    7loPI   C4A  106  14.777  14.831   8.456 -0.0287  0.0834  0.0527
    7loPI   C5A  107  14.724  15.045   8.108 -0.0026 -0.1435 -0.0863
    7loPI   C6A  108  14.663  14.960   7.680  0.2502  0.0915 -0.0411
    7loPI   C1B  109  13.618  15.278   9.443 -0.2397  0.2338 -0.2904
    7loPI   C2B  110  13.460  15.188   9.005  0.0584  0.2027 -0.1436
    7loPI   C3B  111  13.352  15.220   8.664  0.0678 -0.0191 -0.0024
    7loPI   C4B  112  13.017  15.193   8.377  0.0688  0.1215  0.1739
    8loPI    C1  113   9.540   0.554  10.401  0.1584  0.0630 -0.0230
    8loPI    C2  114   9.935   0.512  10.442  0.1788  0.4210  0.1922
    8loPI    C3  115   9.691   0.413  10.743  0.0512 -0.3508 -0.1411
    8loPI   PO4  116   9.521   0.770  10.236 -0.0742  0.0131 -0.2035
    8loPI   GL1  117   9.297   0.737   9.742 -0.0812  0.0377  0.0166
    8loPI   GL2  118   9.576   0.800   9.714  0.1422 -0.0615 -0.0507
    8loPI   C1A  119   9.118   0.736   9.359  0.1049 -0.2184  0.0257
    8loPI   C2A  120   9.115   0.960   9.019 -0.1456 -0.0516  0.1703
    8loPI   C3A  121   9.135   0.987   8.616  0.1454  0.2487  0.2698
    8loPI   C4A  122   9.240   1.017   8.196  0.1786  0.1254  0.2760
    8loPI   C5A  123   9.223   0.799   7.895 -0.1195 -0.4347  0.0310
    8loPI   C6A  124   8.942   0.537   7.973  0.3546 -0.2059 -0.0975
    8loPI   C1B  125   9.617   0.707   9.288  0.0189  0.1153 -0.0088
    8loPI   C2B  126   9.495   0.661   8.828  0.0746  0.1073  0.0184
    8loPI   C3B  127   9.659   0.913   8.467 -0.2579  0.1619  0.0544
    8loPI   C4B  128   9.710   0.889   8.008 -0.0550  0.0497 -0.1718
    9loPI    C1  129  13.288   8.251  10.150 -0.0242  0.0156 -0.0950
    9loPI    C2  130  13.628   8.070  10.039 -0.0603 -0.1386  0.0413
    9loPI    C3  131  13.514   8.065  10.423 -0.0580  0.1837  0.0495
    9loPI   PO4  132  13.100   8.200  10.017  0.2495  0.0043 -0.0816
    9loPI   GL1  133  12.904   8.417   9.737 -0.1690 -0.0514 -0.0577
    9loPI   GL2  134  12.815   8.121   9.602  0.1646  0.2497  0.1209
    9loPI   C1A  135  12.665   8.487   9.382  0.0847  0.3137  0.4554
    9loPI   C2A  136  12.425   8.324   9.108 -0.0718  0.3912  0.0223
    9loPI   C3A  137  12.354   8.183   8.696 -0.1380  0.0854  0.1385
    9loPI   C4A  138  12.247   8.198   8.210  0.1175 -0.0820 -0.5430
    9loPI   C5A  139  11.994   8.007   7.923  0.0410 -0.1223 -0.0113
    9loPI   C6A  140  11.823   7.789   7.479 -0.0821  0.1333  0.0618
    9loPI   C1B  141  12.829   8.096   9.096  0.1073  0.0143 -0.3325
    9loPI   C2B  142  12.874   8.081   8.688  0.0702  0.0195  0.0676
    9loPI   C3B  143  12.827   8.015   8.283 -0.2296  0.2403 -0.2537
    9loPI   C4B  144  12.663   8.152   7.930  0.1389 -0.4501 -0.3041
   10loPI    C1  145   8.657   8.719  10.253  0.2323 -0.1355  0.2176
   10loPI    C2  146   8.763   8.595  10.619  0.0139 -0.2326  0.2500
   10loPI    C3  147   8.491   8.886  10.577  0.1466 -0.1194  0.1658
   10loPI   PO4  148   8.831   8.777  10.149 -0.1838  0.1265  0.1770
   10loPI   GL1  149   9.010   8.701   9.780  0.0841 -0.1063  0.0382
   10loPI   GL2  150   9.263   8.755   9.620 -0.2073  0.4549  0.1508
   10loPI   C1A  151   8.703   8.716   9.421  0.0161 -0.0664  0.2397
   10loPI   C2A  152   8.573   8.983   9.179 -0.3383  0.0734  0.0944
   10loPI   C3A  153   8.547   9.317   8.850 -0.0430 -0.0835 -0.0971
   10loPI   C4A  154   8.601   9.352   8.412  0.0771  0.1413  0.1281
   10loPI   C5A  155   8.773   9.603   8.171 -0.1064 -0.2327  0.2587
   10loPI   C6A  156   9.062   9.878   8.205  0.0312  0.0125 -0.4258
   10loPI   C1B  157   9.118   8.639   9.197 -0.1810  0.1057 -0.2668
   10loPI   C2B  158   9.387   8.703   8.806  0.0960  0.0530 -0.1314
   10loPI   C3B  159   9.677   8.582   8.457 -0.2378  0.0161  0.3120
   10loPI   C4B  160   9.977   8.546   8.035 -0.0604  0.1044 -0.1905
   11loPI    C1  161   8.600  10.590  10.853  0.0627  0.1354 -0.0841
   11loPI    C2  162   8.576  10.201  10.766  0.0862  0.1214 -0.0285
   11loPI    C3  163   8.824  10.326  11.053 -0.1566  0.1423  0.1756
   11loPI   PO4  164   8.406  10.675  10.616  0.2096  0.1856 -0.3092
   11loPI   GL1  165   8.359  10.969  10.144  0.0626  0.1238  0.0287
   11loPI   GL2  166   8.488  10.624  10.116  0.3524  0.1111 -0.5265
   11loPI   C1A  167   8.137  11.195   9.853 -0.1007  0.0752  0.0977
   11loPI   C2A  168   8.162  11.158   9.435  0.1662  0.0258  0.2668
   11loPI   C3A  169   8.154  11.155   9.020 -0.0856 -0.0500 -0.4204
   11loPI   C4A  170   8.177  11.012   8.523 -0.2948  0.1739  0.0489
   11loPI   C5A  171   8.315  11.164   8.187  0.2811  0.1358 -0.0573
   11loPI   C6A  172   8.407  10.940   7.829 -0.0208 -0.2338 -0.0862
   11loPI   C1B  173   8.431  10.836   9.672 -0.0293  0.1338 -0.0017
   11loPI   C2B  174   8.455  10.805   9.216  0.0509 -0.1874  0.0904
   11loPI   C3B  175   8.513  10.773   8.856 -0.2370  0.0155  0.0261
   11loPI   C4B  176   8.649  10.899   8.483  0.1243 -0.2278 -0.3233
   12loPI    C1  177  18.207  12.134  10.519 -0.0889  0.0223  0.0400
   12loPI    C2  178  18.249  12.432  10.783  0.0150  0.0530 -0.0105
   12loPI    C3  179  18.531  12.150  10.753 -0.1291 -0.1055  0.1055
   12loPI   PO4  180  18.033  12.200  10.335 -0.0476  0.2620 -0.0629
   12loPI   GL1  181  18.118  12.449   9.934 -0.3486 -0.0979 -0.0021
   12loPI   GL2  182  18.148  12.806   9.920 -0.1863 -0.1543 -0.2394
   12loPI   C1A  183  18.401  12.301   9.730  0.3985  0.1332  0.1270
   12loPI   C2A  184  18.553  12.454   9.357 -0.1565 -0.2658  0.0296
   12loPI   C3A  185  18.525  12.503   8.952  0.1134 -0.1468  0.1123
   12loPI   C4A  186  18.483  12.601   8.494  0.1156  0.1264 -0.1059
   12loPI   C5A  187  18.301  12.844   8.150 -0.0447 -0.1173 -0.0676
   12loPI   C6A  188  18.226  13.056   7.740  0.1388  0.3093 -0.1909
   12loPI   C1B  189  18.506  12.889   9.651 -0.1938  0.2075 -0.2681
   12loPI   C2B  190  18.480  13.064   9.267 -0.0793 -0.1135  0.2896
   12loPI   C3B  191  18.343  13.385   8.992  0.0068 -0.1416 -0.2378
   12loPI   C4B  192  18.163  13.780   8.802  0.0146  0.0167  0.2875
   13loPI    C1  193   4.039  16.443  10.297  0.0844 -0.1440 -0.1612
   13loPI    C2  194   3.965  16.050  10.309  0.2625 -0.1818 -0.2591
   13loPI    C3  195   4.319  16.191  10.433  0.1797 -0.0462 -0.1748
   13loPI   PO4  196   3.935  16.523  10.115 -0.1502  0.1091  0.2557
   13loPI   GL1  197   3.722  16.299   9.826 -0.2121  0.2565 -0.0697
   13loPI   GL2  198   3.480  16.481   9.840 -0.0291  0.0479  0.0012
   13loPI   C1A  199   4.062  16.267   9.433  0.0024  0.1781  0.0403
   13loPI   C2A  200   4.211  16.275   9.071 -0.1412 -0.0778 -0.1088
   13loPI   C3A  201   4.388  16.346   8.648 -0.1809 -0.2483 -0.1452
   13loPI   C4A  202   4.544  16.425   8.172  0.1346  0.4344  0.2379
   13loPI   C5A  203   4.493  16.266   7.777 -0.0127 -0.0356  0.3292
   13loPI   C6A  204   4.496  15.935   7.680 -0.0426 -0.1972 -0.3208
   13loPI   C1B  205   3.549  16.462   9.344  0.1954  0.1061 -0.2637
   13loPI   C2B  206   3.585  16.394   8.905 -0.3983 -0.2093  0.1863
   13loPI   C3B  207   3.562  16.391   8.411  0.3597 -0.1544 -0.1196
   13loPI   C4B  208   3.518  16.273   7.949  0.1698  0.0671 -0.0104
   14loPI    C1  209  14.057   1.100  10.069 -0.1656  0.0612 -0.1683
   14loPI    C2  210  13.989   0.706  10.057 -0.2084  0.0558  0.1645
   14loPI    C3  211  13.737   0.946  10.254 -0.0918  0.2293  0.1040
   14loPI   PO4  212  14.312   1.057   9.889  0.1583 -0.0781 -0.1571
   14loPI   GL1  213  14.307   0.714   9.677  0.3495  0.0340 -0.1264
   14loPI   GL2  214  14.453   0.435   9.942  0.0528  0.1017 -0.0309
   14loPI   C1A  215  14.363   0.837   9.272 -0.2291  0.1030 -0.2164
   14loPI   C2A  216  14.372   0.977   8.836 -0.2101 -0.1248 -0.4832
   14loPI   C3A  217  14.380   0.877   8.340  0.2673  0.0970  0.1327
   14loPI   C4A  218  14.553   0.561   7.956  0.0937 -0.2093 -0.0973
   14loPI   C5A  219  14.647   0.515   7.439 -0.0265  0.0162 -0.2343
   14loPI   C6A  220  14.765   0.511   7.047  0.1217 -0.0040 -0.0193
   14loPI   C1B  221  14.649   0.463   9.472  0.2144  0.1599 -0.0918
   14loPI   C2B  222  14.668   0.512   9.008  0.1650  0.0345  0.2116
   14loPI   C3B  223  14.748   0.671   8.624 -0.3044 -0.0685  0.0184
   14loPI   C4B  224  14.919   0.374   8.355  0.0631 -0.0211 -0.2986
   15loPI    C1  225   4.425   5.422   9.923  0.0557  0.1153  0.1373
   15loPI    C2  226   4.075   5.239   9.857  0.1305  0.0258 -0.0173
   15loPI    C3  227   4.275   5.173  10.198  0.0635 -0.0301  0.0114
   15loPI   PO4  228   4.395   5.691   9.825  0.2222 -0.2526  0.0175
   15loPI   GL1  229   4.041   5.867   9.481 -0.3463 -0.0328 -0.1815
   15loPI   GL2  230   3.871   5.679   9.756  0.1953 -0.2407  0.4989
   15loPI   C1A  231   3.710   5.836   9.268  0.1672 -0.0420  0.0575
   15loPI   C2A  232   3.364   5.886   8.962 -0.0487 -0.0553 -0.0872
   15loPI   C3A  233   3.043   5.691   8.592 -0.3068  0.1274  0.3557
   15loPI   C4A  234   3.102   5.369   8.122  0.0989  0.2758 -0.0076
   15loPI   C5A  235   3.344   5.249   7.824 -0.1299  0.2990 -0.1002
   15loPI   C6A  236   3.511   4.765   7.776  0.2253 -0.1075  0.1868
   15loPI   C1B  237   3.829   5.347   9.297 -0.3508 -0.0233  0.1557
   15loPI   C2B  238   3.649   5.470   8.906 -0.2173 -0.2150  0.0021
   15loPI   C3B  239   3.479   5.475   8.508 -0.1397 -0.0027 -0.2804
   15loPI   C4B  240   3.365   5.777   8.187 -0.0954 -0.0097 -0.1689
   16loPI    C1  241   5.711  16.623  10.429 -0.0628  0.0967 -0.1968
   16loPI    C2  242   5.782  16.913  10.695 -0.1845 -0.2258  0.1992
   16loPI    C3  243   6.012  16.586  10.690 -0.3018 -0.3072  0.0317
   16loPI   PO4  244   5.738  16.792  10.232  0.1723 -0.2460  0.2016
   16loPI   GL1  245   5.946  16.743   9.854 -0.1831  0.0362 -0.0686
   16loPI   GL2  246   6.212  16.642   9.908  0.2637  0.0356  0.3876
   16loPI   C1A  247   5.710  16.656   9.528 -0.1435  0.0913  0.1777
   16loPI   C2A  248   5.709  16.447   9.132  0.1005 -0.2565 -0.0588
   16loPI   C3A  249   5.783  16.368   8.756 -0.0404  0.0034  0.0538
   16loPI   C4A  250   5.896  16.362   8.357 -0.2518  0.1008 -0.1151
   16loPI   C5A  251   5.988  16.251   7.937 -0.1249  0.2312  0.4035
   16loPI   C6A  252   5.817  16.138   7.537  0.2916  0.1516 -0.1298
   16loPI   C1B  253   6.153  16.350   9.534  0.0925  0.0764 -0.0486
   16loPI   C2B  254   6.102  16.159   9.151 -0.2569 -0.3535  0.1276
   16loPI   C3B  255   6.222  16.115   8.723  0.3471  0.0829 -0.2399
   16loPI   C4B  256   6.260  16.052   8.378 -0.2433  0.3112 -0.0743
   17loPI    C1  257   7.831  14.462  10.630  0.1103  0.0494  0.0882
   17loPI    C2  258   8.066  14.756  10.766 -0.1360  0.2096  0.1749
   17loPI    C3  259   8.021  14.420  10.979  0.0248  0.1710  0.1497
   17loPI   PO4  260   7.753  14.438  10.294 -0.0769  0.2051 -0.1541
   17loPI   GL1  261   7.480  14.555  10.082 -0.1344  0.0438 -0.1504
   17loPI   GL2  262   7.388  14.671   9.985 -0.0807 -0.1121 -0.0908
   17loPI   C1A  263   7.632  14.390   9.710  0.3580 -0.1292  0.0164
   17loPI   C2A  264   7.643  14.396   9.303  0.1112  0.4154 -0.2683
   17loPI   C3A  265   7.608  14.243   8.866 -0.1295 -0.1894  0.0499
   17loPI   C4A  266   7.654  14.273   8.336 -0.1193  0.0384  0.0665
   17loPI   C5A  267   7.982  14.287   8.103  0.1687 -0.0122 -0.1563
   17loPI   C6A  268   8.218  14.276   7.732  0.2485  0.0018 -0.2518
   17loPI   C1B  269   7.436  14.811   9.569 -0.1792 -0.0239  0.0461
   17loPI   C2B  270   7.352  14.815   9.152  0.0050  0.2977  0.2055
   17loPI   C3B  271   7.511  14.733   8.876  0.1046 -0.1655 -0.0817
   17loPI   C4B  272   7.511  14.924   8.562 -0.0535 -0.0601  0.1967
   18loPI    C1  273   8.159   0.283  10.360  0.0803  0.0066 -0.0293
   18loPI    C2  274   7.930  -0.023  10.242  0.0600  0.1546 -0.3852
   18loPI    C3  275   7.769   0.281  10.446  0.0524 -0.0035 -0.1532
   18loPI   PO4  276   8.285   0.353  10.104  0.0648  0.0253 -0.3499
   18loPI   GL1  277   8.463   0.412   9.779  0.1541 -0.1650  0.0636
   18loPI   GL2  278   8.772   0.498   9.619 -0.2126  0.0891 -0.2576
   18loPI   C1A  279   8.364   0.811   9.635  0.0815 -0.2660 -0.0538
   18loPI   C2A  280   8.179   0.884   9.230  0.0721 -0.1920 -0.2321
   18loPI   C3A  281   8.171   1.229   9.033 -0.1194 -0.0944 -0.2307
   18loPI   C4A  282   8.282   1.456   8.598  0.1554  0.4446 -0.0349
   18loPI   C5A  283   8.143   1.631   8.247  0.2266 -0.0395 -0.1308
   18loPI   C6A  284   8.040   1.877   7.968 -0.1798 -0.4348 -0.1743
   18loPI   C1B  285   8.647   0.588   9.038  0.1008 -0.1565 -0.0880
   18loPI   C2B  286   8.696   0.638   8.534 -0.0833  0.2671  0.2209
   18loPI   C3B  287   8.669   0.926   8.190  0.0533 -0.1571 -0.2151
   18loPI   C4B  288   8.377   1.305   7.977  0.0153 -0.2814  0.2102
   19loPI    C1  289   8.312   8.302  10.590  0.0227 -0.1860 -0.1969
   19loPI    C2  290   8.288   7.917  10.697  0.0555 -0.1811 -0.1715
   19loPI    C3  291   8.013   8.178  10.825  0.0571 -0.1880 -0.1542
   19loPI   PO4  292   8.469   8.248  10.351 -0.1229 -0.1399  0.2116
   19loPI   GL1  293   8.421   8.199   9.889  0.2151 -0.0910  0.0291
   19loPI   GL2  294   8.548   8.488   9.841  0.0091  0.3121 -0.0952
   19loPI   C1A  295   8.458   8.283   9.400 -0.1731  0.0096  0.0904
   19loPI   C2A  296   8.359   8.408   8.961  0.4458 -0.0297  0.1192
   19loPI   C3A  297   8.524   8.752   8.780  0.0250 -0.3479 -0.0532
   19loPI   C4A  298   8.653   8.750   8.397  0.1140 -0.1433 -0.0067
   19loPI   C5A  299   8.878   8.434   8.109 -0.3186 -0.1745 -0.0691
   19loPI   C6A  300   8.957   8.020   7.875  0.4229 -0.3107 -0.1495
   19loPI   C1B  301   8.257   8.725   9.695  0.1293 -0.0212 -0.2442
   19loPI   C2B  302   8.051   9.092   9.591 -0.3307 -0.2862 -0.2101
   19loPI   C3B  303   7.705   9.227   9.655 -0.3728 -0.1329 -0.0111
   19loPI   C4B  304   7.219   9.405   9.697 -0.0499 -0.0594 -0.0603
   20loPI    C1  305   5.424   4.666   9.548 -0.0936 -0.2249  0.1227
   20loPI    C2  306   5.582   4.597   9.909 -0.0945 -0.0928  0.1486
   20loPI    C3  307   5.193   4.684   9.874 -0.0540  0.0872  0.1364
   20loPI   PO4  308   5.531   4.824   9.345  0.1481 -0.6153 -0.2162
   20loPI   GL1  309   5.591   4.828   8.981  0.0050 -0.1357 -0.0357
   20loPI   GL2  310   5.846   4.865   8.867  0.1143  0.1105  0.0408
   20loPI   C1A  311   5.556   5.118   8.572  0.0019 -0.2160  0.0436
   20loPI   C2A  312   5.813   5.238   8.202 -0.0032  0.0239  0.2589
   20loPI   C3A  313   5.949   4.978   7.887  0.2649 -0.0197  0.0731
   20loPI   C4A  314   6.201   4.768   7.530 -0.2680 -0.0776  0.3148
   20loPI   C5A  315   6.489   4.625   7.141  0.1324  0.1379  0.0785
   20loPI   C6A  316   6.437   4.535   6.676  0.0881  0.2591  0.0825
   20loPI   C1B  317   6.173   4.633   8.684 -0.0749 -0.2228  0.0443
   20loPI   C2B  318   6.533   4.487   8.457  0.1323  0.1645  0.0776
   20loPI   C3B  319   6.742   4.438   8.021  0.1010 -0.0287  0.0434
   20loPI   C4B  320   6.598   4.480   7.627 -0.0918  0.0975 -0.2403
   21loPI    C1  321   4.806  12.994  10.938  0.0461 -0.1159  0.2019
   21loPI    C2  322   5.071  13.290  10.981  0.0896 -0.1156 -0.0531
   21loPI    C3  323   5.119  12.947  11.182  0.1777 -0.0444  0.0482
   21loPI   PO4  324   4.743  13.013  10.664  0.4964 -0.1548  0.1472
   21loPI   GL1  325   4.793  12.872  10.275 -0.1135  0.0101  0.1653
   21loPI   GL2  326   4.502  12.846  10.017 -0.1487  0.3280 -0.0830
   21loPI   C1A  327   4.870  13.217   9.934  0.0810  0.1606 -0.2910
   21loPI   C2A  328   4.810  13.409   9.490 -0.0365  0.1011 -0.2509
   21loPI   C3A  329   4.784  13.348   8.976  0.0676 -0.2056  0.3309
   21loPI   C4A  330   4.821  13.279   8.545  0.1472  0.0334 -0.1978
   21loPI   C5A  331   4.792  13.268   8.143  0.0075 -0.0134 -0.0985
   21loPI   C6A  332   4.786  13.179   7.717 -0.1708 -0.0229 -0.1186
   21loPI   C1B  333   4.784  12.911   9.584 -0.0173 -0.2116  0.0225
   21loPI   C2B  334   4.823  12.873   9.263  0.0086 -0.0796  0.1940
   21loPI   C3B  335   4.818  12.882   8.823 -0.3648 -0.0816 -0.0729
   21loPI   C4B  336   4.897  12.787   8.345  0.1212 -0.0204 -0.1548
   22loPI    C1  337  16.124   0.535  10.436  0.1229 -0.0794 -0.0532
   22loPI    C2  338  15.878   0.700  10.705  0.2236  0.0862 -0.0606
   22loPI    C3  339  16.199   0.496  10.827  0.1970  0.0483 -0.0537
   22loPI   PO4  340  16.048   0.405  10.265 -0.3337 -0.0635 -0.0481
   22loPI   GL1  341  16.244   0.618   9.947 -0.0390  0.1160  0.2016
   22loPI   GL2  342  16.063   0.894   9.858  0.3070 -0.0761 -0.0188
   22loPI   C1A  343  16.517   0.396   9.770  0.1728  0.1335 -0.0201
   22loPI   C2A  344  16.441   0.439   9.288 -0.3034 -0.1288 -0.0554
   22loPI   C3A  345  16.441   0.360   8.912 -0.1597 -0.1874 -0.3629
   22loPI   C4A  346  16.344   0.401   8.469  0.0897  0.1887 -0.0498
   22loPI   C5A  347  16.454   0.329   8.008  0.1823 -0.0487 -0.0979
   22loPI   C6A  348  16.238   0.410   7.676 -0.3857  0.2629 -0.0711
   22loPI   C1B  349  16.096   0.855   9.417  0.0087  0.1801 -0.1882
   22loPI   C2B  350  16.190   0.842   8.945  0.4060 -0.0626 -0.2415
   22loPI   C3B  351  16.106   0.831   8.495 -0.0308 -0.0717 -0.1693
   22loPI   C4B  352  16.177   0.759   8.042  0.0310 -0.1793  0.1425
   23loPI    C1  353   6.564  17.134  10.063 -0.0982 -0.0851  0.0221
   23loPI    C2  354   6.501  17.413  10.343 -0.0060 -0.0683  0.0263
   23loPI    C3  355   6.692  17.074  10.437  0.1777  0.0112 -0.0542
   23loPI   PO4  356   6.340  17.196   9.893  0.0785  0.2213  0.2193
   23loPI   GL1  357   6.165  17.444   9.663  0.0095 -0.1648 -0.0483
   23loPI   GL2  358   5.861  17.183   9.579 -0.0575 -0.0500 -0.3704
   23loPI   C1A  359   6.299  17.322   9.159  0.1030 -0.1633  0.0981
   23loPI   C2A  360   6.313  17.135   8.726  0.2813 -0.0763 -0.0586
   23loPI   C3A  361   6.495  17.092   8.349  0.1932 -0.1403  0.1745
   23loPI   C4A  362   6.258  17.168   7.981 -0.2573 -0.0775 -0.0479
   23loPI   C5A  363   6.106  17.331   7.651  0.0324  0.0104 -0.1911
   23loPI   C6A  364   5.794  17.719   7.685 -0.0884  0.0160 -0.2993
   23loPI   C1B  365   5.833  16.991   9.199  0.2424 -0.1661  0.3129
   23loPI   C2B  366   5.848  16.884   8.820  0.3185 -0.1357 -0.0880
   23loPI   C3B  367   5.968  16.985   8.423 -0.2929 -0.0104  0.0153
   23loPI   C4B  368   5.926  16.789   8.038 -0.0412 -0.0004 -0.1607
   24loPI    C1  369   0.142  10.838  10.767  0.3337  0.0613 -0.1195
   24loPI    C2  370   0.248  11.202  10.895  0.0241  0.0900  0.0640
   24loPI    C3  371   0.199  10.904  11.157  0.1675 -0.0570 -0.0744
   24loPI   PO4  372   0.281  10.723  10.576  0.1422 -0.0590 -0.1600
   24loPI   GL1  373   0.746  10.914  10.339  0.0377  0.0465  0.0162
   24loPI   GL2  374   0.775  10.569  10.249 -0.0861 -0.0623  0.2299
   24loPI   C1A  375   0.964  10.954   9.919  0.4234 -0.1733  0.0017
   24loPI   C2A  376   1.135  10.899   9.536  0.0689 -0.2851 -0.0776
   24loPI   C3A  377   1.121  10.782   9.149 -0.2399  0.2015 -0.3141
   24loPI   C4A  378   1.143  10.853   8.745 -0.1462 -0.0699 -0.4586
   24loPI   C5A  379   0.965  10.905   8.433 -0.4476  0.0868  0.1384
   24loPI   C6A  380   0.593  10.854   8.181  0.0839  0.5393 -0.1312
   24loPI   C1B  381   0.442  10.663   9.881 -0.1882 -0.0571  0.1930
   24loPI   C2B  382   0.353  10.738   9.444 -0.0229 -0.0059 -0.1782
   24loPI   C3B  383   0.280  10.705   9.078  0.1761  0.0729 -0.1525
   24loPI   C4B  384   0.258  10.678   8.676  0.1150  0.1951  0.1386
   25loPI    C1  385   6.367   7.149  10.174  0.1481  0.1118 -0.1952
   25loPI    C2  386   6.629   6.848  10.142 -0.1233 -0.1812  0.2343
   25loPI    C3  387   6.655   7.104  10.448  0.0200  0.1550 -0.0520
   25loPI   PO4  388   6.362   7.221   9.844  0.0837  0.0845  0.1213
   25loPI   GL1  389   6.353   7.354   9.451 -0.1287  0.2244  0.1077
   25loPI   GL2  390   6.274   7.666   9.659 -0.2746  0.2817 -0.1184
   25loPI   C1A  391   6.507   7.486   9.082  0.0688 -0.1050 -0.1233
   25loPI   C2A  392   6.354   7.474   8.723  0.3451 -0.1380 -0.1236
   25loPI   C3A  393   6.350   7.338   8.324 -0.2358  0.1487  0.0655
   25loPI   C4A  394   6.271   7.089   7.894 -0.0197 -0.1407  0.0718
   25loPI   C5A  395   6.248   6.751   7.675  0.0050  0.0840  0.1744
   25loPI   C6A  396   6.528   6.440   7.429  0.0120  0.2729  0.0710
   25loPI   C1B  397   6.645   7.822   9.509 -0.1244  0.3354  0.1673
   25loPI   C2B  398   6.804   7.926   9.107 -0.1737 -0.0342  0.3158
   25loPI   C3B  399   6.741   7.811   8.730 -0.1965 -0.0732 -0.1250
   25loPI   C4B  400   6.739   7.652   8.352 -0.2680  0.0350  0.1217
   26loPI    C1  401   2.686   0.294  10.041  0.0278  0.1755 -0.0354
   26loPI    C2  402   2.861   0.256  10.399  0.0510  0.0932 -0.0553
   26loPI    C3  403   2.821   0.618  10.233 -0.0270  0.1398  0.0639
   26loPI   PO4  404   2.750   0.104   9.880  0.1183  0.1460 -0.2852
   26loPI   GL1  405   2.872   0.158   9.431  0.1238 -0.2104  0.0291
   26loPI   GL2  406   3.214   0.225   9.596  0.2815  0.1177  0.0171
   26loPI   C1A  407   2.932   0.100   9.032 -0.0362  0.2923  0.1514
   26loPI   C2A  408   2.783   0.184   8.556 -0.0824 -0.1412  0.2271
   26loPI   C3A  409   2.885   0.056   8.115  0.1372 -0.0307  0.4923
   26loPI   C4A  410   3.091   0.189   7.682  0.2642  0.0063 -0.2357
   26loPI   C5A  411   3.302   0.553   7.539  0.0812  0.0416  0.1040
   26loPI   C6A  412   3.649   0.646   7.694  0.1090 -0.0446 -0.1159
   26loPI   C1B  413   3.334   0.267   9.196  0.0127 -0.1111  0.2395
   26loPI   C2B  414   3.294   0.164   8.712 -0.0458  0.0443  0.0027
   26loPI   C3B  415   3.448   0.069   8.292 -0.1717 -0.2838 -0.3323
   26loPI   C4B  416   3.318  -0.176   8.039  0.1919  0.1425 -0.1487
   27loPI    C1  417  14.723   3.264  10.137 -0.0815  0.0883  0.0637
   27loPI    C2  418  14.478   3.026   9.929  0.2018 -0.1732  0.0217
   27loPI    C3  419  14.418   3.081  10.321  0.0008 -0.1305 -0.0139
   27loPI   PO4  420  14.875   3.352   9.943  0.0532 -0.2168  0.0479
   27loPI   GL1  421  15.038   3.032   9.524 -0.0374 -0.0073 -0.0184
   27loPI   GL2  422  15.015   2.827   9.730 -0.2359 -0.1352 -0.1538
   27loPI   C1A  423  15.169   3.163   9.082  0.1565  0.0609 -0.2022
   27loPI   C2A  424  15.228   3.507   8.847  0.0254 -0.1689  0.3607
   27loPI   C3A  425  15.344   3.704   8.503  0.1039 -0.2965  0.0149
   27loPI   C4A  426  15.200   3.895   8.142  0.0691  0.0055  0.2051
   27loPI   C5A  427  15.375   4.168   7.876 -0.1730 -0.0614 -0.1053
   27loPI   C6A  428  15.793   4.366   7.899 -0.0288  0.0985  0.0718
   27loPI   C1B  429  15.138   2.509   9.398  0.0220 -0.2425 -0.0967
   27loPI   C2B  430  15.310   2.657   9.027  0.0002  0.1049 -0.0419
   27loPI   C3B  431  15.475   2.634   8.612  0.0329  0.0434  0.2355
   27loPI   C4B  432  15.767   2.558   8.273 -0.2440  0.2258  0.0121
   28loPI    C1  433  18.328  17.775  10.185 -0.1028 -0.1738  0.0778
   28loPI    C2  434  18.578  17.793  10.497  0.0327 -0.4877 -0.0084
   28loPI    C3  435  18.196  17.906  10.539  0.2197  0.1481  0.0840
   28loPI   PO4  436  18.502  17.874   9.959  0.0661 -0.2279  0.0827
   28loPI   GL1  437  18.590  18.095   9.714 -0.0462 -0.1778  0.0548
   28loPI   GL2  438  18.916  17.930   9.640 -0.0273 -0.3658 -0.0907
   28loPI   C1A  439  18.578  18.232   9.335 -0.0930  0.2606  0.0889
   28loPI   C2A  440  18.816  18.287   8.980 -0.0970 -0.0508 -0.3958
   28loPI   C3A  441  18.697  18.422   8.562  0.1765  0.0608  0.2274
   28loPI   C4A  442  18.700  18.329   8.149 -0.1298 -0.0891  0.2657
   28loPI   C5A  443  19.015  18.435   7.832  0.3171  0.3733  0.0304
   28loPI   C6A  444  19.445  18.459   7.668  0.0409  0.1205 -0.0583
   28loPI   C1B  445  19.075  18.014   9.287 -0.0108  0.1941 -0.2282
   28loPI   C2B  446  19.210  17.785   8.928  0.0620 -0.2209  0.1771
   28loPI   C3B  447  19.046  18.045   8.353 -0.1947  0.0093  0.2597
   28loPI   C4B  448  18.981  17.953   7.897 -0.0287 -0.2717 -0.1902
   29loPI    C1  449   5.240   7.317  10.204 -0.0169 -0.0137  0.0838
   29loPI    C2  450   4.976   7.615  10.251 -0.0202  0.0158 -0.1109
   29loPI    C3  451   5.117   7.420  10.571 -0.2403  0.0321 -0.0019
   29loPI   PO4  452   5.480   7.517  10.115 -0.0765 -0.0952 -0.3147
   29loPI   GL1  453   5.708   7.494   9.844  0.0910 -0.2579 -0.0428
   29loPI   GL2  454   5.366   7.350   9.691 -0.1116 -0.0128  0.0811
   29loPI   C1A  455   5.854   7.510   9.443 -0.1802  0.0113 -0.1515
   29loPI   C2A  456   5.949   7.256   9.068  0.2494  0.0031  0.0946
   29loPI   C3A  457   5.937   7.169   8.668  0.1288 -0.2218 -0.1118
   29loPI   C4A  458   5.912   7.055   8.310 -0.0725  0.2439  0.0687
   29loPI   C5A  459   5.791   6.960   7.835 -0.3377  0.1397 -0.1256
   29loPI   C6A  460   5.573   6.674   7.487 -0.1455 -0.1248  0.0660
   29loPI   C1B  461   5.416   7.310   9.236 -0.3980  0.1508  0.1692
   29loPI   C2B  462   5.238   7.287   8.790 -0.4766 -0.3505 -0.1284
   29loPI   C3B  463   5.431   7.367   8.450 -0.0075 -0.0120  0.1152
   29loPI   C4B  464   5.452   7.825   8.260 -0.0407 -0.2577 -0.1648
   30loPI    C1  465   4.636  11.337  10.334 -0.1708 -0.0669  0.0678
   30loPI    C2  466   4.770  11.119  10.026  0.1014  0.1490  0.0293
   30loPI    C3  467   4.643  10.938  10.360 -0.0967 -0.0825 -0.1682
   30loPI   PO4  468   4.482  11.513  10.220 -0.1734  0.0274 -0.1099
   30loPI   GL1  469   4.584  11.703   9.837 -0.4717 -0.2341  0.1012
   30loPI   GL2  470   4.503  11.380   9.739 -0.2897 -0.0352  0.0400
   30loPI   C1A  471   4.525  11.917   9.458 -0.2993  0.0440  0.0824
   30loPI   C2A  472   4.615  11.948   9.034  0.3008 -0.0359 -0.0431
   30loPI   C3A  473   4.669  11.888   8.591  0.0659 -0.1369 -0.1342
   30loPI   C4A  474   4.556  11.837   8.192 -0.0530 -0.2458  0.0176
   30loPI   C5A  475   4.412  11.552   7.893  0.2167 -0.1228 -0.0760
   30loPI   C6A  476   4.397  11.528   7.498  0.1272  0.1135  0.1782
   30loPI   C1B  477   4.629  11.428   9.365 -0.2128 -0.1174 -0.2226
   30loPI   C2B  478   4.767  11.507   8.929  0.1029  0.1816 -0.1815
   30loPI   C3B  479   5.144  11.527   8.583  0.1181  0.1718  0.0574
   30loPI   C4B  480   5.484  11.290   8.392 -0.2613  0.2134 -0.3542
   31loPI    C1  481  17.623   0.710  10.252  0.2645  0.0965 -0.2702
   31loPI    C2  482  17.656   0.621  10.640  0.1655  0.1407 -0.2511
   31loPI    C3  483  17.716   0.996  10.516 -0.1578  0.2029 -0.2286
   31loPI   PO4  484  17.394   0.685  10.196  0.2018 -0.1726 -0.0962
   31loPI   GL1  485  17.331   0.858   9.822 -0.1752  0.1870  0.3964
   31loPI   GL2  486  17.088   1.030   9.630 -0.2320  0.0469 -0.1419
   31loPI   C1A  487  17.587   0.936   9.498 -0.0791  0.1899 -0.0982
   31loPI   C2A  488  17.662   0.877   9.077  0.1611 -0.0468 -0.1059
   31loPI   C3A  489  17.703   0.850   8.625  0.2035  0.1015  0.0066
   31loPI   C4A  490  17.734   0.856   8.161  0.1098 -0.2248 -0.3641
   31loPI   C5A  491  17.762   0.912   7.771 -0.0706 -0.1240 -0.2326
   31loPI   C6A  492  17.948   1.245   7.552 -0.0770 -0.1973 -0.0170
   31loPI   C1B  493  17.132   0.845   9.177  0.2100  0.2408  0.1238
   31loPI   C2B  494  17.181   0.863   8.719  0.0229 -0.2272 -0.0023
   31loPI   C3B  495  17.229   0.911   8.299  0.1074  0.2488 -0.2157
   31loPI   C4B  496  17.277   0.697   7.897 -0.0983 -0.4120 -0.0898
   32loPI    C1  497   2.219   7.178  10.704 -0.4712  0.3290  0.0918
   32loPI    C2  498   1.886   6.997  10.831 -0.1458 -0.1167  0.3390
   32loPI    C3  499   2.152   7.135  11.096  0.1346 -0.2799  0.1473
   32loPI   PO4  500   2.146   7.254  10.433 -0.2295  0.1082 -0.0713
   32loPI   GL1  501   2.199   7.190  10.009  0.1857 -0.0466  0.0450
   32loPI   GL2  502   2.452   7.113   9.923  0.3475 -0.1937 -0.1294
   32loPI   C1A  503   1.828   7.512   9.894 -0.2467 -0.1409 -0.0871
   32loPI   C2A  504   1.814   7.784   9.678  0.1713 -0.0922  0.3220
   32loPI   C3A  505   1.647   8.040   9.343 -0.0451  0.2448 -0.0893
   32loPI   C4A  506   1.735   8.338   9.040  0.1760 -0.2006 -0.1800
   32loPI   C5A  507   2.143   8.624   9.191 -0.1717 -0.2487  0.2781
   32loPI   C6A  508   2.205   8.619   9.625  0.0836 -0.1826 -0.0631
   32loPI   C1B  509   2.306   7.039   9.575 -0.2031  0.1092 -0.4579
   32loPI   C2B  510   2.029   7.258   9.475  0.0315 -0.1144  0.2682
   32loPI   C3B  511   1.809   7.547   9.238  0.3874  0.3163  0.0061
   32loPI   C4B  512   1.904   7.880   8.939  0.3885 -0.1561 -0.0697
   33loPI    C1  513   9.102   2.876  10.292  0.0653  0.1165 -0.0259
   33loPI    C2  514   8.723   3.000  10.321  0.0163 -0.0398  0.0153
   33loPI    C3  515   8.853   2.700  10.551  0.1391 -0.0504 -0.0668
   33loPI   PO4  516   9.157   2.839  10.076  0.1132  0.3317 -0.3288
   33loPI   GL1  517   9.381   2.519   9.887  0.0724  0.0588  0.3156
   33loPI   GL2  518   9.105   2.502   9.697  0.4411  0.0729  0.1346
   33loPI   C1A  519   9.600   2.427   9.514 -0.2454  0.0767 -0.1583
   33loPI   C2A  520   9.658   2.513   9.077 -0.1588 -0.2782  0.3176
   33loPI   C3A  521   9.813   2.693   8.738 -0.1414  0.1613  0.0598
   33loPI   C4A  522   9.774   2.815   8.306 -0.2356 -0.2565 -0.0150
   33loPI   C5A  523  10.054   3.064   8.092 -0.1363  0.1211 -0.4368
   33loPI   C6A  524  10.410   3.238   8.125  0.2435 -0.1234  0.2638
   33loPI   C1B  525   9.150   2.518   9.233 -0.1632  0.1220  0.0400
   33loPI   C2B  526   9.227   2.412   8.737  0.0199 -0.0367 -0.1655
   33loPI   C3B  527   9.384   2.419   8.382 -0.1656 -0.0924 -0.1843
   33loPI   C4B  528   9.373   2.218   7.928  0.0554  0.1553  0.0139
   34loPI    C1  529   7.477   6.132  10.093  0.2688 -0.2658 -0.2325
   34loPI    C2  530   7.300   5.773  10.106 -0.2638 -0.0052  0.0965
   34loPI    C3  531   7.368   5.975  10.444 -0.1197  0.2783 -0.0969
   34loPI   PO4  532   7.676   6.086   9.838  0.0115 -0.4149 -0.2534
   34loPI   GL1  533   8.095   6.069   9.477 -0.0823  0.1517 -0.0967
   34loPI   GL2  534   7.829   6.182   9.368  0.2279 -0.0479 -0.2403
   34loPI   C1A  535   8.227   6.032   9.050 -0.1937  0.1496 -0.0493
   34loPI   C2A  536   8.303   6.030   8.609  0.1156  0.2194  0.0185
   34loPI   C3A  537   8.389   6.022   8.192  0.1496 -0.0043 -0.1963
   34loPI   C4A  538   8.409   6.339   8.013 -0.0579  0.1205  0.3186
   34loPI   C5A  539   8.273   6.450   7.710  0.1637 -0.1912 -0.1440
   34loPI   C6A  540   8.332   6.751   7.536  0.0936 -0.3866 -0.0096
   34loPI   C1B  541   7.791   6.351   8.998  0.2167 -0.1287 -0.0702
   34loPI   C2B  542   7.635   6.478   8.578  0.0631  0.1067  0.0077
   34loPI   C3B  543   7.513   6.835   8.397  0.3153 -0.2062  0.2012
   34loPI   C4B  544   7.208   6.893   8.128  0.0935 -0.2500 -0.1318
   35loPI    C1  545  16.062   6.871  10.451 -0.0270  0.0132 -0.1107
   35loPI    C2  546  15.820   6.563  10.369  0.0291  0.0110 -0.2703
   35loPI    C3  547  16.103   6.526  10.649  0.0689 -0.1001 -0.3246
   35loPI   PO4  548  16.125   6.956  10.152  0.1026  0.2168 -0.0224
   35loPI   GL1  549  16.203   6.950   9.726 -0.0181  0.3398  0.0056
   35loPI   GL2  550  16.360   6.659   9.621 -0.1705 -0.1689 -0.1952
   35loPI   C1A  551  15.924   6.709   9.378  0.2592 -0.0944 -0.1575
   35loPI   C2A  552  15.979   6.680   8.939  0.0350  0.1007  0.1280
   35loPI   C3A  553  16.170   7.015   8.755  0.2476 -0.0443  0.0425
   35loPI   C4A  554  16.354   7.033   8.314 -0.0961  0.0655  0.1135
   35loPI   C5A  555  16.766   7.194   8.132 -0.3131 -0.1120  0.0895
   35loPI   C6A  556  17.219   7.146   7.924 -0.0742  0.0275  0.0401
   35loPI   C1B  557  16.320   6.988   9.265 -0.2308 -0.2998  0.1384
   35loPI   C2B  558  16.650   7.159   8.975 -0.0133 -0.1553 -0.1447
   35loPI   C3B  559  16.801   7.035   8.650 -0.3030  0.0273  0.1051
   35loPI   C4B  560  17.296   7.159   8.451  0.1362 -0.1937  0.1313
   36loPI    C1  561  11.547   3.601  10.520  0.2507 -0.0859  0.1213
   36loPI    C2  562  11.535   3.658  10.916 -0.0841  0.0912  0.0893
   36loPI    C3  563  11.408   3.312  10.761  0.0708  0.0121  0.1370
   36loPI   PO4  564  11.435   3.854  10.416  0.1690  0.1205 -0.2788
   36loPI   GL1  565  11.127   3.888   9.985  0.2134 -0.1497  0.0384
   36loPI   GL2  566  11.009   4.166   9.907  0.0464  0.1909 -0.1520
   36loPI   C1A  567  11.261   3.861   9.611 -0.1008 -0.0753 -0.0073
   36loPI   C2A  568  11.295   3.808   9.159  0.3288  0.0600 -0.2081
   36loPI   C3A  569  11.294   3.865   8.820 -0.1868  0.3730  0.1315
   36loPI   C4A  570  11.407   3.876   8.407  0.4056  0.4502  0.0866
   36loPI   C5A  571  11.398   3.608   8.018  0.0906 -0.1047 -0.2276
   36loPI   C6A  572  11.292   3.302   7.705  0.1355 -0.3525 -0.0722
   36loPI   C1B  573  10.946   4.210   9.447 -0.0098 -0.2339  0.0378
   36loPI   C2B  574  11.049   4.308   9.009 -0.2180 -0.0001 -0.2377
   36loPI   C3B  575  11.198   4.357   8.593  0.0204 -0.1183  0.1212
   36loPI   C4B  576  11.429   4.343   8.209 -0.1295  0.0960 -0.2914
   37loPI    C1  577   7.908  16.272  10.430  0.1999  0.1281  0.0154
   37loPI    C2  578   7.855  16.097  10.785 -0.0287 -0.0962 -0.1254
   37loPI    C3  579   8.213  16.246  10.687  0.0196  0.0270  0.2225
   37loPI   PO4  580   7.849  16.174  10.218 -0.1488  0.1589 -0.0368
   37loPI   GL1  581   8.170  16.222   9.940 -0.0121  0.3942  0.1432
   37loPI   GL2  582   7.956  16.421   9.741 -0.0805  0.2266 -0.0286
   37loPI   C1A  583   8.299  16.132   9.453 -0.0551 -0.0038 -0.0605
   37loPI   C2A  584   8.221  16.186   8.987  0.0123  0.0930  0.1874
   37loPI   C3A  585   8.168  16.179   8.554 -0.4901 -0.0138 -0.0180
   37loPI   C4A  586   8.041  16.324   8.063 -0.2622 -0.2242  0.7949
   37loPI   C5A  587   7.961  16.639   7.750 -0.2362 -0.0253  0.0739
   37loPI   C6A  588   8.242  16.981   7.685  0.1210 -0.1463 -0.1365
   37loPI   C1B  589   8.134  16.567   9.286  0.1575 -0.0578 -0.3113
   37loPI   C2B  590   8.267  16.630   8.908  0.4008 -0.2035  0.1396
   37loPI   C3B  591   8.144  16.689   8.458 -0.1812  0.0655 -0.0836
   37loPI   C4B  592   8.338  16.775   8.076  0.1217 -0.0850  0.0066
   38loPI    C1  593  10.905  18.271  10.456  0.1159 -0.1086  0.0611
   38loPI    C2  594  10.582  18.481  10.350  0.2463  0.0408 -0.0444
   38loPI    C3  595  10.709  18.487  10.729  0.0296 -0.1519  0.0336
   38loPI   PO4  596  10.832  18.049  10.361 -0.1920 -0.2753 -0.0560
   38loPI   GL1  597  10.573  17.837  10.094 -0.1676 -0.0826 -0.0048
   38loPI   GL2  598  10.867  18.006   9.876 -0.0388  0.3356  0.0184
   38loPI   C1A  599  10.353  17.820   9.717 -0.0943 -0.2694  0.3215
   38loPI   C2A  600  10.478  17.648   9.240 -0.2948  0.1171 -0.3613
   38loPI   C3A  601  10.509  17.502   8.787  0.1570 -0.0499 -0.0951
   38loPI   C4A  602  10.573  17.430   8.374 -0.1220  0.0170  0.3374
   38loPI   C5A  603  10.716  17.372   7.936  0.1087  0.0223  0.1499
   38loPI   C6A  604  10.973  17.234   7.675 -0.0197 -0.0427  0.2431
   38loPI   C1B  605  10.763  17.982   9.406 -0.0462 -0.2164 -0.2524
   38loPI   C2B  606  11.025  18.036   8.994  0.3685  0.0077  0.0337
   38loPI   C3B  607  10.934  17.885   8.495  0.1411  0.1690  0.0888
   38loPI   C4B  608  11.028  17.735   8.068 -0.2340 -0.0092 -0.1069
   39loPI    C1  609  11.126   2.777  10.766  0.3774  0.1007 -0.0765
   39loPI    C2  610  11.035   2.665  11.139  0.2617  0.0687 -0.1140
   39loPI    C3  611  11.367   2.876  11.070  0.3260  0.0047 -0.0037
   39loPI   PO4  612  11.125   2.579  10.598 -0.1517 -0.0419 -0.1588
   39loPI   GL1  613  11.072   2.605  10.101 -0.4858  0.1735  0.0950
   39loPI   GL2  614  11.376   2.660   9.961 -0.3468 -0.3104  0.2428
   39loPI   C1A  615  10.927   2.488   9.662 -0.0530 -0.2226  0.2084
   39loPI   C2A  616  10.969   2.441   9.271  0.1782  0.2117 -0.1594
   39loPI   C3A  617  11.063   2.391   8.849 -0.2283  0.0407  0.3755
   39loPI   C4A  618  11.135   2.098   8.487  0.2396 -0.1303 -0.0949
   39loPI   C5A  619  11.075   1.960   8.082 -0.2635 -0.1916 -0.0742
   39loPI   C6A  620  10.924   2.218   7.700  0.2490 -0.2022  0.0998
   39loPI   C1B  621  11.350   2.642   9.550  0.2458 -0.0976  0.1080
   39loPI   C2B  622  11.461   2.702   9.123  0.0032 -0.0399 -0.1186
   39loPI   C3B  623  11.623   2.875   8.728  0.3915 -0.0001 -0.1484
   39loPI   C4B  624  11.701   2.758   8.323 -0.0046  0.0807  0.4314
   40loPI    C1  625  15.531   1.201  10.559  0.0205 -0.0034 -0.0326
   40loPI    C2  626  15.874   1.260  10.757  0.2655 -0.2958 -0.3581
   40loPI    C3  627  15.579   1.049  10.926  0.2019  0.0398 -0.0375
   40loPI   PO4  628  15.619   1.261  10.282 -0.0190 -0.0306 -0.2020
   40loPI   GL1  629  15.541   1.198   9.915 -0.1025 -0.0680  0.0302
   40loPI   GL2  630  15.698   1.305   9.667 -0.0629  0.1420 -0.0617
   40loPI   C1A  631  15.262   1.114   9.624 -0.3936 -0.1344 -0.1986
   40loPI   C2A  632  15.348   1.158   9.285  0.5198  0.1860 -0.1910
   40loPI   C3A  633  15.255   1.307   8.882  0.1310 -0.2325  0.1731
   40loPI   C4A  634  15.069   1.622   8.625  0.1020  0.1578 -0.0210
   40loPI   C5A  635  15.051   1.798   8.314 -0.1234  0.1122  0.2280
   40loPI   C6A  636  15.281   1.693   8.012  0.1030 -0.0257  0.0469
   40loPI   C1B  637  15.784   1.282   9.252 -0.1902  0.0678 -0.0295
   40loPI   C2B  638  15.849   1.285   8.842  0.1563  0.3876 -0.0549
   40loPI   C3B  639  15.919   1.396   8.463 -0.0183 -0.1470 -0.1328
   40loPI   C4B  640  15.871   1.746   8.190  0.0135  0.2142  0.1522
   41loPI    C1  641  12.204   2.722  10.313  0.1028 -0.0396 -0.0118
   41loPI    C2  642  12.418   2.590  10.624  0.1071  0.1294  0.0577
   41loPI    C3  643  12.557   2.890  10.398  0.1467 -0.0533 -0.1638
   41loPI   PO4  644  12.209   2.525  10.079 -0.0471 -0.0441  0.2442
   41loPI   GL1  645  12.493   2.372   9.814  0.2013  0.2206  0.1975
   41loPI   GL2  646  12.290   2.296   9.590  0.0266  0.0386  0.3524
   41loPI   C1A  647  12.766   2.595   9.520  0.1307  0.1817  0.1273
   41loPI   C2A  648  13.026   2.889   9.338 -0.3034 -0.4162  0.2204
   41loPI   C3A  649  12.982   2.886   8.903 -0.3596  0.0059  0.0721
   41loPI   C4A  650  13.101   2.880   8.485 -0.0498 -0.0929 -0.0428
   41loPI   C5A  651  13.181   2.982   8.039  0.0168 -0.3727 -0.1651
   41loPI   C6A  652  13.019   3.160   7.696  0.0234 -0.3090 -0.0106
   41loPI   C1B  653  12.358   2.503   9.251 -0.0010 -0.0326 -0.0152
   41loPI   C2B  654  12.473   2.645   8.866 -0.1023  0.2777  0.4177
   41loPI   C3B  655  12.598   2.945   8.548  0.0408  0.0594 -0.0869
   41loPI   C4B  656  12.580   3.041   8.127  0.1684 -0.0485  0.0270
   42loPI    C1  657   4.918   8.100  10.328 -0.2664 -0.0051  0.0949
   42loPI    C2  658   4.757   8.418  10.146 -0.1243  0.0891  0.1323
   42loPI    C3  659   4.680   8.349  10.532 -0.1400  0.0891  0.1291
   42loPI   PO4  660   5.192   8.075  10.225  0.1475 -0.0500  0.2513
   42loPI   GL1  661   5.317   8.040   9.750 -0.1410  0.1214 -0.1412
   42loPI   GL2  662   5.069   8.366   9.722  0.2354  0.0179  0.3933
   42loPI   C1A  663   5.372   7.805   9.460 -0.2140  0.3716 -0.0569
   42loPI   C2A  664   5.605   7.683   9.029  0.2158 -0.0384 -0.2186
   42loPI   C3A  665   5.804   7.702   8.681  0.1470 -0.1709 -0.1597
   42loPI   C4A  666   5.922   7.611   8.305  0.4049  0.1512 -0.0482
   42loPI   C5A  667   6.013   7.570   7.878 -0.2426 -0.0779 -0.0080
   42loPI   C6A  668   6.024   7.737   7.436  0.0221  0.0108  0.0235
   42loPI   C1B  669   5.028   8.138   9.312 -0.1203  0.0324 -0.2245
   42loPI   C2B  670   5.020   8.218   8.867  0.0471  0.0325 -0.0508
   42loPI   C3B  671   5.216   8.274   8.411  0.1993  0.0023 -0.0090
   42loPI   C4B  672   5.240   8.264   7.999 -0.0587 -0.2306  0.0218
   43loPI    C1  673   3.891   9.381  10.516  0.0086 -0.2148 -0.0361
   43loPI    C2  674   4.234   9.177  10.496  0.1502 -0.0054  0.1982
   43loPI    C3  675   4.150   9.395  10.821 -0.1715  0.0056  0.1104
   43loPI   PO4  676   3.745   9.232  10.330 -0.0562 -0.2491  0.4241
   43loPI   GL1  677   3.829   9.243   9.885 -0.3370 -0.0387  0.0161
   43loPI   GL2  678   3.715   8.971   9.775  0.1400 -0.1288  0.1904
   43loPI   C1A  679   3.766   9.200   9.372 -0.3209  0.2150  0.1617
   43loPI   C2A  680   3.908   9.247   8.934  0.0960  0.1283 -0.3640
   43loPI   C3A  681   4.005   9.282   8.482  0.0960  0.0180 -0.2798
   43loPI   C4A  682   4.071   9.189   8.034 -0.1861  0.1897  0.1352
   43loPI   C5A  683   4.346   8.826   7.840  0.2348  0.1791  0.0375
   43loPI   C6A  684   4.416   8.504   7.582  0.2642 -0.0835  0.2099
   43loPI   C1B  685   3.644   8.697   9.471  0.0122 -0.2836 -0.1171
   43loPI   C2B  686   3.618   8.820   9.039  0.1516 -0.2556 -0.1953
   43loPI   C3B  687   3.792   8.834   8.655  0.4072  0.3375  0.1239
   43loPI   C4B  688   3.857   8.807   8.249  0.2435  0.0472  0.0443
   44loPI    C1  689  15.455  17.548  10.193 -0.1464  0.3095 -0.1594
   44loPI    C2  690  15.209  17.603  10.503 -0.0613  0.0535 -0.0435
   44loPI    C3  691  15.520  17.848  10.450 -0.2206  0.2528 -0.0737
   44loPI   PO4  692  15.519  17.246  10.179 -0.2504  0.0722 -0.2442
   44loPI   GL1  693  15.712  17.173   9.808  0.0148 -0.1227  0.2409
   44loPI   GL2  694  15.858  17.413   9.832  0.0670  0.0733  0.0094
   44loPI   C1A  695  15.709  17.382   9.352  0.2094 -0.2848 -0.1485
   44loPI   C2A  696  15.625  17.446   8.926 -0.3110  0.0139  0.1247
   44loPI   C3A  697  15.665  17.559   8.538  0.0395 -0.1829 -0.1682
   44loPI   C4A  698  15.670  17.512   8.096  0.1770 -0.0437 -0.3912
   44loPI   C5A  699  15.765  17.245   7.850  0.3506 -0.0351  0.0511
   44loPI   C6A  700  15.955  16.915   7.655  0.0386  0.1087  0.0289
   44loPI   C1B  701  16.245  17.576   9.613  0.0698  0.0126  0.2436
   44loPI   C2B  702  16.583  17.588   9.257 -0.1900  0.2887 -0.0108
   44loPI   C3B  703  16.675  17.552   8.823  0.2117  0.1832 -0.0960
   44loPI   C4B  704  16.691  17.587   8.437 -0.0613 -0.0848 -0.0561
   45loPI    C1  705  11.651  12.156  10.527  0.0933 -0.3382  0.0128
   45loPI    C2  706  11.436  12.243  10.853 -0.0815 -0.0810 -0.1679
   45loPI    C3  707  11.803  12.089  10.891 -0.0317  0.1087  0.1539
   45loPI   PO4  708  11.394  12.198  10.273  0.1883  0.3803  0.0568
   45loPI   GL1  709  11.477  12.351   9.820  0.0415 -0.0979 -0.0104
   45loPI   GL2  710  11.135  12.276   9.768 -0.4436 -0.0874 -0.2397
   45loPI   C1A  711  11.560  12.462   9.441  0.1089 -0.1454 -0.2208
   45loPI   C2A  712  11.777  12.369   9.015  0.0424  0.0138  0.0409
   45loPI   C3A  713  11.905  12.539   8.525  0.1415 -0.0256  0.0884
   45loPI   C4A  714  11.862  12.496   8.091 -0.1175 -0.1060  0.0277
   45loPI   C5A  715  11.674  12.754   7.806  0.2240 -0.1309  0.1187
   45loPI   C6A  716  11.470  12.905   7.527  0.1519  0.0537 -0.1307
   45loPI   C1B  717  11.233  12.121   9.372  0.2086  0.1085 -0.1300
   45loPI   C2B  718  11.395  12.105   8.990 -0.4594 -0.1731  0.0002
   45loPI   C3B  719  11.481  12.216   8.550 -0.1200 -0.0410  0.2851
   45loPI   C4B  720  11.612  12.024   8.135  0.4307  0.2300 -0.1230
   46loPI    C1  721   6.016  14.599  10.580  0.1975  0.3458 -0.3000
   46loPI    C2  722   6.101  14.260  10.384  0.1142  0.1672 -0.0321
   46loPI    C3  723   5.790  14.274  10.635  0.1058  0.4491 -0.0546
   46loPI   PO4  724   5.952  14.775  10.374  0.0875  0.1717  0.0799
   46loPI   GL1  725   5.896  14.894   9.932 -0.1644 -0.2377  0.0472
   46loPI   GL2  726   5.686  14.564   9.954 -0.0645  0.1080  0.0429
   46loPI   C1A  727   5.818  14.735   9.500 -0.0659 -0.4341  0.2643
   46loPI   C2A  728   5.852  14.791   9.104  0.0213 -0.1325 -0.0877
   46loPI   C3A  729   5.825  14.932   8.655  0.1767 -0.0898  0.0171
   46loPI   C4A  730   5.994  14.810   8.248  0.2556 -0.1416  0.0515
   46loPI   C5A  731   6.203  15.048   8.005  0.1213 -0.1346  0.0619
   46loPI   C6A  732   6.353  15.410   7.659  0.3624  0.2922  0.0078
   46loPI   C1B  733   6.009  14.334   9.807  0.2977 -0.0357 -0.0756
   46loPI   C2B  734   6.273  14.438   9.580 -0.0672  0.1126  0.0733
   46loPI   C3B  735   6.621  14.496   9.310  0.0351 -0.1482  0.1626
   46loPI   C4B  736   6.610  14.265   8.916  0.3565 -0.0087  0.3115
   47loPI    C1  737  16.736   9.777  10.602  0.2682  0.1869  0.0371
   47loPI    C2  738  16.747   9.915  10.978 -0.0935  0.0388  0.1061
   47loPI    C3  739  16.757   9.521  10.908 -0.2465  0.0572 -0.0264
   47loPI   PO4  740  16.544   9.917  10.416 -0.0655  0.1749 -0.1475
   47loPI   GL1  741  16.351  10.099  10.012  0.2075 -0.0897 -0.3016
   47loPI   GL2  742  16.640  10.185  10.023  0.0998 -0.3470 -0.1982
   47loPI   C1A  743  16.212  10.070   9.583 -0.2213  0.3239 -0.2828
   47loPI   C2A  744  15.991  10.264   9.282  0.1685 -0.1710 -0.0875
   47loPI   C3A  745  16.021  10.260   8.933  0.6203  0.3406 -0.0356
   47loPI   C4A  746  15.708  10.085   8.565 -0.1155  0.2138  0.0054
   47loPI   C5A  747  15.475   9.832   8.223  0.0960 -0.0674 -0.4056
   47loPI   C6A  748  15.449   9.832   7.788  0.1131 -0.2210  0.0840
   47loPI   C1B  749  16.705  10.295   9.556  0.1927  0.1600 -0.0230
   47loPI   C2B  750  16.490  10.317   9.195 -0.3041 -0.0113  0.2919
   47loPI   C3B  751  16.465  10.194   8.778  0.0397 -0.1858 -0.3803
   47loPI   C4B  752  16.471   9.858   8.434 -0.1494 -0.1060  0.1345
   48loPI    C1  753   1.808   9.707  10.522 -0.0786  0.1785  0.0897
   48loPI    C2  754   1.906  10.041  10.718 -0.2089  0.1326  0.2351
   48loPI    C3  755   2.099   9.700  10.796 -0.0641  0.1758  0.0743
   48loPI   PO4  756   1.957   9.588  10.221  0.1645  0.0267  0.0254
   48loPI   GL1  757   2.145   9.775   9.888 -0.0515 -0.0081  0.0419
   48loPI   GL2  758   2.439   9.684  10.025  0.1163  0.0087  0.1817
   48loPI   C1A  759   1.939   9.732   9.449 -0.2618 -0.0385  0.3609
   48loPI   C2A  760   1.911   9.582   9.038 -0.0207 -0.1109  0.3800
   48loPI   C3A  761   1.754   9.631   8.643  0.1308 -0.1678 -0.1190
   48loPI   C4A  762   1.563   9.620   8.259  0.1923 -0.1602 -0.0408
   48loPI   C5A  763   1.606   9.531   7.857 -0.0551 -0.1931 -0.1533
   48loPI   C6A  764   1.879   9.241   7.704 -0.0561 -0.0462  0.0421
   48loPI   C1B  765   2.437   9.575   9.542 -0.2337 -0.1356 -0.0428
   48loPI   C2B  766   2.391   9.526   9.080 -0.2876  0.0808  0.1135
   48loPI   C3B  767   2.377   9.537   8.769  0.1324 -0.0109 -0.1471
   48loPI   C4B  768   2.453   9.383   8.357 -0.0149 -0.2628 -0.3988
   49loPI    C1  769   6.771   3.844   9.896 -0.0254  0.0996 -0.0730
   49loPI    C2  770   6.533   3.827  10.217  0.0048  0.1628 -0.0469
   49loPI    C3  771   6.798   4.124  10.181  0.1367  0.0473 -0.0358
   49loPI   PO4  772   6.559   3.728   9.696 -0.0950 -0.0935  0.2756
   49loPI   GL1  773   6.640   3.576   9.214  0.2147  0.2754 -0.1636
   49loPI   GL2  774   6.959   3.428   9.368  0.1288 -0.0920  0.3268
   49loPI   C1A  775   6.648   3.697   8.753  0.0543 -0.2184  0.1679
   49loPI   C2A  776   6.613   3.976   8.436  0.2484 -0.0311 -0.0815
   49loPI   C3A  777   6.742   3.906   7.942 -0.1730 -0.1856 -0.1348
   49loPI   C4A  778   7.027   4.206   7.648  0.0944 -0.0221 -0.0159
   49loPI   C5A  779   7.046   4.553   7.427  0.0680  0.2274  0.1113
   49loPI   C6A  780   6.771   4.923   7.462  0.2626  0.1069  0.0074
   49loPI   C1B  781   6.881   3.252   8.912  0.0048 -0.1366 -0.1398
   49loPI   C2B  782   6.972   3.305   8.597  0.3432  0.1010  0.0696
   49loPI   C3B  783   6.734   3.430   8.196  0.0809  0.1668  0.1081
   49loPI   C4B  784   6.830   3.470   7.757 -0.2533  0.1774  0.0523
   50loPI    C1  785   5.033   1.742  10.222  0.1111  0.0016 -0.0527
   50loPI    C2  786   4.834   1.790  10.566  0.1460 -0.1819 -0.0058
   50loPI    C3  787   5.071   2.081  10.429  0.5564 -0.3117  0.4033
   50loPI   PO4  788   5.120   1.546  10.192  0.1557 -0.1827  0.0308
   50loPI   GL1  789   5.062   1.291   9.941 -0.1682  0.2305  0.1294
   50loPI   GL2  790   4.782   1.081   9.935 -0.1284 -0.0870 -0.0106
   50loPI   C1A  791   5.286   1.305   9.495  0.0552 -0.1653 -0.1903
   50loPI   C2A  792   5.485   1.254   9.082  0.1421  0.3780 -0.3306
   50loPI   C3A  793   5.504   1.153   8.683  0.0883  0.0529 -0.2350
   50loPI   C4A  794   5.584   0.912   8.275  0.0099 -0.4883 -0.1831
   50loPI   C5A  795   5.401   1.046   7.893  0.3639 -0.1567 -0.2658
   50loPI   C6A  796   5.048   1.250   7.730  0.0578  0.0050  0.1787
   50loPI   C1B  797   4.831   1.184   9.540  0.0571 -0.0260 -0.0724
   50loPI   C2B  798   4.978   1.161   8.997  0.2160 -0.1854  0.3149
   50loPI   C3B  799   4.953   1.241   8.584  0.0307  0.1277 -0.1474
   50loPI   C4B  800   4.982   1.115   8.215 -0.2439  0.0557  0.0960
   51loPI    C1  801   4.834   5.188  10.097  0.0224 -0.2314 -0.3631
   51loPI    C2  802   5.071   4.965  10.329 -0.2894 -0.0720  0.1229
   51loPI    C3  803   5.230   5.245  10.092  0.0295 -0.1727  0.2128
   51loPI   PO4  804   4.718   5.009   9.945  0.0899  0.2834  0.1135
   51loPI   GL1  805   4.617   5.124   9.516  0.0449 -0.0570 -0.2656
   51loPI   GL2  806   4.787   5.220   9.327  0.0456 -0.2060  0.2005
   51loPI   C1A  807   4.238   5.068   9.240 -0.2952  0.0449 -0.0741
   51loPI   C2A  808   4.054   5.062   8.862  0.1903 -0.1675 -0.1329
   51loPI   C3A  809   3.963   5.418   8.491 -0.3571 -0.0488  0.0006
   51loPI   C4A  810   3.753   5.470   8.141  0.1116 -0.1278 -0.0712
   51loPI   C5A  811   3.654   5.593   7.689 -0.0489  0.2485 -0.0240
   51loPI   C6A  812   3.579   5.846   7.433  0.1395 -0.0800  0.2927
   51loPI   C1B  813   4.810   5.366   8.997 -0.1202  0.0646  0.0726
   51loPI   C2B  814   4.461   5.352   8.671 -0.0226 -0.2129 -0.0880
   51loPI   C3B  815   4.300   5.068   8.410 -0.1661  0.0445 -0.1906
   51loPI   C4B  816   4.405   4.945   7.993  0.1992 -0.2200  0.0363
   52loPI    C1  817   1.951   7.573  10.721  0.0430  0.2355  0.0427
   52loPI    C2  818   1.765   7.830  10.964 -0.0659  0.1258  0.0765
   52loPI    C3  819   2.160   7.777  10.994 -0.0460  0.2744  0.0822
   52loPI   PO4  820   1.876   7.670  10.492  0.0614  0.2672 -0.1681
   52loPI   GL1  821   2.022   7.945  10.188  0.0841  0.0706 -0.2032
   52loPI   GL2  822   1.779   8.017  10.116 -0.0298  0.0134 -0.1946
   52loPI   C1A  823   1.805   8.287   9.736 -0.1879  0.0167 -0.2146
   52loPI   C2A  824   1.528   8.504   9.482  0.0255 -0.1321  0.3255
   52loPI   C3A  825   1.141   8.471   9.338  0.0237  0.0847 -0.0380
   52loPI   C4A  826   0.802   8.489   9.070 -0.2267  0.1929 -0.0447
   52loPI   C5A  827   0.471   8.278   8.825  0.1356  0.1431  0.0192
   52loPI   C6A  828   0.008   8.207   8.704  0.2006  0.0521  0.2677
   52loPI   C1B  829   1.414   8.097   9.904 -0.0968 -0.1679  0.2675
   52loPI   C2B  830   1.191   7.977   9.495 -0.1597 -0.2286  0.2663
   52loPI   C3B  831   1.249   8.031   9.061 -0.0704 -0.0114  0.1242
   52loPI   C4B  832   1.467   8.053   8.735 -0.4691 -0.0191 -0.1002
   53loPI    C1  833   1.524   3.267  10.342  0.1256 -0.0781 -0.2743
   53loPI    C2  834   1.831   3.021  10.414  0.1691  0.0625  0.0387
   53loPI    C3  835   1.899   3.394  10.286  0.1254  0.0687  0.0336
   53loPI   PO4  836   1.334   3.236  10.172 -0.3193  0.0865  0.0698
   53loPI   GL1  837   1.348   3.244   9.781  0.3129 -0.0871 -0.1095
   53loPI   GL2  838   1.657   3.450   9.857 -0.0974 -0.1538 -0.1156
   53loPI   C1A  839   1.296   3.388   9.384  0.0287  0.1286 -0.0803
   53loPI   C2A  840   1.620   3.286   9.037 -0.0457  0.0766 -0.0061
   53loPI   C3A  841   1.655   3.472   8.635 -0.0228 -0.3741  0.4524
   53loPI   C4A  842   1.958   3.544   8.284 -0.0470 -0.0121  0.1376
   53loPI   C5A  843   2.098   3.253   7.874 -0.1715  0.1991  0.0485
   53loPI   C6A  844   2.346   3.314   7.585  0.0490 -0.0227 -0.1612
   53loPI   C1B  845   1.828   3.742   9.558  0.0804 -0.0554 -0.3237
   53loPI   C2B  846   1.815   3.763   9.127 -0.0992  0.0077  0.2238
   53loPI   C3B  847   1.821   3.936   8.705  0.1393 -0.3610 -0.0714
   53loPI   C4B  848   1.988   4.039   8.241 -0.2282  0.2269  0.2104
   54loPI    C1  849  13.734   7.521  10.231 -0.2560  0.0668 -0.1086
   54loPI    C2  850  13.778   7.152  10.379 -0.0564  0.1315 -0.0021
   54loPI    C3  851  13.425   7.267  10.230 -0.0994 -0.1265 -0.1054
   54loPI   PO4  852  14.066   7.564  10.075  0.0293 -0.4513 -0.1097
   54loPI   GL1  853  14.247   7.563   9.701  0.0485 -0.0877 -0.2882
   54loPI   GL2  854  14.467   7.451   9.678  0.0263  0.2737  0.0562
   54loPI   C1A  855  14.359   7.799   9.360 -0.0569 -0.4106 -0.1124
   54loPI   C2A  856  14.437   7.891   8.982 -0.0058 -0.0460  0.0155
   54loPI   C3A  857  14.480   7.855   8.619 -0.0843  0.0340  0.1496
   54loPI   C4A  858  14.459   7.573   8.237 -0.0084 -0.1961  0.0920
   54loPI   C5A  859  14.031   7.566   7.953  0.0438  0.4114  0.3695
   54loPI   C6A  860  13.654   7.327   7.743  0.0394  0.0977 -0.0685
   54loPI   C1B  861  14.487   7.279   9.332  0.0507  0.1589  0.3791
   54loPI   C2B  862  14.498   7.436   8.921 -0.0025 -0.0719 -0.3961
   54loPI   C3B  863  14.722   7.309   8.558 -0.1387  0.1886 -0.1475
   54loPI   C4B  864  14.866   7.259   8.122 -0.4009 -0.3875  0.0992
   55loPI    C1  865  12.863   8.469  10.381 -0.1351 -0.2146  0.1331
   55loPI    C2  866  13.225   8.537  10.536 -0.0566 -0.0391 -0.1212
   55loPI    C3  867  12.902   8.549  10.771  0.0556  0.2648  0.0225
   55loPI   PO4  868  12.895   8.678  10.176  0.1304  0.1009  0.0704
   55loPI   GL1  869  12.922   8.959   9.849  0.1745  0.2510  0.1031
   55loPI   GL2  870  13.072   8.853   9.646  0.1309 -0.0445 -0.1148
   55loPI   C1A  871  12.566   8.992   9.507 -0.2399  0.0410 -0.1297
   55loPI   C2A  872  12.369   8.841   9.162 -0.1502 -0.1965  0.0628
   55loPI   C3A  873  12.510   8.682   8.786 -0.2927  0.1854  0.0000
   55loPI   C4A  874  12.617   8.596   8.299  0.0513  0.2626 -0.2604
   55loPI   C5A  875  12.614   8.671   7.855  0.0171 -0.3469  0.1549
   55loPI   C6A  876  12.593   9.119   7.638 -0.1307  0.0035 -0.1155
   55loPI   C1B  877  12.938   8.917   9.207  0.1324  0.3853  0.0854
   55loPI   C2B  878  12.952   8.889   8.788  0.1477  0.1417 -0.1072
   55loPI   C3B  879  13.045   8.984   8.310  0.3163  0.0482 -0.1009
   55loPI   C4B  880  12.951   9.097   8.005 -0.0101 -0.1285  0.2354
   56loPI    C1  881  17.584  15.222  10.179 -0.0987 -0.1334  0.0912
   56loPI    C2  882  17.483  15.580  10.327  0.0571 -0.0255 -0.0596
   56loPI    C3  883  17.205  15.295  10.286 -0.0226 -0.0004  0.2755
   56loPI   PO4  884  17.740  15.179   9.982 -0.0739  0.1602 -0.0889
   56loPI   GL1  885  17.992  15.396   9.600  0.2384 -0.1099  0.0077
   56loPI   GL2  886  17.704  15.396   9.446 -0.2197  0.3936 -0.2594
   56loPI   C1A  887  18.259  15.261   9.242 -0.0611 -0.2015 -0.1342
   56loPI   C2A  888  18.310  15.122   8.765 -0.2041 -0.0540  0.3562
   56loPI   C3A  889  18.109  15.198   8.336  0.1020 -0.4717  0.0246
   56loPI   C4A  890  17.656  15.264   8.202  0.0226 -0.1202 -0.0130
   56loPI   C5A  891  17.421  15.519   7.947  0.0354  0.4060  0.0806
   56loPI   C6A  892  17.509  15.732   7.614 -0.0186 -0.0454 -0.2012
   56loPI   C1B  893  17.810  15.018   9.174  0.2475  0.0413 -0.0609
   56loPI   C2B  894  17.990  14.785   8.898  0.1171  0.0824 -0.1485
   56loPI   C3B  895  17.744  14.779   8.335 -0.2231  0.0331 -0.3342
   56loPI   C4B  896  17.615  14.736   7.983 -0.0522 -0.1091 -0.0513
   57loPI    C1  897  13.953   3.247  10.322 -0.0474 -0.0026  0.0731
   57loPI    C2  898  13.924   2.901  10.523 -0.2329 -0.0381 -0.0127
   57loPI    C3  899  13.765   3.235  10.675 -0.2585 -0.0383 -0.0391
   57loPI   PO4  900  13.952   3.165  10.054 -0.1470  0.0054 -0.0367
   57loPI   GL1  901  13.922   3.412   9.666 -0.0783 -0.1979 -0.3287
   57loPI   GL2  902  13.912   3.702   9.580 -0.1614  0.0185  0.1622
   57loPI   C1A  903  13.776   3.432   9.180  0.2473 -0.0734 -0.2012
   57loPI   C2A  904  13.731   3.616   8.809  0.0566  0.0128 -0.4039
   57loPI   C3A  905  13.645   3.728   8.394  0.1384 -0.0361  0.0984
   57loPI   C4A  906  13.723   4.125   8.196 -0.3670 -0.4571  0.2688
   57loPI   C5A  907  14.157   4.259   7.909  0.0218 -0.0507 -0.0629
   57loPI   C6A  908  14.463   4.594   7.953 -0.4672  0.0800  0.0138
   57loPI   C1B  909  13.826   3.986   9.273  0.2332  0.1181 -0.1352
   57loPI   C2B  910  14.008   4.049   8.823  0.2748 -0.1737  0.2485
   57loPI   C3B  911  14.107   4.344   8.432 -0.2599 -0.2797 -0.3399
   57loPI   C4B  912  14.082   4.778   8.248  0.0814 -0.0951 -0.1558
   58loPI    C1  913  14.639   5.584  10.364  0.2240 -0.0772 -0.1820
   58loPI    C2  914  15.032   5.572  10.438  0.1502  0.0318  0.2549
   58loPI    C3  915  14.786   5.316  10.621  0.0192 -0.0684 -0.0536
   58loPI   PO4  916  14.646   5.558  10.093 -0.1016 -0.0777  0.0342
   58loPI   GL1  917  14.929   5.390   9.676  0.2325 -0.3075  0.1177
   58loPI   GL2  918  15.067   5.641   9.808 -0.1454  0.0324  0.3969
   58loPI   C1A  919  14.865   5.440   9.297 -0.0387 -0.2710  0.2131
   58loPI   C2A  920  15.098   5.508   8.948  0.0274  0.3053  0.1480
   58loPI   C3A  921  14.972   5.589   8.447 -0.2091 -0.1302  0.0124
   58loPI   C4A  922  15.031   5.753   8.083  0.1944 -0.0292 -0.1168
   58loPI   C5A  923  15.007   6.109   7.777 -0.0545  0.0475  0.0240
   58loPI   C6A  924  14.809   6.419   7.609  0.1531  0.2548 -0.0392
   58loPI   C1B  925  15.296   5.804   9.346  0.0732  0.1768  0.0182
   58loPI   C2B  926  15.543   6.066   9.028  0.2804  0.1814 -0.0622
   58loPI   C3B  927  15.650   6.233   8.670  0.0093 -0.0901  0.0862
   58loPI   C4B  928  15.455   6.662   8.517 -0.0983 -0.0494  0.1857
   59loPI    C1  929   0.578   4.355  10.095  0.0736  0.0480 -0.1953
   59loPI    C2  930   0.903   4.468   9.891  0.3524 -0.0093  0.2074
   59loPI    C3  931   0.904   4.475  10.291 -0.1752  0.0720  0.2149
   59loPI   PO4  932   0.419   4.484  10.017 -0.3181  0.0389  0.0635
   59loPI   GL1  933   0.394   4.579   9.645  0.1260  0.0410  0.0037
   59loPI   GL2  934   0.073   4.708   9.754 -0.1001  0.2979 -0.0822
   59loPI   C1A  935   0.617   4.757   9.311  0.0365 -0.1813 -0.0757
   59loPI   C2A  936   0.349   4.805   8.939 -0.1232  0.2541  0.0043
   59loPI   C3A  937   0.173   5.053   8.564 -0.1247  0.0957  0.1196
   59loPI   C4A  938  -0.095   5.121   8.227 -0.0069  0.3714 -0.1564
   59loPI   C5A  939  -0.456   5.151   8.055  0.3631  0.2504  0.1346
   59loPI   C6A  940  -0.818   4.867   8.001 -0.0758  0.1197  0.3503
   59loPI   C1B  941   0.097   4.819   9.338  0.1215 -0.2751 -0.2556
   59loPI   C2B  942  -0.143   4.995   8.984 -0.1006  0.1704  0.1621
   59loPI   C3B  943  -0.223   4.713   8.651  0.1820  0.1121  0.2326
   59loPI   C4B  944  -0.370   4.644   8.146 -0.1191  0.0773 -0.1012
   60loPI    C1  945   5.974  10.955  10.531  0.0761 -0.0077 -0.0717
   60loPI    C2  946   5.900  11.151  10.872  0.2038  0.1189 -0.1160
   60loPI    C3  947   6.268  11.014  10.796  0.1372 -0.0562 -0.1283
   60loPI   PO4  948   5.932  11.051  10.386  0.1888  0.4783 -0.0563
   60loPI   GL1  949   5.909  10.969   9.979 -0.1672 -0.0804 -0.0289
   60loPI   GL2  950   5.995  10.696   9.790  0.0297  0.3438  0.1550
   60loPI   C1A  951   6.081  11.137   9.567  0.2768  0.0457  0.2895
   60loPI   C2A  952   6.129  11.138   9.077 -0.3892  0.2589 -0.1815
   60loPI   C3A  953   6.235  10.820   8.780 -0.1510 -0.3907  0.0042
   60loPI   C4A  954   6.274  10.591   8.387 -0.1146  0.1215  0.1208
   60loPI   C5A  955   6.339  10.700   8.002 -0.1393 -0.2196  0.0198
   60loPI   C6A  956   6.665  10.748   7.818  0.1025 -0.2842  0.1826
   60loPI   C1B  957   6.186  10.675   9.393  0.1107 -0.1430  0.0062
   60loPI   C2B  958   6.138  10.312   9.006 -0.0742  0.0777  0.0521
   60loPI   C3B  959   6.068  10.160   8.511  0.1514  0.0485  0.2163
   60loPI   C4B  960   6.174   9.773   8.286 -0.3070 -0.1964 -0.0705
   61loPI    C1  961  14.830  17.377  10.660  0.1599  0.0289  0.1329
   61loPI    C2  962  14.963  17.177  10.340  0.0262  0.0798  0.0443
   61loPI    C3  963  15.154  17.143  10.690  0.0618 -0.1261  0.0068
   61loPI   PO4  964  14.723  17.563  10.562  0.5286  0.1427  0.1410
   61loPI   GL1  965  14.722  17.562  10.068  0.0531 -0.0763  0.0106
   61loPI   GL2  966  15.030  17.788  10.028  0.0540 -0.0436 -0.2010
   61loPI   C1A  967  14.793  17.535   9.642 -0.4587 -0.2264  0.1325
   61loPI   C2A  968  15.138  17.301   9.345  0.0583 -0.4256 -0.1136
   61loPI   C3A  969  15.237  17.051   8.954 -0.0659  0.2958 -0.1809
   61loPI   C4A  970  15.444  16.927   8.622  0.1111 -0.1787  0.2404
   61loPI   C5A  971  15.549  17.043   8.259 -0.0430 -0.2193  0.1616
   61loPI   C6A  972  15.583  16.774   7.944 -0.0733 -0.1269  0.5495
   61loPI   C1B  973  15.312  17.674   9.667  0.0223  0.1850  0.0684
   61loPI   C2B  974  15.421  17.806   9.283 -0.1235 -0.2283  0.0124
   61loPI   C3B  975  15.411  17.905   8.796 -0.2586 -0.0203  0.1202
   61loPI   C4B  976  15.305  17.879   8.348  0.0434  0.2147  0.1245
   62loPI    C1  977  16.709  13.639  10.069 -0.1085 -0.0905 -0.0490
   62loPI    C2  978  16.390  13.539  10.289 -0.0583  0.1406  0.1324
   62loPI    C3  979  16.672  13.267  10.211 -0.1509  0.0163  0.2268
   62loPI   PO4  980  16.599  13.743   9.913 -0.3844 -0.3521 -0.1277
   62loPI   GL1  981  16.652  13.967   9.606 -0.0559 -0.1718 -0.1325
   62loPI   GL2  982  16.832  14.311   9.338  0.2424  0.1760 -0.1595
   62loPI   C1A  983  16.742  13.715   9.165  0.2090 -0.0705  0.2206
   62loPI   C2A  984  16.968  13.740   8.878 -0.1650  0.2228 -0.3319
   62loPI   C3A  985  17.255  13.664   8.490 -0.3225 -0.0633  0.0072
   62loPI   C4A  986  17.279  13.644   8.076  0.0651  0.1522 -0.2847
   62loPI   C5A  987  17.311  13.776   7.642 -0.1955 -0.0274  0.0018
   62loPI   C6A  988  17.496  13.830   7.257 -0.0109  0.0597 -0.1655
   62loPI   C1B  989  17.126  14.203   8.995 -0.0382 -0.0332  0.3147
   62loPI   C2B  990  17.267  14.111   8.662  0.1130 -0.1950  0.2086
   62loPI   C3B  991  17.447  14.134   8.246 -0.0017 -0.0829  0.0720
   62loPI   C4B  992  17.447  14.245   7.835  0.2688 -0.4391  0.1450
   63loPI    C1  993  12.150   7.861  10.386 -0.1990 -0.0074  0.0944
   63loPI    C2  994  12.425   8.129  10.498 -0.0296 -0.1859  0.1105
   63loPI    C3  995  12.402   7.776  10.684 -0.0919 -0.2784 -0.0697
   63loPI   PO4  996  12.178   7.815  10.119  0.3565  0.1153  0.1453
   63loPI   GL1  997  12.314   7.935   9.753  0.0429  0.0476 -0.0351
   63loPI   GL2  998  12.498   7.735   9.501 -0.1388  0.0330  0.2365
   63loPI   C1A  999  12.134   8.031   9.374 -0.2268 -0.0979  0.4494
   63loPI   C2A 1000  11.996   7.870   9.012  0.0127 -0.1455  0.1912
   63loPI   C3A 1001  11.869   8.025   8.694 -0.2722 -0.1267 -0.3256
   63loPI   C4A 1002  11.722   8.159   8.288 -0.0665  0.0866 -0.1229
   63loPI   C5A 1003  11.887   8.510   7.962 -0.0451 -0.1254 -0.2971
   63loPI   C6A 1004  12.125   8.896   7.701  0.0380 -0.2239 -0.0626
   63loPI   C1B 1005  12.520   7.705   9.013  0.0125 -0.3386  0.0829
   63loPI   C2B 1006  12.499   7.687   8.571  0.0852 -0.1460 -0.0068
   63loPI   C3B 1007  12.433   7.758   8.122  0.1083  0.2144 -0.0011
   63loPI   C4B 1008  12.370   7.840   7.687  0.4013  0.1483  0.1017
   64loPI    C1 1009   4.420   6.510  10.229 -0.0520 -0.0947  0.0828
   64loPI    C2 1010   4.567   6.802  10.460 -0.2296  0.1330 -0.0870
   64loPI    C3 1011   4.199   6.660  10.527 -0.0763 -0.1836  0.1100
   64loPI   PO4 1012   4.732   6.510  10.057 -0.0934  0.1089 -0.0996
   64loPI   GL1 1013   4.915   6.587   9.694  0.0313 -0.0730  0.2021
   64loPI   GL2 1014   5.294   6.479   9.640  0.2323 -0.0687 -0.1130
   64loPI   C1A 1015   4.683   6.764   9.333 -0.0077 -0.1739  0.1890
   64loPI   C2A 1016   4.639   6.577   8.920 -0.2774 -0.1871  0.1739
   64loPI   C3A 1017   4.618   6.421   8.475 -0.1100 -0.1100  0.0736
   64loPI   C4A 1018   4.555   6.128   8.134 -0.1327  0.1601 -0.1126
   64loPI   C5A 1019   4.370   5.940   7.737  0.0881 -0.1165  0.0027
   64loPI   C6A 1020   4.131   6.133   7.435  0.0489 -0.5961 -0.3771
   64loPI   C1B 1021   5.510   6.378   9.296 -0.0758 -0.1416 -0.2678
   64loPI   C2B 1022   5.508   6.390   8.991  0.1681  0.0376 -0.0011
   64loPI   C3B 1023   5.540   6.286   8.542  0.2009  0.0604  0.1194
   64loPI   C4B 1024   5.477   6.094   8.099 -0.0507  0.0497 -0.0951
   65loPI    C1 1025  14.629   1.734  10.401 -0.0013 -0.1359  0.0470
   65loPI    C2 1026  14.725   1.395  10.591 -0.1917 -0.2630 -0.0797
   65loPI    C3 1027  14.377   1.577  10.670 -0.0692 -0.0698  0.0223
   65loPI   PO4 1028  14.763   1.717  10.121 -0.2518  0.1924 -0.2908
   65loPI   GL1 1029  15.138   1.959   9.945 -0.2992 -0.0707  0.0044
   65loPI   GL2 1030  15.184   1.594   9.871 -0.0491  0.1545 -0.1515
   65loPI   C1A 1031  15.050   1.977   9.456  0.1774  0.0371 -0.1461
   65loPI   C2A 1032  15.139   1.988   9.009  0.1930 -0.0130  0.0059
   65loPI   C3A 1033  15.183   2.157   8.603 -0.0264  0.0051  0.0537
   65loPI   C4A 1034  15.467   2.094   8.256 -0.0319 -0.1515 -0.0384
   65loPI   C5A 1035  15.440   2.346   7.854  0.1323 -0.3501 -0.0161
   65loPI   C6A 1036  15.567   2.720   7.877  0.1526 -0.0481  0.1666
   65loPI   C1B 1037  15.472   1.671   9.393  0.2538 -0.1158  0.3252
   65loPI   C2B 1038  15.506   1.661   9.022  0.5150 -0.0605 -0.0783
   65loPI   C3B 1039  15.584   1.719   8.621 -0.2202 -0.0083 -0.2103
   65loPI   C4B 1040  15.400   1.323   8.387  0.0689 -0.2682 -0.1859
   66loPI    C1 1041  16.648  16.589  10.214  0.1483 -0.0122  0.0554
   66loPI    C2 1042  16.408  16.378  10.455  0.0806 -0.0694 -0.0615
   66loPI    C3 1043  16.797  16.286  10.429  0.0807 -0.0859 -0.0008
   66loPI   PO4 1044  16.607  16.557   9.964  0.0831 -0.0378  0.1697
   66loPI   GL1 1045  16.534  16.758   9.632 -0.1162  0.4438 -0.0064
   66loPI   GL2 1046  16.553  17.166   9.509 -0.0743 -0.3024  0.0593
   66loPI   C1A 1047  16.580  16.729   9.257  0.1443 -0.2489 -0.4689
   66loPI   C2A 1048  16.357  16.912   8.896 -0.0698 -0.0497 -0.0787
   66loPI   C3A 1049  16.492  17.133   8.502 -0.1897  0.1175  0.0972
   66loPI   C4A 1050  16.552  17.348   8.065  0.3167 -0.0376 -0.0164
   66loPI   C5A 1051  16.642  17.800   8.008 -0.1367  0.1972 -0.1089
   66loPI   C6A 1052  16.564  18.030   7.648 -0.0207 -0.1261 -0.3561
   66loPI   C1B 1053  16.850  17.151   9.116  0.0215 -0.2551  0.2339
   66loPI   C2B 1054  16.982  17.071   8.710  0.1910  0.1626 -0.1472
   66loPI   C3B 1055  17.097  17.130   8.311  0.3168 -0.3076 -0.3991
   66loPI   C4B 1056  17.178  17.189   8.017 -0.0469 -0.0227 -0.1508
   67loPI    C1 1057  17.300   8.596  10.410  0.2258  0.0145  0.0753
   67loPI    C2 1058  17.482   8.899  10.222 -0.0784  0.2004  0.0742
   67loPI    C3 1059  17.376   8.936  10.606 -0.1013  0.0889  0.0791
   67loPI   PO4 1060  17.249   8.450  10.184  0.0762 -0.0854  0.2022
   67loPI   GL1 1061  17.427   8.551   9.820  0.0501  0.1331 -0.0673
   67loPI   GL2 1062  17.121   8.769   9.755 -0.1065 -0.0763  0.3892
   67loPI   C1A 1063  17.477   8.612   9.390 -0.1677  0.1706  0.1108
   67loPI   C2A 1064  17.313   8.742   9.017 -0.0850 -0.1106  0.1660
   67loPI   C3A 1065  17.200   8.845   8.542  0.1213 -0.1933 -0.0745
   67loPI   C4A 1066  17.040   8.974   8.150  0.0727  0.1269 -0.1418
   67loPI   C5A 1067  17.058   9.339   7.992 -0.2701  0.0166  0.0031
   67loPI   C6A 1068  17.082   9.570   7.573 -0.0343 -0.0534 -0.3181
   67loPI   C1B 1069  16.981   8.548   9.355 -0.1884  0.0865 -0.4003
   67loPI   C2B 1070  16.912   8.263   9.014 -0.0516  0.0512 -0.3132
   67loPI   C3B 1071  17.180   8.301   8.771 -0.1825 -0.2459 -0.0007
   67loPI   C4B 1072  17.334   8.421   8.282 -0.0468  0.2517 -0.0847
   68loPI    C1 1073  17.303   1.553  11.076 -0.0551  0.1984  0.1176
   68loPI    C2 1074  17.577   1.345  10.872 -0.2492  0.1529 -0.1013
   68loPI    C3 1075  17.686   1.667  11.083  0.0106 -0.0118  0.0208
   68loPI   PO4 1076  17.083   1.548  10.732  0.1620  0.1272  0.0902
   68loPI   GL1 1077  17.081   1.702  10.323 -0.2391  0.0427  0.0154
   68loPI   GL2 1078  17.013   1.475  10.167  0.0097  0.2726  0.3046
   68loPI   C1A 1079  16.976   1.926   9.919 -0.0251  0.1844  0.0849
   68loPI   C2A 1080  17.039   1.833   9.409  0.0960 -0.0400  0.3284
   68loPI   C3A 1081  17.100   1.704   8.932 -0.1047  0.0258  0.1782
   68loPI   C4A 1082  17.165   1.653   8.511  0.3459 -0.1710  0.0965
   68loPI   C5A 1083  17.180   1.676   8.138  0.0401  0.0907 -0.1987
   68loPI   C6A 1084  17.468   1.774   7.810 -0.2645 -0.0419  0.1452
   68loPI   C1B 1085  16.851   1.437   9.808  0.0781  0.0442 -0.3127
   68loPI   C2B 1086  16.770   1.347   9.298  0.2993  0.0563  0.0043
   68loPI   C3B 1087  16.864   1.261   8.937 -0.3920 -0.2130  0.3024
   68loPI   C4B 1088  16.859   1.235   8.480  0.2536  0.0199  0.0431
   69loPI    C1 1089   1.642   6.313  10.564 -0.1104 -0.0616  0.2102
   69loPI    C2 1090   1.950   6.499  10.738 -0.2761  0.1778  0.2530
   69loPI    C3 1091   1.929   6.099  10.742  0.2523  0.1351 -0.1231
   69loPI   PO4 1092   1.644   6.380  10.307 -0.2066  0.1430  0.3253
   69loPI   GL1 1093   1.576   6.161   9.894  0.0666 -0.0284  0.1968
   69loPI   GL2 1094   1.837   6.368   9.818  0.1144  0.0628 -0.2080
   69loPI   C1A 1095   1.546   6.130   9.459  0.2826 -0.0525  0.1059
   69loPI   C2A 1096   1.616   6.083   9.026  0.0800  0.2630  0.2241
   69loPI   C3A 1097   1.627   6.335   8.588  0.1502 -0.1588 -0.2135
   69loPI   C4A 1098   1.596   6.658   8.335  0.2259 -0.0571 -0.2138
   69loPI   C5A 1099   1.285   6.794   8.043 -0.1507  0.1769 -0.0544
   69loPI   C6A 1100   0.888   6.710   8.303 -0.0407  0.5467 -0.1524
   69loPI   C1B 1101   2.015   6.346   9.510 -0.1229  0.2221  0.1321
   69loPI   C2B 1102   2.042   6.212   9.209 -0.1694  0.0618 -0.3058
   69loPI   C3B 1103   2.048   6.156   8.761 -0.1474  0.1587 -0.0664
   69loPI   C4B 1104   2.097   6.246   8.407 -0.2014  0.1575  0.1020
   70loPI    C1 1105  10.452   8.299  10.275  0.1089  0.1932 -0.0780
   70loPI    C2 1106  10.157   8.554  10.187  0.0964  0.1541 -0.1499
   70loPI    C3 1107  10.281   8.515  10.565  0.1524  0.3252 -0.1501
   70loPI   PO4 1108  10.541   8.248  10.056  0.2366 -0.0078  0.0087
   70loPI   GL1 1109  10.622   8.229   9.695 -0.0448  0.2966  0.0192
   70loPI   GL2 1110  10.869   8.308   9.587  0.1023 -0.0757  0.4693
   70loPI   C1A 1111  10.310   8.303   9.420 -0.2781  0.0643  0.1237
   70loPI   C2A 1112  10.455   8.345   9.025 -0.1738 -0.2315 -0.1036
   70loPI   C3A 1113  10.388   8.637   8.605  0.4272 -0.1774  0.0403
   70loPI   C4A 1114  10.619   8.828   8.165  0.1447 -0.3042  0.1422
   70loPI   C5A 1115  11.047   8.969   7.969 -0.1340  0.2432 -0.2817
   70loPI   C6A 1116  11.290   9.127   7.676 -0.3410 -0.2805  0.0707
   70loPI   C1B 1117  11.146   8.492   9.197  0.0792  0.0048 -0.0262
   70loPI   C2B 1118  11.421   8.693   8.955 -0.0983 -0.0675 -0.0231
   70loPI   C3B 1119  11.347   8.798   8.451  0.0739 -0.0662  0.3849
   70loPI   C4B 1120  11.478   8.762   8.056 -0.1638 -0.1404  0.0113
   71loPI    C1 1121   5.385   1.654  10.574 -0.0605 -0.0085  0.0297
   71loPI    C2 1122   5.101   1.400  10.693 -0.0188 -0.0083  0.1307
   71loPI    C3 1123   5.297   1.620  10.963 -0.2526  0.3431  0.0211
   71loPI   PO4 1124   5.592   1.441  10.426 -0.3550 -0.2758  0.0298
   71loPI   GL1 1125   5.776   1.390  10.039 -0.0363  0.1265 -0.0787
   71loPI   GL2 1126   5.526   1.533   9.924  0.0961  0.1355 -0.2016
   71loPI   C1A 1127   5.866   1.409   9.590 -0.0547  0.0902  0.3716
   71loPI   C2A 1128   6.109   1.155   9.347  0.1470  0.0550  0.0323
   71loPI   C3A 1129   6.296   0.951   8.999 -0.2394 -0.1035 -0.0906
   71loPI   C4A 1130   6.495   0.820   8.671  0.3217  0.1219  0.2293
   71loPI   C5A 1131   6.498   0.607   8.261 -0.0198  0.0465 -0.1864
   71loPI   C6A 1132   6.553   0.574   7.744  0.0266  0.3473 -0.0148
   71loPI   C1B 1133   5.524   1.055   9.827  0.0766 -0.0443  0.0794
   71loPI   C2B 1134   5.659   0.932   9.445 -0.1189  0.0636 -0.0416
   71loPI   C3B 1135   5.748   0.888   9.036  0.0633  0.1959  0.0100
   71loPI   C4B 1136   5.959   0.982   8.613  0.0069  0.0642  0.3425
   72loPI    C1 1137   1.431   2.604  10.510  0.1948  0.3467 -0.0707
   72loPI    C2 1138   1.246   2.289  10.673  0.1765  0.3039 -0.1736
   72loPI    C3 1139   1.227   2.646  10.852  0.1316  0.2638 -0.0979
   72loPI   PO4 1140   1.332   2.720  10.265  0.1544  0.1587 -0.1837
   72loPI   GL1 1141   1.430   2.576   9.899  0.3198 -0.0981 -0.0236
   72loPI   GL2 1142   1.643   2.875   9.882  0.2766  0.2572 -0.2201
   72loPI   C1A 1143   1.495   2.566   9.485  0.0082  0.3935 -0.1676
   72loPI   C2A 1144   1.469   2.681   9.097 -0.1822 -0.2164 -0.0054
   72loPI   C3A 1145   1.436   2.809   8.730 -0.1937 -0.1917  0.2071
   72loPI   C4A 1146   1.520   3.122   8.344 -0.1330  0.2258  0.0746
   72loPI   C5A 1147   1.585   3.116   7.934 -0.1169 -0.2395 -0.1220
   72loPI   C6A 1148   1.368   3.169   7.604  0.0754 -0.1906 -0.0583
   72loPI   C1B 1149   1.729   3.085   9.503 -0.0893 -0.0991  0.0062
   72loPI   C2B 1150   2.020   3.351   9.298  0.2100 -0.0766 -0.1130
   72loPI   C3B 1151   2.373   3.308   9.010 -0.0123  0.0543  0.0945
   72loPI   C4B 1152   2.382   2.952   8.771 -0.2003  0.1371 -0.1488
   73loPI    C1 1153   2.578   8.978  10.728  0.1686 -0.0001 -0.0096
   73loPI    C2 1154   2.304   9.192  10.926  0.1922 -0.0043  0.0273
   73loPI    C3 1155   2.646   9.087  11.107  0.1840 -0.0667  0.0070
   73loPI   PO4 1156   2.378   8.888  10.496 -0.0633 -0.1054 -0.4505
   73loPI   GL1 1157   2.108   8.905  10.058 -0.0004  0.0834 -0.1997
   73loPI   GL2 1158   2.058   9.275   9.847 -0.1691 -0.1015 -0.1872
   73loPI   C1A 1159   1.757   8.884   9.686 -0.3058 -0.2354  0.1903
   73loPI   C2A 1160   1.627   8.843   9.109 -0.1549  0.1228 -0.4455
   73loPI   C3A 1161   1.718   8.728   8.751  0.0534 -0.0780  0.0596
   73loPI   C4A 1162   1.990   8.714   8.427 -0.2012 -0.0317  0.0579
   73loPI   C5A 1163   2.296   8.520   8.280 -0.2527 -0.1277  0.4565
   73loPI   C6A 1164   2.233   8.104   8.241  0.1234 -0.0029 -0.0446
   73loPI   C1B 1165   2.062   9.209   9.358  0.1350  0.0523  0.0826
   73loPI   C2B 1166   2.068   9.096   8.924 -0.0971 -0.1694  0.1269
   73loPI   C3B 1167   1.910   9.193   8.495  0.0024 -0.1438 -0.0815
   73loPI   C4B 1168   1.664   9.035   8.088 -0.1887 -0.1448 -0.1789
   74loPI    C1 1169   9.634  15.704  10.650 -0.0056 -0.2048  0.0162
   74loPI    C2 1170   9.967  15.922  10.693 -0.0779 -0.0804 -0.0494
   74loPI    C3 1171   9.622  16.051  10.848 -0.0997 -0.2006  0.0035
   74loPI   PO4 1172   9.698  15.623  10.317 -0.0085  0.1979  0.0976
   74loPI   GL1 1173   9.790  15.476   9.846  0.3332 -0.0587  0.0919
   74loPI   GL2 1174  10.136  15.451  10.013  0.0838 -0.2205  0.0135
   74loPI   C1A 1175   9.933  15.345   9.467  0.0578  0.1038  0.0116
   74loPI   C2A 1176  10.156  15.110   9.224 -0.1589  0.0976  0.2857
   74loPI   C3A 1177  10.457  15.261   8.899 -0.2831 -0.3604 -0.2628
   74loPI   C4A 1178  10.732  15.401   8.647 -0.2140 -0.0401 -0.1303
   74loPI   C5A 1179  11.093  15.580   8.352  0.1890  0.0830  0.1473
   74loPI   C6A 1180  11.062  15.449   7.930  0.0163 -0.2092 -0.0647
   74loPI   C1B 1181  10.296  15.092   9.736  0.0977  0.1588 -0.0106
   74loPI   C2B 1182  10.497  14.817   9.439  0.0977 -0.3391 -0.2127
   74loPI   C3B 1183  10.647  14.361   9.205 -0.2152  0.0776  0.2846
   74loPI   C4B 1184  10.650  14.355   8.755 -0.1302  0.1650  0.0132
   75loPI    C1 1185   4.217  10.724  10.612  0.0368  0.2229  0.0789
   75loPI    C2 1186   4.472  10.694  10.919 -0.0206 -0.1864  0.0923
   75loPI    C3 1187   4.078  10.659  10.981 -0.0514 -0.0006  0.0084
   75loPI   PO4 1188   4.299  10.583  10.380  0.1537  0.0942  0.3771
   75loPI   GL1 1189   4.576  10.623  10.007  0.0640  0.1671 -0.0128
   75loPI   GL2 1190   4.724  10.291   9.972  0.0023 -0.4556 -0.0462
   75loPI   C1A 1191   4.609  10.926   9.586  0.0602  0.0572  0.4178
   75loPI   C2A 1192   4.766  11.001   9.148 -0.2104  0.3900 -0.2925
   75loPI   C3A 1193   4.936  11.034   8.721  0.1635 -0.1368  0.0767
   75loPI   C4A 1194   4.975  11.079   8.371  0.0651 -0.0180  0.0245
   75loPI   C5A 1195   4.883  11.342   8.081  0.0316 -0.1741 -0.2550
   75loPI   C6A 1196   4.889  11.738   7.785 -0.0787  0.1708  0.3075
   75loPI   C1B 1197   4.774  10.039   9.571 -0.0760 -0.2036  0.1791
   75loPI   C2B 1198   4.582   9.754   9.374 -0.1184 -0.0355  0.0635
   75loPI   C3B 1199   4.463   9.567   8.999  0.0386 -0.1326 -0.0360
   75loPI   C4B 1200   4.248   9.611   8.759  0.1790 -0.2970 -0.0434
   76loPI    C1 1201   4.832  14.480  10.488  0.0520 -0.2087 -0.2567
   76loPI    C2 1202   4.614  14.260  10.234 -0.0934 -0.2331 -0.1125
   76loPI    C3 1203   4.432  14.494  10.503  0.0598 -0.0229 -0.1888
   76loPI   PO4 1204   5.089  14.495  10.347  0.1000 -0.0041  0.0561
   76loPI   GL1 1205   5.138  14.621  10.023  0.1733 -0.0418  0.1337
   76loPI   GL2 1206   4.784  14.684   9.979  0.3004 -0.0326  0.0844
   76loPI   C1A 1207   5.280  14.689   9.687 -0.0778  0.2677  0.1694
   76loPI   C2A 1208   5.346  14.599   9.205  0.0076  0.1071  0.4002
   76loPI   C3A 1209   5.337  14.611   8.844 -0.3133  0.1986  0.1574
   76loPI   C4A 1210   5.381  14.827   8.405 -0.1657  0.0635  0.2652
   76loPI   C5A 1211   5.622  14.582   7.963 -0.0191  0.2057  0.0636
   76loPI   C6A 1212   5.749  14.214   7.706  0.1672  0.4667 -0.1192
   76loPI   C1B 1213   4.876  14.947   9.534 -0.1437  0.1973  0.2006
   76loPI   C2B 1214   4.946  14.963   9.078 -0.2992  0.3073  0.1404
   76loPI   C3B 1215   4.880  14.831   8.711 -0.2181  0.0251  0.2643
   76loPI   C4B 1216   4.849  14.887   8.320 -0.2275 -0.1734 -0.0333
   77loPI    C1 1217   2.203  10.570  10.605 -0.0688  0.2362  0.1488
   77loPI    C2 1218   2.534  10.472  10.402 -0.1376  0.2347  0.0367
   77loPI    C3 1219   2.504  10.383  10.791  0.0244  0.3018  0.0653
   77loPI   PO4 1220   1.997  10.464  10.480  0.0094 -0.0037  0.2652
   77loPI   GL1 1221   2.100  10.495  10.003  0.2593 -0.1490  0.1539
   77loPI   GL2 1222   2.231  10.711   9.852 -0.1255 -0.4740  0.2058
   77loPI   C1A 1223   1.878  10.249   9.687  0.0239 -0.0189  0.1042
   77loPI   C2A 1224   1.822  10.184   9.231  0.4782 -0.0962 -0.0972
   77loPI   C3A 1225   1.665  10.107   8.774 -0.2910 -0.0947  0.1956
   77loPI   C4A 1226   1.759  10.094   8.353  0.0619  0.0909  0.1905
   77loPI   C5A 1227   1.834   9.998   7.949  0.1828 -0.0430 -0.0072
   77loPI   C6A 1228   2.016   9.789   7.587 -0.1771  0.0525 -0.1331
   77loPI   C1B 1229   2.199  10.525   9.440  0.0139 -0.2229  0.1691
   77loPI   C2B 1230   2.136  10.470   9.012  0.1574 -0.3100  0.0482
   77loPI   C3B 1231   2.144  10.574   8.619  0.2203  0.2325 -0.3135
   77loPI   C4B 1232   2.175  10.401   8.207  0.4907 -0.0398  0.0862
   78loPI    C1 1233   1.084   0.336  10.240  0.1712 -0.1313 -0.2307
   78loPI    C2 1234   1.314   0.641  10.357 -0.3728  0.2526 -0.1194
   78loPI    C3 1235   1.232   0.343  10.611  0.0378  0.0817 -0.1794
   78loPI   PO4 1236   1.138   0.270   9.983 -0.1915  0.0879  0.1022
   78loPI   GL1 1237   1.298   0.471   9.559 -0.0364  0.2263  0.0628
   78loPI   GL2 1238   1.419   0.634   9.521 -0.0108 -0.3291  0.0712
   78loPI   C1A 1239   1.002   0.376   9.268  0.2147 -0.0709  0.2222
   78loPI   C2A 1240   0.988   0.445   8.782 -0.1622 -0.2428 -0.2317
   78loPI   C3A 1241   0.902   0.454   8.352  0.0046 -0.0723  0.3511
   78loPI   C4A 1242   0.702   0.534   7.959 -0.0713 -0.3334  0.1028
   78loPI   C5A 1243   0.531   0.703   7.638  0.1592  0.1584 -0.2915
   78loPI   C6A 1244   0.196   0.870   7.732 -0.0648 -0.1280  0.1383
   78loPI   C1B 1245   1.546   0.411   9.161 -0.1698 -0.2784 -0.1350
   78loPI   C2B 1246   1.533   0.493   8.707  0.0866 -0.0639  0.3482
   78loPI   C3B 1247   1.516   0.677   8.249 -0.1328 -0.3867  0.0203
   78loPI   C4B 1248   1.610   0.691   7.831  0.0882  0.1258  0.2233
   79loPI    C1 1249   6.817   3.333   9.863  0.0405  0.0260  0.2562
   79loPI    C2 1250   6.813   3.396  10.258 -0.2147  0.3369  0.2081
   79loPI    C3 1251   7.157   3.307  10.073 -0.1562 -0.2043  0.5540
   79loPI   PO4 1252   6.689   3.211   9.787  0.2378 -0.0780  0.2651
   79loPI   GL1 1253   6.636   2.762   9.698  0.0819  0.2129 -0.0641
   79loPI   GL2 1254   6.896   2.522   9.569  0.0112 -0.1431  0.0621
   79loPI   C1A 1255   6.485   2.574   9.304  0.0691  0.1074  0.1558
   79loPI   C2A 1256   6.494   2.468   8.848 -0.0887  0.1278  0.0392
   79loPI   C3A 1257   6.511   2.465   8.461 -0.0343  0.2792 -0.1134
   79loPI   C4A 1258   6.410   2.615   8.028  0.6089 -0.0064 -0.0496
   79loPI   C5A 1259   6.390   2.478   7.587 -0.2027 -0.0865 -0.0002
   79loPI   C6A 1260   6.352   2.540   7.132 -0.0459 -0.0583  0.0020
   79loPI   C1B 1261   6.928   2.219   9.077  0.0198  0.2281 -0.0586
   79loPI   C2B 1262   6.902   2.227   8.633  0.2139 -0.2347 -0.0796
   79loPI   C3B 1263   6.740   2.128   8.219 -0.3323 -0.0691 -0.1456
   79loPI   C4B 1264   6.741   1.823   7.863  0.1994  0.0080 -0.3190
   80loPI    C1 1265   8.827   1.137  10.362 -0.1438  0.1597 -0.0126
   80loPI    C2 1266   8.699   0.876  10.636 -0.1256  0.1738  0.0094
   80loPI    C3 1267   9.087   0.890  10.539 -0.1740 -0.0286 -0.2259
   80loPI   PO4 1268   8.643   1.286  10.310 -0.2495 -0.1065 -0.0224
   80loPI   GL1 1269   8.507   1.257   9.882  0.0504  0.1241  0.1785
   80loPI   GL2 1270   8.792   1.045   9.774  0.1979 -0.0894 -0.0069
   80loPI   C1A 1271   8.318   1.359   9.513 -0.1284 -0.1232 -0.0062
   80loPI   C2A 1272   8.543   1.534   9.089 -0.1628 -0.3365 -0.1800
   80loPI   C3A 1273   8.810   1.649   8.779  0.0013 -0.3259  0.1430
   80loPI   C4A 1274   9.162   1.902   8.875 -0.2481 -0.1359 -0.1249
   80loPI   C5A 1275   9.470   1.987   8.626 -0.2031  0.5016  0.1070
   80loPI   C6A 1276   9.605   1.885   8.225  0.1677 -0.1887  0.1178
   80loPI   C1B 1277   8.725   1.123   9.392 -0.1656  0.2070  0.1251
   80loPI   C2B 1278   8.620   1.088   8.956 -0.0342 -0.1720 -0.3931
   80loPI   C3B 1279   8.668   1.192   8.681 -0.3256 -0.1563  0.0221
   80loPI   C4B 1280   8.824   1.444   8.305 -0.1012 -0.0280 -0.0859
   81loPI    C1 1281  12.710  16.764  10.232 -0.0042 -0.2080 -0.0948
   81loPI    C2 1282  12.616  16.390  10.125 -0.0498 -0.2119 -0.0419
   81loPI    C3 1283  12.592  16.501  10.509 -0.1784 -0.1131 -0.0778
   81loPI   PO4 1284  12.526  16.919  10.101  0.2797  0.5163  0.0385
   81loPI   GL1 1285  12.479  16.846   9.710  0.0649 -0.0340 -0.1305
   81loPI   GL2 1286  12.145  16.900   9.772 -0.0814 -0.2979  0.2699
   81loPI   C1A 1287  12.484  16.816   9.224 -0.0607 -0.2833  0.2035
   81loPI   C2A 1288  12.574  17.011   8.783  0.1304  0.0629 -0.0009
   81loPI   C3A 1289  12.815  17.001   8.462  0.0013 -0.0236  0.0065
   81loPI   C4A 1290  13.088  17.055   8.136  0.0314 -0.0143  0.0404
   81loPI   C5A 1291  13.392  16.959   7.909  0.0594  0.1403  0.1081
   81loPI   C6A 1292  13.494  16.596   7.669 -0.4645 -0.4192  0.0893
   81loPI   C1B 1293  11.965  17.097   9.310 -0.0840  0.3024 -0.1191
   81loPI   C2B 1294  12.113  17.133   8.961 -0.0296  0.0192  0.0712
   81loPI   C3B 1295  12.179  17.115   8.521  0.1583  0.0120  0.2068
   81loPI   C4B 1296  12.155  17.261   8.161  0.2609  0.2499 -0.0740
   82loPI    C1 1297  16.862  15.293   9.773 -0.0112 -0.0158 -0.0828
   82loPI    C2 1298  17.093  14.982   9.873 -0.0140 -0.1065 -0.3509
   82loPI    C3 1299  17.260  15.332   9.776 -0.0094 -0.0326 -0.0830
   82loPI   PO4 1300  16.772  15.323   9.547  0.1881  0.2133 -0.0538
   82loPI   GL1 1301  16.785  15.263   9.184  0.5418  0.2349 -0.0065
   82loPI   GL2 1302  16.536  15.119   9.087 -0.2401 -0.1866 -0.0689
   82loPI   C1A 1303  16.864  15.086   8.745  0.1002  0.1286 -0.2163
   82loPI   C2A 1304  16.599  15.128   8.383 -0.1666 -0.1336 -0.0635
   82loPI   C3A 1305  16.414  15.235   8.032  0.2907  0.0543  0.0961
   82loPI   C4A 1306  16.185  15.538   7.810 -0.0789  0.0932 -0.1672
   82loPI   C5A 1307  15.896  15.802   7.933  0.1536  0.3255 -0.2021
   82loPI   C6A 1308  15.583  16.067   7.869  0.2483  0.0686 -0.3391
   82loPI   C1B 1309  16.135  14.931   8.873  0.1911  0.1570  0.1098
   82loPI   C2B 1310  16.084  14.854   8.554  0.1712 -0.1835 -0.1021
   82loPI   C3B 1311  16.051  14.826   8.061  0.0158 -0.1984 -0.0865
   82loPI   C4B 1312  16.203  14.698   7.658 -0.1512  0.1265 -0.2574
   83loPI    C1 1313  15.307   8.901  10.152 -0.0035  0.1957  0.0258
   83loPI    C2 1314  15.170   8.979  10.520 -0.1670 -0.0355  0.0161
   83loPI    C3 1315  15.561   9.004  10.443 -0.1399  0.0833  0.1872
   83loPI   PO4 1316  15.142   8.936   9.962  0.1637 -0.0355  0.0274
   83loPI   GL1 1317  15.175   8.953   9.583  0.2532 -0.0053  0.1116
   83loPI   GL2 1318  15.582   8.987   9.589  0.0419 -0.1460 -0.0853
   83loPI   C1A 1319  14.901   8.758   9.313  0.0387 -0.2649 -0.1543
   83loPI   C2A 1320  14.920   8.756   8.895 -0.2658 -0.2776 -0.1979
   83loPI   C3A 1321  14.906   8.869   8.441  0.1373  0.1740  0.2938
   83loPI   C4A 1322  14.678   9.209   8.201  0.2581  0.2872 -0.0194
   83loPI   C5A 1323  14.440   9.556   8.285  0.2905  0.2930 -0.0616
   83loPI   C6A 1324  14.516   9.936   8.108  0.1489  0.1132  0.2570
   83loPI   C1B 1325  15.834   9.007   9.331  0.2856  0.0351 -0.0616
   83loPI   C2B 1326  15.655   8.785   8.973  0.1055 -0.1348 -0.0367
   83loPI   C3B 1327  15.417   9.028   8.636 -0.0983 -0.0064 -0.0196
   83loPI   C4B 1328  15.445   9.403   8.413  0.1175  0.2854 -0.1500
   84loPI    C1 1329  11.874   9.516  10.176  0.3178 -0.0345  0.0309
   84loPI    C2 1330  11.773   9.830  10.402 -0.0767 -0.0520 -0.1136
   84loPI    C3 1331  11.756   9.461  10.555  0.3485 -0.0123  0.0438
   84loPI   PO4 1332  12.100   9.592  10.062 -0.1145 -0.0823  0.2412
   84loPI   GL1 1333  12.411   9.435   9.824  0.3302  0.2387 -0.0536
   84loPI   GL2 1334  12.725   9.473   9.771  0.1143 -0.0753 -0.2710
   84loPI   C1A 1335  12.522   9.873   9.629  0.0476 -0.1866  0.3133
   84loPI   C2A 1336  12.571  10.204   9.354 -0.1041 -0.0436  0.1174
   84loPI   C3A 1337  12.776  10.336   9.060 -0.4127 -0.3807 -0.0874
   84loPI   C4A 1338  12.729  10.466   8.659 -0.0231  0.3748  0.0190
   84loPI   C5A 1339  12.928  10.356   8.219 -0.0084  0.0367 -0.2715
   84loPI   C6A 1340  13.134  10.643   8.080 -0.1088  0.1944  0.4466
   84loPI   C1B 1341  12.738   9.466   9.378  0.0609  0.0555  0.2405
   84loPI   C2B 1342  12.617   9.260   9.068 -0.1647 -0.1487  0.0879
   84loPI   C3B 1343  12.305   9.154   8.746 -0.0132 -0.3498 -0.0694
   84loPI   C4B 1344  12.586   9.185   8.439 -0.0600  0.3263  0.3244
   85loPI    C1 1345  13.866   8.509  10.317  0.1510 -0.2558 -0.0425
   85loPI    C2 1346  13.753   8.383  10.680 -0.0819  0.0666  0.0014
   85loPI    C3 1347  14.001   8.695  10.645 -0.1470  0.1059 -0.1169
   85loPI   PO4 1348  13.670   8.540  10.215  0.0278  0.1148 -0.1928
   85loPI   GL1 1349  13.486   8.662   9.798 -0.2980  0.2441  0.1874
   85loPI   GL2 1350  13.448   8.375   9.675 -0.1380 -0.0575  0.2094
   85loPI   C1A 1351  13.468   8.841   9.434  0.2364  0.0371 -0.1812
   85loPI   C2A 1352  13.492   8.862   8.968 -0.1113  0.0159 -0.0636
   85loPI   C3A 1353  13.456   8.833   8.545  0.1614 -0.1789 -0.1747
   85loPI   C4A 1354  13.510   8.798   8.102 -0.1612 -0.0881 -0.1215
   85loPI   C5A 1355  13.374   9.037   7.730  0.2351  0.0341 -0.1570
   85loPI   C6A 1356  13.064   9.118   7.473 -0.1337  0.1009  0.1120
   85loPI   C1B 1357  13.138   8.448   9.322  0.0757  0.3607  0.1892
   85loPI   C2B 1358  13.197   8.437   8.880 -0.1975 -0.0295  0.0378
   85loPI   C3B 1359  13.084   8.478   8.449  0.2866 -0.0085 -0.0088
   85loPI   C4B 1360  13.089   8.559   7.990 -0.0541  0.0636 -0.0110
   86loPI    C1 1361  10.254   6.858  10.348  0.1798 -0.2783  0.0609
   86loPI    C2 1362  10.272   6.728  10.726  0.0884  0.0614  0.1861
   86loPI    C3 1363  10.165   7.106  10.650  0.2074  0.0257 -0.1759
   86loPI   PO4 1364  10.433   6.931  10.152 -0.0588  0.2274  0.1376
   86loPI   GL1 1365  10.710   6.971   9.674  0.0108  0.0665  0.1508
   86loPI   GL2 1366  11.057   7.074   9.528 -0.2257 -0.4215 -0.2647
   86loPI   C1A 1367  10.689   6.903   9.277  0.0960  0.4687  0.0090
   86loPI   C2A 1368  10.883   6.875   8.834 -0.0915  0.3772  0.0488
   86loPI   C3A 1369  10.931   6.798   8.457 -0.1710  0.2006  0.1808
   86loPI   C4A 1370  10.960   6.680   7.957  0.1986  0.1239  0.2345
   86loPI   C5A 1371  11.182   6.924   7.613 -0.0091 -0.1160  0.0874
   86loPI   C6A 1372  11.385   6.846   7.196 -0.1359  0.0138  0.1068
   86loPI   C1B 1373  11.290   6.866   9.139 -0.0956 -0.1266 -0.1449
   86loPI   C2B 1374  11.452   6.768   8.738 -0.1662 -0.0177  0.0344
   86loPI   C3B 1375  11.439   6.750   8.295  0.3115  0.0686  0.0290
   86loPI   C4B 1376  11.550   6.835   7.940  0.1694 -0.3031  0.0371
   87loPI    C1 1377  11.748  14.588  10.511  0.0836 -0.1575  0.0724
   87loPI    C2 1378  11.501  14.837  10.704 -0.1085 -0.1644 -0.1594
   87loPI    C3 1379  11.575  14.473  10.853 -0.2662 -0.1753 -0.1055
   87loPI   PO4 1380  11.924  14.843  10.421 -0.0980 -0.2002 -0.0363
   87loPI   GL1 1381  12.018  15.158   9.988  0.2555 -0.0934 -0.1689
   87loPI   GL2 1382  12.262  15.141   9.765  0.0463  0.0427 -0.0842
   87loPI   C1A 1383  12.022  15.437   9.516 -0.0526  0.4090  0.1701
   87loPI   C2A 1384  11.869  15.204   9.247  0.1363  0.0025  0.1715
   87loPI   C3A 1385  11.645  15.247   8.831  0.1214  0.3316 -0.0615
   87loPI   C4A 1386  11.616  15.448   8.426  0.0198  0.1079  0.1556
   87loPI   C5A 1387  11.917  15.835   8.231  0.2085 -0.0841  0.2086
   87loPI   C6A 1388  12.043  16.275   8.001 -0.0286  0.2422 -0.0462
   87loPI   C1B 1389  12.373  15.180   9.287 -0.1965  0.0128 -0.0835
   87loPI   C2B 1390  12.469  15.132   8.895 -0.0035  0.0248  0.1592
   87loPI   C3B 1391  12.547  15.036   8.467  0.0865  0.3593 -0.1630
   87loPI   C4B 1392  12.392  14.893   8.090 -0.0289 -0.1183  0.0271
   88loPI    C1 1393  14.700  11.048  10.607  0.0338 -0.0200  0.0916
   88loPI    C2 1394  14.399  11.309  10.644 -0.1045 -0.1616 -0.0211
   88loPI    C3 1395  14.391  10.965  10.847 -0.0814 -0.2227 -0.1230
   88loPI   PO4 1396  14.781  11.199  10.285  0.2473 -0.2529  0.2945
   88loPI   GL1 1397  14.877  11.275   9.888  0.0942 -0.0271  0.0640
   88loPI   GL2 1398  14.842  11.598   9.837 -0.1555  0.3042  0.1222
   88loPI   C1A 1399  14.877  11.092   9.543  0.0770  0.2318  0.1825
   88loPI   C2A 1400  14.866  11.130   9.168 -0.1322  0.1023  0.1090
   88loPI   C3A 1401  14.948  11.058   8.776  0.1778  0.4389  0.1175
   88loPI   C4A 1402  15.196  11.238   8.457 -0.0908  0.2275  0.1873
   88loPI   C5A 1403  15.122  11.263   7.997 -0.0154 -0.3103 -0.4394
   88loPI   C6A 1404  15.060  11.438   7.677  0.1736 -0.1126  0.3046
   88loPI   C1B 1405  14.742  11.575   9.393  0.0531 -0.0309 -0.2964
   88loPI   C2B 1406  14.525  11.499   9.033 -0.0163 -0.1672  0.3888
   88loPI   C3B 1407  14.481  11.389   8.644  0.3698 -0.0561 -0.0992
   88loPI   C4B 1408  14.753  11.289   8.340  0.0005  0.3627 -0.1622
   89loPI    C1 1409  13.005   4.145  10.572 -0.1449  0.0381 -0.0290
   89loPI    C2 1410  12.971   3.800  10.772  0.4892  0.0526  0.1249
   89loPI    C3 1411  12.993   4.146  10.972 -0.4068  0.2279 -0.0344
   89loPI   PO4 1412  12.782   4.077  10.356 -0.0665  0.0362  0.0312
   89loPI   GL1 1413  12.691   4.280   9.904  0.1263  0.3372  0.4693
   89loPI   GL2 1414  12.712   4.643   9.852  0.0595 -0.1069  0.0506
   89loPI   C1A 1415  12.645   4.180   9.497 -0.0661  0.0820  0.3517
   89loPI   C2A 1416  12.808   3.852   9.305 -0.0016  0.0219 -0.1983
   89loPI   C3A 1417  12.897   3.773   8.881  0.1239 -0.0045 -0.3209
   89loPI   C4A 1418  12.787   4.043   8.508 -0.0507  0.0585  0.2797
   89loPI   C5A 1419  12.751   4.229   8.106 -0.3277 -0.1754  0.1463
   89loPI   C6A 1420  12.820   4.423   7.655 -0.0108  0.2916  0.0176
   89loPI   C1B 1421  12.570   4.662   9.409  0.0955 -0.2271 -0.0097
   89loPI   C2B 1422  12.682   4.649   8.889 -0.0975  0.1011  0.2723
   89loPI   C3B 1423  12.557   4.547   8.398  0.2794  0.0290  0.1398
   89loPI   C4B 1424  12.261   4.856   8.216  0.0344 -0.0215  0.0338
   90loPI    C1 1425   2.145  15.011  10.036 -0.0116 -0.0325  0.0581
   90loPI    C2 1426   2.437  15.193  10.239 -0.0968  0.0375  0.1187
   90loPI    C3 1427   2.269  14.861  10.385  0.0708 -0.1016 -0.0005
   90loPI   PO4 1428   2.014  15.177   9.971  0.1006  0.0210  0.1153
   90loPI   GL1 1429   1.926  15.317   9.584 -0.0595  0.1027  0.1318
   90loPI   GL2 1430   2.142  15.591   9.601  0.1732  0.0776 -0.0343
   90loPI   C1A 1431   1.990  15.269   9.187  0.3551  0.2242  0.0113
   90loPI   C2A 1432   2.160  15.318   8.849 -0.0735 -0.1299  0.0238
   90loPI   C3A 1433   2.211  15.556   8.612 -0.1498 -0.1155  0.2478
   90loPI   C4A 1434   1.922  15.569   8.171 -0.1834  0.1912  0.2234
   90loPI   C5A 1435   1.701  15.458   7.868 -0.0996  0.0410  0.1388
   90loPI   C6A 1436   1.662  15.068   7.665 -0.4123 -0.1428 -0.2451
   90loPI   C1B 1437   2.205  15.718   9.152 -0.1875  0.0091 -0.0096
   90loPI   C2B 1438   2.068  15.941   8.853 -0.1827 -0.2817 -0.1394
   90loPI   C3B 1439   1.989  16.011   8.364  0.0590  0.2150  0.1189
   90loPI   C4B 1440   1.991  15.964   7.894  0.0935 -0.1511 -0.0903
   91loPI    C1 1441  13.022   1.237  10.335 -0.0520 -0.0085 -0.0132
   91loPI    C2 1442  13.230   1.559  10.223  0.0343 -0.0281  0.0889
   91loPI    C3 1443  13.408   1.269  10.433 -0.0825 -0.0705  0.1301
   91loPI   PO4 1444  12.891   1.010  10.136 -0.1062  0.2548  0.0243
   91loPI   GL1 1445  12.816   0.962   9.691  0.1894  0.2366  0.2130
   91loPI   GL2 1446  12.494   0.729   9.807 -0.0444  0.2224 -0.0198
   91loPI   C1A 1447  12.735   1.001   9.236 -0.1707  0.0725  0.0571
   91loPI   C2A 1448  12.734   1.209   8.806 -0.1340  0.2139  0.2275
   91loPI   C3A 1449  12.762   1.312   8.339 -0.2659  0.1136 -0.0675
   91loPI   C4A 1450  12.819   1.473   7.941 -0.0243 -0.3298 -0.0802
   91loPI   C5A 1451  13.293   1.378   7.804  0.0118  0.0848  0.3156
   91loPI   C6A 1452  13.516   1.704   7.816 -0.2927  0.1389 -0.0246
   91loPI   C1B 1453  12.475   0.541   9.327 -0.2106 -0.2017  0.1414
   91loPI   C2B 1454  12.297   0.453   8.977  0.1130  0.0285 -0.1204
   91loPI   C3B 1455  12.154   0.449   8.554 -0.1155 -0.1939 -0.1078
   91loPI   C4B 1456  11.995   0.380   8.207  0.0322  0.2621 -0.1144
   92loPI    C1 1457   6.752   7.942  10.524  0.0792  0.0038 -0.1742
   92loPI    C2 1458   6.813   8.324  10.425  0.0384  0.1102  0.1987
   92loPI    C3 1459   6.443   8.172  10.415  0.0477  0.0940  0.0972
   92loPI   PO4 1460   6.961   7.811  10.412 -0.2139 -0.1437  0.0265
   92loPI   GL1 1461   7.074   7.833   9.979 -0.2354  0.0094 -0.1189
   92loPI   GL2 1462   7.072   8.174  10.011  0.3819  0.1006  0.2235
   92loPI   C1A 1463   7.073   7.521   9.642 -0.3325  0.0991  0.1934
   92loPI   C2A 1464   7.065   7.535   9.210 -0.2072 -0.0156  0.1346
   92loPI   C3A 1465   7.137   7.553   8.710 -0.0723  0.3217 -0.1327
   92loPI   C4A 1466   7.250   7.345   8.367 -0.1500 -0.3281  0.2115
   92loPI   C5A 1467   7.668   7.231   8.132  0.1953 -0.0241  0.0890
   92loPI   C6A 1468   8.153   7.356   8.163  0.0748 -0.1560  0.2253
   92loPI   C1B 1469   6.888   8.254   9.642  0.1991 -0.0920 -0.0246
   92loPI   C2B 1470   6.997   8.418   9.204  0.4363  0.2265 -0.0863
   92loPI   C3B 1471   7.093   8.163   8.772 -0.0604 -0.0051  0.1623
   92loPI   C4B 1472   7.269   7.880   8.337 -0.4800  0.0522  0.1346
   93loPI    C1 1473  16.412  12.814  10.251  0.2840  0.0385  0.1992
   93loPI    C2 1474  16.116  12.837  10.519  0.0406 -0.2671 -0.0359
   93loPI    C3 1475  16.068  12.994  10.154  0.2166 -0.2103 -0.0355
   93loPI   PO4 1476  16.521  12.649  10.259 -0.0811 -0.1001  0.0316
   93loPI   GL1 1477  16.706  12.435   9.923  0.2115  0.1629 -0.1666
   93loPI   GL2 1478  16.848  12.163   9.793 -0.1585 -0.1371 -0.2701
   93loPI   C1A 1479  16.438  12.217   9.495  0.3333 -0.1407  0.5956
   93loPI   C2A 1480  16.348  12.171   9.095 -0.0147 -0.3759  0.0761
   93loPI   C3A 1481  16.284  12.314   8.728  0.2829  0.1635  0.1395
   93loPI   C4A 1482  16.148  12.087   8.332 -0.0206 -0.1832 -0.2282
   93loPI   C5A 1483  15.920  11.883   8.098 -0.0874 -0.1609 -0.1155
   93loPI   C6A 1484  15.564  11.932   7.900 -0.3304  0.2202  0.0251
   93loPI   C1B 1485  16.850  11.924   9.417 -0.1429  0.1792  0.1389
   93loPI   C2B 1486  16.797  11.854   9.004 -0.1189  0.2051 -0.1943
   93loPI   C3B 1487  16.962  11.796   8.630 -0.1611  0.3332  0.0483
   93loPI   C4B 1488  17.295  11.999   8.351 -0.1109  0.0409 -0.0295
   94loPI    C1 1489  10.203  12.610  10.185  0.0281  0.3211  0.1716
   94loPI    C2 1490  10.530  12.419  10.312 -0.0453 -0.0555 -0.1847
   94loPI    C3 1491  10.294  12.608  10.574  0.5473  0.3803  0.0576
   94loPI   PO4 1492  10.069  12.439  10.071 -0.1807  0.1640 -0.0201
   94loPI   GL1 1493  10.056  12.106   9.631 -0.4466 -0.0228 -0.2664
   94loPI   GL2 1494  10.416  12.108   9.477 -0.3225  0.0778 -0.1250
   94loPI   C1A 1495   9.965  12.083   9.222  0.3037 -0.0720  0.2389
   94loPI   C2A 1496   9.963  11.956   8.751 -0.2435  0.1538 -0.3480
   94loPI   C3A 1497  10.050  11.852   8.286 -0.0271 -0.2127  0.3283
   94loPI   C4A 1498   9.766  11.922   7.916  0.2007  0.0636 -0.1636
   94loPI   C5A 1499   9.456  11.963   7.579 -0.0970 -0.1519 -0.3263
   94loPI   C6A 1500   9.354  11.798   7.184 -0.0667  0.1841  0.4393
   94loPI   C1B 1501  10.377  12.032   9.025 -0.1689 -0.0038  0.0909
   94loPI   C2B 1502  10.471  11.874   8.534 -0.0776 -0.1058 -0.0358
   94loPI   C3B 1503  10.480  11.793   8.030 -0.0916 -0.3329 -0.1239
   94loPI   C4B 1504  10.562  11.633   7.651 -0.0327  0.2001  0.0998
   95loPI    C1 1505  17.541  11.569  10.476  0.2385  0.0756 -0.3829
   95loPI    C2 1506  17.859  11.493  10.705 -0.0107  0.1822  0.0080
   95loPI    C3 1507  17.691  11.856  10.711 -0.2949  0.0530  0.0026
   95loPI   PO4 1508  17.647  11.347  10.213  0.0636  0.2395  0.1115
   95loPI   GL1 1509  17.686  11.267   9.807 -0.1776 -0.0140  0.1744
   95loPI   GL2 1510  17.923  11.508   9.793  0.0789  0.2796 -0.0245
   95loPI   C1A 1511  17.897  11.197   9.392 -0.0661  0.3234  0.0293
   95loPI   C2A 1512  18.099  11.236   9.083  0.1635 -0.1364 -0.0137
   95loPI   C3A 1513  18.132  11.224   8.669 -0.0205 -0.4609 -0.1554
   95loPI   C4A 1514  17.989  11.233   8.325 -0.3374  0.1345 -0.3537
   95loPI   C5A 1515  17.590  11.148   8.088 -0.1090  0.2345  0.2207
   95loPI   C6A 1516  17.439  10.962   7.790  0.1676 -0.0564 -0.3690
   95loPI   C1B 1517  18.284  11.351   9.640  0.2742  0.0136 -0.0329
   95loPI   C2B 1518  18.636  11.197   9.327  0.0526 -0.2335 -0.1182
   95loPI   C3B 1519  18.633  11.176   8.871 -0.1340  0.2919 -0.0611
   95loPI   C4B 1520  18.497  11.001   8.394 -0.0930 -0.0573  0.1892
   96loPI    C1 1521   6.413   1.761  10.260  0.1696 -0.4013  0.0980
   96loPI    C2 1522   6.273   1.912  10.603 -0.0088  0.0329 -0.1579
   96loPI    C3 1523   6.095   1.595  10.436 -0.2203  0.1160 -0.0933
   96loPI   PO4 1524   6.452   1.947  10.096 -0.1349  0.1649  0.0076
   96loPI   GL1 1525   6.823   1.927   9.858 -0.1024 -0.3639  0.0935
   96loPI   GL2 1526   7.101   2.047   9.643  0.0983 -0.2192  0.3956
   96loPI   C1A 1527   6.623   2.096   9.488  0.0099  0.0526  0.1850
   96loPI   C2A 1528   6.497   1.986   9.107  0.2493  0.0621  0.1786
   96loPI   C3A 1529   6.405   1.900   8.627  0.1686 -0.0992  0.0032
   96loPI   C4A 1530   6.169   1.696   8.310  0.1922 -0.4096  0.2306
   96loPI   C5A 1531   6.305   1.605   7.897 -0.0007  0.0865 -0.1771
   96loPI   C6A 1532   6.423   1.571   7.475  0.3142 -0.2355  0.0747
   96loPI   C1B 1533   7.387   2.299   9.343 -0.0276 -0.2346  0.0521
   96loPI   C2B 1534   7.406   2.395   8.934  0.1791 -0.0418  0.2237
   96loPI   C3B 1535   7.453   2.497   8.508  0.0852 -0.0163 -0.0406
   96loPI   C4B 1536   7.223   2.488   8.245 -0.1258  0.0876  0.0227
   97loPI    C1 1537   5.781   3.494   9.714 -0.1592  0.1498  0.0555
   97loPI    C2 1538   6.064   3.686   9.921  0.0580 -0.2691  0.1562
   97loPI    C3 1539   6.157   3.499   9.579 -0.1214 -0.3072  0.1272
   97loPI   PO4 1540   5.623   3.586   9.547 -0.4281  0.1115  0.0255
   97loPI   GL1 1541   5.708   3.640   9.184  0.1027 -0.2042  0.2478
   97loPI   GL2 1542   5.810   3.894   8.993  0.0330  0.1453 -0.0016
   97loPI   C1A 1543   5.568   3.483   8.760  0.0019 -0.0157  0.1301
   97loPI   C2A 1544   5.439   3.543   8.410 -0.1633 -0.0500 -0.0831
   97loPI   C3A 1545   5.331   3.424   7.991 -0.3732 -0.0490  0.1031
   97loPI   C4A 1546   5.384   3.243   7.677 -0.2617 -0.0688  0.1517
   97loPI   C5A 1547   5.082   2.923   7.492 -0.3913 -0.0266  0.0661
   97loPI   C6A 1548   4.651   2.880   7.519  0.1062 -0.1262  0.1758
   97loPI   C1B 1549   5.723   3.896   8.522 -0.1239 -0.1173  0.1637
   97loPI   C2B 1550   5.767   3.875   8.100  0.0289 -0.1631 -0.1850
   97loPI   C3B 1551   5.984   3.935   7.747 -0.0772 -0.0609 -0.1269
   97loPI   C4B 1552   6.394   4.023   7.528  0.0345 -0.1830 -0.3918
   98loPI    C1 1553  10.462   9.404  10.682 -0.0883 -0.2343 -0.1856
   98loPI    C2 1554  10.831   9.556  10.710 -0.1528 -0.0517 -0.3088
   98loPI    C3 1555  10.651   9.407  11.034 -0.1041  0.1752 -0.1750
   98loPI   PO4 1556  10.411   9.463  10.375  0.1192 -0.0835  0.1247
   98loPI   GL1 1557  10.429   9.582   9.941 -0.1881 -0.1161 -0.0734
   98loPI   GL2 1558  10.343   9.401   9.730 -0.0901  0.3882 -0.0602
   98loPI   C1A 1559  10.767   9.733   9.730 -0.0946  0.3849 -0.0563
   98loPI   C2A 1560  10.910   9.890   9.329 -0.3164 -0.2949 -0.1023
   98loPI   C3A 1561  11.229   9.708   9.078  0.0437 -0.2905 -0.0885
   98loPI   C4A 1562  11.481   9.870   8.727  0.0703 -0.0195 -0.2703
   98loPI   C5A 1563  11.573  10.079   8.346  0.0796 -0.0112 -0.2072
   98loPI   C6A 1564  11.374  10.189   8.018  0.2303  0.2093  0.1277
   98loPI   C1B 1565  10.240   9.407   9.354 -0.0152  0.1762 -0.1373
   98loPI   C2B 1566  10.007   9.533   9.104  0.1988 -0.3431 -0.0528
   98loPI   C3B 1567   9.680   9.542   9.295 -0.0142  0.1356  0.1479
   98loPI   C4B 1568   9.351   9.451   9.546  0.0942  0.1087  0.0720
   99loPI    C1 1569  12.277   8.738  10.360 -0.0689 -0.0884 -0.0252
   99loPI    C2 1570  12.102   9.084  10.261 -0.0253 -0.0953 -0.1279
   99loPI    C3 1571  11.970   8.876  10.576 -0.0155  0.0426 -0.0317
   99loPI   PO4 1572  12.283   8.587  10.168 -0.0528  0.2023  0.0786
   99loPI   GL1 1573  12.446   8.663   9.843 -0.1041  0.0069 -0.0248
   99loPI   GL2 1574  12.148   8.890   9.781 -0.0820  0.1617  0.1737
   99loPI   C1A 1575  12.161   8.495   9.495  0.1171 -0.2164  0.2181
   99loPI   C2A 1576  11.853   8.447   9.078 -0.3534 -0.2437  0.3885
   99loPI   C3A 1577  11.969   8.539   8.569  0.1741  0.0115  0.0369
   99loPI   C4A 1578  12.195   8.854   8.263  0.2339  0.0326 -0.0856
   99loPI   C5A 1579  12.199   9.242   8.069  0.1171 -0.1101 -0.1201
   99loPI   C6A 1580  12.117   9.733   7.965  0.3121 -0.1598 -0.1917
   99loPI   C1B 1581  12.152   9.279   9.455  0.0956 -0.0260  0.1591
   99loPI   C2B 1582  12.315   9.643   9.247  0.0503  0.0014  0.1782
   99loPI   C3B 1583  12.442  10.003   8.860 -0.1864  0.0360 -0.1573
   99loPI   C4B 1584  12.683   9.978   8.507 -0.1661 -0.3412 -0.0506
  100loPI    C1 1585  17.220   0.331  10.504 -0.3242 -0.0659 -0.2700
  100loPI    C2 1586  17.113   0.057  10.775 -0.0247  0.0184 -0.0610
  100loPI    C3 1587  17.228   0.421  10.894  0.3241 -0.0139 -0.2840
  100loPI   PO4 1588  17.090   0.303  10.372 -0.0120 -0.3055 -0.1479
  100loPI   GL1 1589  17.009   0.285   9.990 -0.1220 -0.2650  0.2170
  100loPI   GL2 1590  16.935   0.597   9.904 -0.0554  0.2984 -0.0669
  100loPI   C1A 1591  17.169   0.080   9.681 -0.0596  0.1885 -0.4638
  100loPI   C2A 1592  17.182   0.023   9.269  0.0747  0.1215  0.0550
  100loPI   C3A 1593  17.168  -0.038   8.876 -0.0762  0.1079  0.1490
  100loPI   C4A 1594  17.255  -0.008   8.434  0.1131 -0.0707 -0.0465
  100loPI   C5A 1595  17.276  -0.194   7.966 -0.0211 -0.0251 -0.0871
  100loPI   C6A 1596  17.081  -0.488   7.753 -0.1598  0.0260 -0.0295
  100loPI   C1B 1597  16.906   0.448   9.440 -0.1395  0.0899  0.0628
  100loPI   C2B 1598  16.981   0.413   9.045  0.1860 -0.1230  0.0077
  100loPI   C3B 1599  16.908   0.383   8.659 -0.1593  0.1749  0.1009
  100loPI   C4B 1600  16.906   0.392   8.231 -0.3124  0.0468 -0.0864
  101loPI    C1 1601   9.526   3.175  10.528 -0.2156  0.0829 -0.1041
  101loPI    C2 1602   9.865   3.293  10.705 -0.1436 -0.2633 -0.0041
  101loPI    C3 1603   9.619   3.039  10.893 -0.3865 -0.1301 -0.1380
  101loPI   PO4 1604   9.476   3.354  10.333 -0.0335  0.2064 -0.4796
  101loPI   GL1 1605   9.417   3.197   9.910 -0.1159  0.1611 -0.0218
  101loPI   GL2 1606   9.593   3.424   9.808  0.1880  0.4253 -0.1321
  101loPI   C1A 1607   9.583   2.906   9.607 -0.1829  0.1829  0.1248
  101loPI   C2A 1608   9.621   3.032   9.136 -0.0154  0.0313 -0.2192
  101loPI   C3A 1609   9.644   3.348   8.801  0.2073 -0.0373 -0.1824
  101loPI   C4A 1610   9.609   3.290   8.401 -0.1062 -0.3661 -0.0233
  101loPI   C5A 1611   9.545   3.150   7.927  0.1381 -0.1389  0.0663
  101loPI   C6A 1612   9.564   2.795   7.784 -0.3388 -0.3232  0.3239
  101loPI   C1B 1613   9.732   3.628   9.441 -0.0662 -0.0021  0.1519
  101loPI   C2B 1614   9.812   3.766   8.996  0.2580 -0.1024 -0.1256
  101loPI   C3B 1615   9.960   3.691   8.570  0.2531  0.3135 -0.1924
  101loPI   C4B 1616  10.002   3.545   8.163 -0.2873 -0.2850  0.2417
  102loPI    C1 1617   5.462  15.305  10.865  0.2523  0.1345  0.0022
  102loPI    C2 1618   5.432  15.703  10.866 -0.2209  0.1047 -0.0165
  102loPI    C3 1619   5.212  15.486  11.119  0.0914 -0.1442  0.0468
  102loPI   PO4 1620   5.461  15.201  10.603 -0.0861  0.1098  0.1151
  102loPI   GL1 1621   5.280  15.519  10.237  0.0756 -0.0461  0.0047
  102loPI   GL2 1622   5.598  15.615   9.983  0.1736  0.1615  0.2900
  102loPI   C1A 1623   5.162  15.398   9.800  0.1724 -0.1505 -0.1737
  102loPI   C2A 1624   5.092  15.384   9.284  0.2430 -0.1035  0.2709
  102loPI   C3A 1625   4.779  15.418   8.960 -0.0171 -0.0681 -0.2328
  102loPI   C4A 1626   4.747  15.351   8.570  0.0473  0.2153  0.3805
  102loPI   C5A 1627   4.789  15.733   8.296  0.0166  0.1436 -0.1323
  102loPI   C6A 1628   4.442  15.957   8.177 -0.1023 -0.0735 -0.1144
  102loPI   C1B 1629   5.603  15.292   9.603 -0.0946  0.1273 -0.0228
  102loPI   C2B 1630   5.478  15.030   9.413  0.0092  0.0126  0.3330
  102loPI   C3B 1631   5.448  15.110   8.920 -0.1725  0.0732 -0.0458
  102loPI   C4B 1632   5.247  15.313   8.568  0.2396 -0.3228 -0.1552
  103loPI    C1 1633  15.555  10.553  10.308 -0.0013 -0.0937  0.0052
  103loPI    C2 1634  15.906  10.542  10.499  0.1078  0.3482 -0.1579
  103loPI    C3 1635  15.567  10.598  10.705  0.1539  0.1473 -0.0247
  103loPI   PO4 1636  15.551  10.333  10.115  0.3399  0.0981  0.2905
  103loPI   GL1 1637  15.347  10.410   9.692  0.2854 -0.2408 -0.3417
  103loPI   GL2 1638  15.654  10.287   9.565  0.1790 -0.0829 -0.0346
  103loPI   C1A 1639  15.211  10.789   9.437 -0.2022  0.3723 -0.0712
  103loPI   C2A 1640  15.247  10.799   9.080 -0.1712  0.1512 -0.1439
  103loPI   C3A 1641  15.359  10.767   8.707  0.0641  0.0922 -0.0341
  103loPI   C4A 1642  15.515  10.475   8.363 -0.2713 -0.0015  0.3209
  103loPI   C5A 1643  15.799  10.193   8.082  0.0048 -0.0329 -0.0680
  103loPI   C6A 1644  16.248  10.092   7.997  0.2241 -0.0079  0.0079
  103loPI   C1B 1645  15.506  10.398   9.202  0.1211  0.0707  0.0812
  103loPI   C2B 1646  15.313  10.242   8.827 -0.1279 -0.3287 -0.1021
  103loPI   C3B 1647  15.081  10.245   8.459  0.0884  0.0791  0.2610
  103loPI   C4B 1648  15.150  10.192   8.026 -0.2161  0.1933 -0.0198
  104loPI    C1 1649   9.670   0.101  10.035  0.1055 -0.0531  0.1030
  104loPI    C2 1650   9.929  -0.001  10.321  0.0507 -0.1183  0.1294
  104loPI    C3 1651   9.545   0.059  10.412  0.0823  0.1154  0.1149
  104loPI   PO4 1652   9.707   0.325   9.944  0.0227 -0.1138 -0.2878
  104loPI   GL1 1653   9.901   0.417   9.599 -0.2286 -0.0396 -0.2162
  104loPI   GL2 1654  10.193   0.435   9.582 -0.6829  0.1729 -0.5000
  104loPI   C1A 1655   9.776   0.310   9.140 -0.0434 -0.2302 -0.0428
  104loPI   C2A 1656   9.695   0.140   8.753  0.0247 -0.0431  0.0513
  104loPI   C3A 1657   9.730  -0.111   8.371  0.0882  0.1212  0.1575
  104loPI   C4A 1658   9.621  -0.118   7.973  0.4033 -0.0091  0.1284
  104loPI   C5A 1659   9.573  -0.370   7.654 -0.0546  0.1546 -0.1050
  104loPI   C6A 1660   9.607  -0.111   7.290  0.2826 -0.1552 -0.0333
  104loPI   C1B 1661  10.156   0.116   9.255 -0.2204 -0.0502  0.3101
  104loPI   C2B 1662  10.217   0.041   8.816  0.2265  0.0305 -0.0405
  104loPI   C3B 1663  10.310   0.060   8.360 -0.1604  0.0889 -0.1404
  104loPI   C4B 1664  10.423   0.248   8.004  0.0983 -0.2555 -0.2491
  105loPI    C1 1665  11.046   3.496  10.405  0.0771 -0.0819 -0.1076
  105loPI    C2 1666  10.897   3.301  10.721 -0.0087 -0.0539 -0.1306
  105loPI    C3 1667  11.064   3.661  10.769  0.0607 -0.0896 -0.1033
  105loPI   PO4 1668  10.884   3.513  10.239 -0.0754  0.0197  0.3893
  105loPI   GL1 1669  10.599   3.873  10.114  0.0164  0.0424  0.1270
  105loPI   GL2 1670  10.466   4.098   9.942 -0.0530  0.1380  0.0422
  105loPI   C1A 1671  10.774   3.794   9.644  0.0589  0.1717  0.2629
  105loPI   C2A 1672  10.721   3.910   9.122  0.4735  0.1764 -0.1828
  105loPI   C3A 1673  10.841   3.984   8.665  0.3814  0.0710  0.0355
  105loPI   C4A 1674  10.956   3.982   8.104  0.1453 -0.0306 -0.0391
  105loPI   C5A 1675  10.992   4.196   7.751  0.0260  0.0007  0.2131
  105loPI   C6A 1676  11.443   4.298   7.718 -0.3332 -0.0555  0.3454
  105loPI   C1B 1677  10.407   4.322   9.457 -0.0470 -0.2045 -0.2165
  105loPI   C2B 1678  10.557   4.426   9.047  0.4049 -0.1369 -0.3544
  105loPI   C3B 1679  10.674   4.499   8.672 -0.0544 -0.1540  0.0405
  105loPI   C4B 1680  10.864   4.474   8.188  0.1010  0.3642  0.0497
  106loPI    C1 1681   8.662  14.408  10.263  0.1716 -0.1823 -0.1995
  106loPI    C2 1682   8.783  14.559   9.913 -0.1507  0.3318 -0.0993
  106loPI    C3 1683   8.963  14.672  10.252  0.0520 -0.0388 -0.0788
  106loPI   PO4 1684   8.704  14.172  10.190  0.0671 -0.3626  0.1747
  106loPI   GL1 1685   8.708  13.984   9.783  0.0589  0.1831  0.0940
  106loPI   GL2 1686   9.096  14.136   9.817  0.1528 -0.1553  0.0783
  106loPI   C1A 1687   8.564  13.911   9.501  0.0689 -0.0442  0.1762
  106loPI   C2A 1688   8.643  14.019   9.111 -0.0623 -0.0623  0.1181
  106loPI   C3A 1689   8.697  13.913   8.691  0.0485 -0.0899 -0.3246
  106loPI   C4A 1690   8.839  13.953   8.281 -0.2506  0.0338  0.0195
  106loPI   C5A 1691   8.972  13.775   7.876 -0.0401 -0.0270  0.2396
  106loPI   C6A 1692   8.594  13.641   7.595 -0.2716 -0.0366 -0.1854
  106loPI   C1B 1693   8.894  14.395   9.498 -0.1870 -0.0141 -0.0954
  106loPI   C2B 1694   8.818  14.474   9.084  0.1285  0.0666 -0.1672
  106loPI   C3B 1695   8.838  14.379   8.706  0.0225 -0.2718  0.1666
  106loPI   C4B 1696   8.979  14.470   8.292  0.2337  0.0248  0.0121
  107loPI    C1 1697  13.195   3.127  10.319 -0.1082  0.0252  0.3323
  107loPI    C2 1698  13.503   2.945  10.139 -0.2247  0.1066  0.0464
  107loPI    C3 1699  13.433   2.881  10.527 -0.0681 -0.2005  0.0271
  107loPI   PO4 1700  12.962   3.170  10.125  0.2254 -0.0140  0.0193
  107loPI   GL1 1701  12.946   3.244   9.647 -0.0189  0.0228 -0.0311
  107loPI   GL2 1702  12.745   3.401   9.732  0.0288  0.0140 -0.1787
  107loPI   C1A 1703  13.017   3.396   9.212 -0.0514  0.1088  0.0461
  107loPI   C2A 1704  13.302   3.346   8.897 -0.1539  0.0763  0.0880
  107loPI   C3A 1705  13.349   3.316   8.476  0.0188  0.1591 -0.1008
  107loPI   C4A 1706  13.221   3.482   8.113  0.3223 -0.1589  0.0502
  107loPI   C5A 1707  13.500   3.743   7.896 -0.1142 -0.1017  0.1061
  107loPI   C6A 1708  13.732   4.047   7.568 -0.2090  0.0607 -0.1329
  107loPI   C1B 1709  12.402   3.676   9.623 -0.1450  0.0624 -0.5222
  107loPI   C2B 1710  12.301   3.852   9.295  0.0154  0.2804 -0.1110
  107loPI   C3B 1711  12.464   4.171   9.034  0.0916  0.1836 -0.1634
  107loPI   C4B 1712  12.252   4.180   8.667  0.2344  0.1041  0.0840
  108loPI    C1 1713  11.188   7.654  10.245  0.1126  0.1702  0.2597
  108loPI    C2 1714  11.396   7.464  10.529  0.1100  0.0804  0.2020
  108loPI    C3 1715  10.996   7.466  10.541  0.1032 -0.1466  0.0567
  108loPI   PO4 1716  11.277   7.584  10.014 -0.1787  0.1262 -0.1399
  108loPI   GL1 1717  11.244   7.695   9.594 -0.1182  0.0512 -0.0658
  108loPI   GL2 1718  11.074   7.849   9.415  0.2150 -0.0018  0.1166
  108loPI   C1A 1719  11.280   7.408   9.214  0.3267 -0.2661  0.1475
  108loPI   C2A 1720  11.251   7.188   8.797 -0.1525  0.0242  0.0354
  108loPI   C3A 1721  11.264   7.201   8.441  0.1046 -0.1844 -0.1237
  108loPI   C4A 1722  11.125   7.261   8.071 -0.1683  0.0505  0.0999
  108loPI   C5A 1723  10.791   7.209   7.857  0.0829  0.0850  0.0424
  108loPI   C6A 1724  10.696   7.262   7.488  0.1998 -0.0170 -0.1289
  108loPI   C1B 1725  10.755   7.902   9.187  0.3420  0.3020  0.1325
  108loPI   C2B 1726  10.494   7.898   8.746  0.0708  0.0300 -0.0739
  108loPI   C3B 1727  10.395   7.803   8.322  0.2914  0.1528 -0.0569
  108loPI   C4B 1728  10.135   8.022   7.959  0.1580  0.0975  0.0557
  109loPI    C1 1729  11.302  11.696  10.213  0.0498  0.2801  0.0554
  109loPI    C2 1730  10.966  11.664  10.428 -0.1175 -0.0683 -0.2450
  109loPI    C3 1731  11.308  11.772  10.606 -0.3146 -0.0426  0.1299
  109loPI   PO4 1732  11.226  11.765  10.008 -0.0216 -0.1234  0.2014
  109loPI   GL1 1733  11.296  11.545   9.611  0.1114  0.2303  0.0697
  109loPI   GL2 1734  11.013  11.257   9.623 -0.3517  0.0112  0.0351
  109loPI   C1A 1735  11.339  11.615   9.216 -0.1382  0.1391 -0.0464
  109loPI   C2A 1736  11.342  11.634   8.851 -0.0005  0.0280  0.1216
  109loPI   C3A 1737  11.300  11.771   8.400  0.0252  0.0715 -0.0088
  109loPI   C4A 1738  11.321  11.522   8.039  0.0280  0.0948 -0.0164
  109loPI   C5A 1739  11.421  11.131   7.759 -0.1017 -0.0092 -0.0790
  109loPI   C6A 1740  11.583  10.961   7.411 -0.2054  0.0637  0.4515
  109loPI   C1B 1741  11.047  11.187   9.256 -0.5129  0.1682 -0.2462
  109loPI   C2B 1742  11.133  11.102   8.806  0.0880  0.1087  0.0779
  109loPI   C3B 1743  11.000  11.085   8.378  0.0409  0.0193  0.0872
  109loPI   C4B 1744  10.902  10.946   7.935 -0.0335  0.3625  0.1936
  110loPI    C1 1745  16.277   3.457   9.969 -0.1405  0.0448 -0.0176
  110loPI    C2 1746  16.325   3.592  10.343 -0.0983  0.0325 -0.0186
  110loPI    C3 1747  16.567   3.720  10.051  0.0102 -0.1260  0.0012
  110loPI   PO4 1748  16.255   3.212  10.049  0.1305  0.1813  0.0380
  110loPI   GL1 1749  15.978   2.885   9.809  0.1801 -0.3492 -0.2189
  110loPI   GL2 1750  15.942   2.512   9.873 -0.0039  0.1454  0.2954
  110loPI   C1A 1751  16.065   2.840   9.386 -0.0239 -0.0207 -0.1183
  110loPI   C2A 1752  16.444   2.673   9.241  0.2803  0.1016 -0.0075
  110loPI   C3A 1753  16.605   2.622   8.934  0.1252 -0.2970  0.0332
  110loPI   C4A 1754  16.743   2.468   8.576 -0.1346 -0.2460 -0.1621
  110loPI   C5A 1755  16.823   2.408   8.091 -0.0582  0.0503  0.3688
  110loPI   C6A 1756  16.900   2.721   7.826 -0.2843  0.0695  0.0386
  110loPI   C1B 1757  16.084   2.327   9.464  0.0861  0.0438 -0.0986
  110loPI   C2B 1758  16.219   2.230   9.090  0.1091  0.1633  0.2135
  110loPI   C3B 1759  16.399   2.104   8.664 -0.2430 -0.1538 -0.0990
  110loPI   C4B 1760  16.787   1.945   8.339 -0.0007 -0.1752  0.1043
  111loPI    C1 1761   3.400   7.399  10.181  0.3381  0.1537 -0.1057
  111loPI    C2 1762   3.402   7.799  10.189  0.1702  0.1534  0.0004
  111loPI    C3 1763   3.353   7.593  10.528 -0.0197  0.0468 -0.0898
  111loPI   PO4 1764   3.439   7.335   9.901  0.0165  0.1674  0.0013
  111loPI   GL1 1765   3.342   7.464   9.572  0.3236  0.0392  0.3695
  111loPI   GL2 1766   3.400   7.756   9.645 -0.0817  0.1080  0.2734
  111loPI   C1A 1767   3.232   7.339   9.148  0.0140 -0.1870  0.0450
  111loPI   C2A 1768   3.001   7.178   8.813 -0.0267  0.0767  0.2862
  111loPI   C3A 1769   2.922   7.249   8.431  0.0976  0.2172 -0.0850
  111loPI   C4A 1770   2.553   7.291   8.117  0.2751 -0.3079 -0.1671
  111loPI   C5A 1771   2.149   7.056   7.976  0.2234  0.1411 -0.0673
  111loPI   C6A 1772   2.022   6.628   8.107 -0.0149 -0.0009  0.0093
  111loPI   C1B 1773   3.441   7.862   9.199  0.0301 -0.0659  0.1958
  111loPI   C2B 1774   3.128   8.080   9.027  0.0596  0.0871 -0.0073
  111loPI   C3B 1775   2.865   8.075   8.798 -0.1617 -0.1256 -0.1102
  111loPI   C4B 1776   2.564   8.029   8.586 -0.0467 -0.1507  0.1439
  112loPI    C1 1777   0.154   9.529  10.547  0.2690 -0.0882  0.0387
  112loPI    C2 1778   0.223   9.189  10.747 -0.0550 -0.0518  0.2203
  112loPI    C3 1779   0.108   9.518  10.945 -0.0660  0.0738  0.0084
  112loPI   PO4 1780   0.018   9.497  10.373  0.1022  0.0968  0.2724
  112loPI   GL1 1781   0.064   9.422   9.975 -0.1139  0.1432  0.2256
  112loPI   GL2 1782   0.342   9.352  10.027  0.2310 -0.0027  0.0803
  112loPI   C1A 1783   0.142   9.386   9.511  0.3720  0.0974 -0.0608
  112loPI   C2A 1784   0.119   9.215   9.144 -0.0782  0.1705  0.0568
  112loPI   C3A 1785   0.207   8.944   8.807 -0.2213  0.1018 -0.5453
  112loPI   C4A 1786   0.189   8.619   8.495 -0.1502  0.2870 -0.2173
  112loPI   C5A 1787   0.075   8.244   8.196 -0.3721  0.2516  0.0303
  112loPI   C6A 1788   0.245   7.920   7.985  0.2817 -0.2999  0.1090
  112loPI   C1B 1789   0.450   9.714   9.759 -0.0499  0.2376  0.1117
  112loPI   C2B 1790   0.502   9.677   9.368  0.3168  0.1421  0.0897
  112loPI   C3B 1791   0.419   9.617   8.950 -0.0968 -0.0047  0.1405
  112loPI   C4B 1792   0.257   9.408   8.657 -0.1328  0.2701 -0.0558
  113loPI    C1 1793  14.870   2.188  10.366  0.0193 -0.3042  0.0191
  113loPI    C2 1794  14.963   2.480  10.622 -0.0148 -0.0570 -0.2456
  113loPI    C3 1795  15.251   2.246  10.474  0.0253 -0.0950 -0.1085
  113loPI   PO4 1796  14.718   2.280  10.216 -0.1389 -0.0340  0.2600
  113loPI   GL1 1797  14.548   2.546   9.894  0.0071 -0.2992 -0.2362
  113loPI   GL2 1798  14.771   2.336   9.717  0.1950 -0.1195 -0.0751
  113loPI   C1A 1799  14.630   2.760   9.471  0.0667  0.0327  0.1018
  113loPI   C2A 1800  14.421   2.750   8.962 -0.0016 -0.0920  0.0639
  113loPI   C3A 1801  14.501   2.645   8.544 -0.3136 -0.0729 -0.1932
  113loPI   C4A 1802  14.614   2.648   8.127  0.0195  0.0301 -0.3622
  113loPI   C5A 1803  14.630   2.954   7.821 -0.0844  0.3131 -0.0963
  113loPI   C6A 1804  14.432   3.342   7.561  0.0120 -0.3670 -0.1515
  113loPI   C1B 1805  14.749   2.247   9.196 -0.0073 -0.3101  0.1731
  113loPI   C2B 1806  14.902   2.435   8.850  0.0825 -0.0716  0.0728
  113loPI   C3B 1807  15.077   2.562   8.413  0.0198 -0.0500  0.3391
  113loPI   C4B 1808  15.128   2.837   8.118  0.3415 -0.0562 -0.0198
  114loPI    C1 1809  13.299   4.119  10.154  0.2690 -0.0412 -0.0577
  114loPI    C2 1810  13.148   4.326   9.846 -0.1053 -0.2411 -0.0137
  114loPI    C3 1811  13.151   4.486  10.213  0.1520 -0.0839 -0.0824
  114loPI   PO4 1812  13.459   4.022  10.078  0.0437 -0.1169  0.1114
  114loPI   GL1 1813  13.475   3.989   9.663 -0.0753  0.0413 -0.2219
  114loPI   GL2 1814  13.376   3.701   9.473  0.0292 -0.0373  0.1322
  114loPI   C1A 1815  13.173   4.169   9.351 -0.0585  0.0745  0.0940
  114loPI   C2A 1816  12.968   4.274   8.964  0.0429  0.0698 -0.0135
  114loPI   C3A 1817  13.082   4.455   8.562 -0.1653  0.0375 -0.0518
  114loPI   C4A 1818  13.030   4.651   8.199 -0.3045  0.3515  0.0612
  114loPI   C5A 1819  13.194   4.810   7.814 -0.0133  0.0088  0.0790
  114loPI   C6A 1820  13.152   4.905   7.336 -0.1995 -0.0687 -0.0869
  114loPI   C1B 1821  13.374   3.836   9.059  0.2736  0.0188  0.0802
  114loPI   C2B 1822  13.288   3.972   8.688  0.0257 -0.0807  0.0456
  114loPI   C3B 1823  13.223   3.950   8.305 -0.0870  0.0013  0.1694
  114loPI   C4B 1824  13.234   4.207   7.904  0.1047 -0.3322 -0.0421
  115loPI    C1 1825   7.528   2.886  10.092 -0.1488 -0.2097 -0.0503
  115loPI    C2 1826   7.735   3.118  10.345 -0.1099 -0.2454 -0.0493
  115loPI    C3 1827   7.435   2.891  10.481 -0.2497 -0.0780 -0.0754
  115loPI   PO4 1828   7.756   2.739   9.969  0.0960  0.0388  0.3800
  115loPI   GL1 1829   7.816   2.683   9.547  0.2844 -0.3334  0.0435
  115loPI   GL2 1830   8.130   2.724   9.600 -0.0158  0.0555 -0.1081
  115loPI   C1A 1831   7.836   2.788   9.111  0.1474 -0.0908  0.0052
  115loPI   C2A 1832   7.920   2.715   8.742 -0.1944 -0.0355 -0.1052
  115loPI   C3A 1833   7.942   2.653   8.343  0.3390 -0.0660 -0.1102
  115loPI   C4A 1834   7.829   2.944   8.077  0.1392  0.2088 -0.1283
  115loPI   C5A 1835   7.965   3.274   7.784 -0.6515  0.3474  0.1346
  115loPI   C6A 1836   8.010   3.367   7.358 -0.1608  0.0952  0.2426
  115loPI   C1B 1837   8.295   2.609   9.223 -0.0582 -0.5278 -0.0124
  115loPI   C2B 1838   8.351   2.474   8.750 -0.0898 -0.0193  0.0728
  115loPI   C3B 1839   8.301   2.313   8.274 -0.3680 -0.1391 -0.1810
  115loPI   C4B 1840   8.485   2.268   7.846 -0.2117  0.0893  0.1353
  116loPI    C1 1841   8.116  12.555  10.616 -0.0394 -0.0631  0.0296
  116loPI    C2 1842   8.161  12.835  10.899  0.0471  0.0771 -0.1205
  116loPI    C3 1843   8.109  12.452  11.002  0.0987  0.1243  0.0842
  116loPI   PO4 1844   7.952  12.683  10.455 -0.2594  0.0419 -0.2875
  116loPI   GL1 1845   7.703  12.717  10.101  0.0531 -0.1326 -0.0395
  116loPI   GL2 1846   7.571  12.531   9.925 -0.1570 -0.0357 -0.1649
  116loPI   C1A 1847   7.664  12.966   9.684 -0.0274 -0.2418  0.0250
  116loPI   C2A 1848   7.651  12.900   9.216  0.2373 -0.2782 -0.0357
  116loPI   C3A 1849   7.791  12.876   8.735 -0.1352 -0.1575  0.1455
  116loPI   C4A 1850   8.005  12.907   8.323 -0.3525 -0.1964  0.0280
  116loPI   C5A 1851   8.042  12.875   7.787  0.0753  0.0498 -0.1511
  116loPI   C6A 1852   8.166  12.792   7.337  0.2046 -0.1579 -0.0495
  116loPI   C1B 1853   7.518  12.501   9.546 -0.0043 -0.0459 -0.3794
  116loPI   C2B 1854   7.654  12.309   9.121  0.1106  0.2138 -0.2354
  116loPI   C3B 1855   7.794  12.380   8.739 -0.0543 -0.0466  0.0807
  116loPI   C4B 1856   7.799  12.399   8.277  0.1733 -0.0623 -0.3463
  117loPI    C1 1857   0.169   5.684  10.622 -0.0952  0.1899 -0.1858
  117loPI    C2 1858   0.318   6.027  10.764  0.0648  0.0479 -0.0047
  117loPI    C3 1859   0.299   5.704  11.000  0.0586 -0.1109 -0.2194
  117loPI   PO4 1860   0.268   5.643  10.383  0.0883 -0.0524  0.1345
  117loPI   GL1 1861  -0.001   5.705  10.056  0.1072  0.2096 -0.1346
  117loPI   GL2 1862   0.032   5.414   9.955  0.0832 -0.0476 -0.0570
  117loPI   C1A 1863   0.033   6.057   9.834 -0.2201  0.0543  0.0238
  117loPI   C2A 1864  -0.003   6.051   9.372 -0.1739 -0.0541 -0.0899
  117loPI   C3A 1865  -0.376   5.846   9.252 -0.0025 -0.1348 -0.0653
  117loPI   C4A 1866  -0.669   5.732   8.977 -0.0883 -0.0647  0.3609
  117loPI   C5A 1867  -0.746   5.775   8.593  0.2372  0.3615  0.1222
  117loPI   C6A 1868  -0.740   5.791   8.120 -0.1809  0.0935  0.0979
  117loPI   C1B 1869   0.025   5.630   9.605  0.4267  0.0911  0.2995
  117loPI   C2B 1870  -0.002   5.501   9.214 -0.2071  0.1345 -0.1622
  117loPI   C3B 1871   0.039   5.500   8.857  0.1710  0.0761 -0.0882
  117loPI   C4B 1872   0.356   5.550   8.510 -0.2091 -0.1827 -0.1196
  118loPI    C1 1873   6.155   1.051  10.228 -0.0966  0.0420  0.0454
  118loPI    C2 1874   5.953   1.088  10.571 -0.1534  0.3799 -0.0205
  118loPI    C3 1875   5.768   0.954  10.243 -0.0965  0.0466  0.0794
  118loPI   PO4 1876   6.298   1.260  10.144 -0.2661  0.0370 -0.1063
  118loPI   GL1 1877   6.410   1.156   9.798 -0.3283 -0.1415 -0.0902
  118loPI   GL2 1878   6.304   1.570   9.775  0.0037 -0.0587  0.1601
  118loPI   C1A 1879   6.542   0.990   9.530 -0.2173 -0.0353  0.0551
  118loPI   C2A 1880   6.740   1.155   9.217 -0.1240 -0.3569  0.0278
  118loPI   C3A 1881   6.787   1.197   8.788 -0.0899  0.1910 -0.0206
  118loPI   C4A 1882   6.864   1.026   8.364 -0.0166 -0.0860 -0.2945
  118loPI   C5A 1883   6.724   0.947   8.026  0.2828  0.1300 -0.3189
  118loPI   C6A 1884   6.459   1.160   7.666  0.2924  0.1759 -0.0040
  118loPI   C1B 1885   6.478   1.507   9.451  0.1259  0.2859  0.2693
  118loPI   C2B 1886   6.430   1.485   9.021 -0.3751 -0.0906  0.0508
  118loPI   C3B 1887   6.353   1.325   8.609  0.1065  0.0056 -0.4008
  118loPI   C4B 1888   6.302   1.086   8.191 -0.0328  0.0262  0.0470
  119loPI    C1 1889   0.328  17.420  10.267  0.1122  0.2392 -0.2112
  119loPI    C2 1890   0.711  17.468  10.374  0.0929  0.0152 -0.0344
  119loPI    C3 1891   0.487  17.188  10.552 -0.2388  0.3420  0.0759
  119loPI   PO4 1892   0.339  17.471   9.906 -0.1117 -0.1127  0.3367
  119loPI   GL1 1893   0.385  17.236   9.657  0.0332 -0.3791 -0.1454
  119loPI   GL2 1894   0.439  17.037   9.583 -0.0075  0.1505 -0.0117
  119loPI   C1A 1895   0.553  17.436   9.326  0.0344 -0.3542  0.1171
  119loPI   C2A 1896   0.661  17.269   8.904  0.0296 -0.1422 -0.1174
  119loPI   C3A 1897   0.611  17.459   8.531 -0.0990 -0.0137  0.1501
  119loPI   C4A 1898   0.424  17.530   8.195 -0.1948  0.1350  0.1944
  119loPI   C5A 1899   0.741  17.518   7.879  0.0242  0.0259  0.1506
  119loPI   C6A 1900   1.082  17.709   7.600 -0.0598  0.2524  0.0051
  119loPI   C1B 1901   0.476  16.947   9.217 -0.0014  0.4011  0.4086
  119loPI   C2B 1902   0.412  16.837   8.860  0.0372  0.0421  0.0489
  119loPI   C3B 1903   0.360  16.989   8.387  0.0619 -0.2544 -0.2652
  119loPI   C4B 1904   0.486  17.077   7.957  0.2070 -0.0796  0.1235
  120loPI    C1 1905   8.313  13.004  10.434  0.1858  0.0277 -0.2928
  120loPI    C2 1906   8.534  12.689  10.324  0.1313 -0.0465 -0.1913
  120loPI    C3 1907   8.604  12.870  10.674  0.1171  0.0113 -0.2182
  120loPI   PO4 1908   8.355  13.258  10.255 -0.0366  0.1739  0.0580
  120loPI   GL1 1909   8.257  13.417   9.872  0.2478 -0.1370  0.0445
  120loPI   GL2 1910   8.213  13.663   9.763  0.1407 -0.0950 -0.1334
  120loPI   C1A 1911   8.198  13.132   9.637 -0.0561 -0.3986  0.2550
  120loPI   C2A 1912   8.120  13.020   9.133 -0.0630  0.0572 -0.0924
  120loPI   C3A 1913   8.226  13.033   8.772 -0.1385 -0.2089 -0.2177
  120loPI   C4A 1914   8.441  13.156   8.397 -0.0114 -0.0233  0.2720
  120loPI   C5A 1915   8.376  13.356   7.982 -0.0511 -0.0593  0.0533
  120loPI   C6A 1916   8.131  13.380   7.729  0.1206 -0.1766  0.0224
  120loPI   C1B 1917   8.283  13.640   9.267 -0.0736 -0.0523 -0.1543
  120loPI   C2B 1918   8.343  13.603   8.861 -0.1662  0.2151 -0.1309
  120loPI   C3B 1919   8.394  13.674   8.423 -0.0590 -0.2913  0.2021
  120loPI   C4B 1920   8.408  13.881   7.995 -0.2450  0.0034  0.0625
  121loPI    C1 1921   5.168  16.454  10.538  0.0190 -0.0597 -0.0078
  121loPI    C2 1922   5.461  16.531  10.801  0.0618  0.1372 -0.1112
  121loPI    C3 1923   5.237  16.201  10.840  0.2345  0.0348  0.0238
  121loPI   PO4 1924   5.265  16.473  10.279  0.1152 -0.2958 -0.0577
  121loPI   GL1 1925   5.047  16.447   9.909 -0.1048 -0.2523 -0.1333
  121loPI   GL2 1926   5.280  16.787   9.871 -0.4122 -0.0563  0.0407
  121loPI   C1A 1927   4.837  16.691   9.619 -0.0870 -0.0338  0.2265
  121loPI   C2A 1928   4.425  16.668   9.459 -0.1524  0.1227 -0.0337
  121loPI   C3A 1929   4.375  16.774   9.018 -0.1028 -0.0226  0.1008
  121loPI   C4A 1930   4.543  16.831   8.571 -0.1063 -0.2736 -0.0210
  121loPI   C5A 1931   4.534  16.921   8.140 -0.1173 -0.0039 -0.0834
  121loPI   C6A 1932   4.506  16.798   7.727 -0.1307 -0.0862  0.0965
  121loPI   C1B 1933   5.260  16.773   9.341  0.0932 -0.2799 -0.0217
  121loPI   C2B 1934   5.377  16.799   9.010  0.0107 -0.0037  0.0489
  121loPI   C3B 1935   5.392  16.822   8.579  0.1569 -0.1191  0.0089
  121loPI   C4B 1936   5.330  16.918   8.175 -0.0003 -0.2034 -0.1828
  122loPI    C1 1937  10.355  18.111  10.621  0.0284  0.0139 -0.0120
  122loPI    C2 1938  10.190  17.939  10.942  0.1506  0.1490  0.1249
  122loPI    C3 1939  10.305  18.322  10.957  0.2396  0.1303 -0.0517
  122loPI   PO4 1940  10.222  18.096  10.421  0.0840  0.1184 -0.1348
  122loPI   GL1 1941  10.255  18.204  10.054  0.0164 -0.2776  0.4805
  122loPI   GL2 1942   9.974  18.261   9.846  0.0187  0.1447  0.1274
  122loPI   C1A 1943  10.466  18.329   9.627 -0.1370  0.1581  0.2758
  122loPI   C2A 1944  10.597  18.380   9.160 -0.2668 -0.0584 -0.1834
  122loPI   C3A 1945  10.820  18.424   8.717 -0.2152 -0.1401 -0.3733
  122loPI   C4A 1946  10.737  18.336   8.260  0.0485 -0.1238 -0.1215
  122loPI   C5A 1947  10.947  18.160   7.857 -0.0860 -0.2679 -0.2638
  122loPI   C6A 1948  11.276  18.007   7.762  0.1990 -0.0081 -0.1475
  122loPI   C1B 1949  10.036  18.082   9.353 -0.0488  0.0342 -0.1757
  122loPI   C2B 1950  10.301  17.998   8.944  0.1517  0.3220 -0.0166
  122loPI   C3B 1951  10.430  18.061   8.598  0.0488  0.0407 -0.0678
  122loPI   C4B 1952  10.551  17.861   8.173  0.1232 -0.0545  0.0229
  123loPI    C1 1953  14.706  15.042  10.154  0.2193  0.1430  0.1094
  123loPI    C2 1954  14.767  15.046  10.549 -0.1032  0.0825  0.1625
  123loPI    C3 1955  14.771  14.699  10.350  0.2957  0.1351  0.0707
  123loPI   PO4 1956  14.987  15.218  10.026  0.2856 -0.1074 -0.0538
  123loPI   GL1 1957  15.195  15.157   9.553  0.1057  0.1064  0.0559
  123loPI   GL2 1958  15.427  14.993   9.654  0.2335 -0.0795  0.1989
  123loPI   C1A 1959  15.086  14.863   9.171 -0.1406 -0.0431  0.1784
  123loPI   C2A 1960  15.165  14.936   8.793 -0.1121 -0.1102 -0.0937
  123loPI   C3A 1961  15.261  14.765   8.461  0.0745 -0.0806  0.1822
  123loPI   C4A 1962  15.480  14.760   8.080 -0.2401 -0.0367  0.0861
  123loPI   C5A 1963  15.665  15.097   7.916  0.1598  0.1678 -0.4548
  123loPI   C6A 1964  15.639  15.444   7.691 -0.0823 -0.0100 -0.1276
  123loPI   C1B 1965  15.600  14.734   9.258 -0.0037 -0.1573  0.0095
  123loPI   C2B 1966  15.613  14.653   8.802 -0.0613  0.0438 -0.0548
  123loPI   C3B 1967  15.728  14.409   8.356 -0.1876  0.2854  0.0589
  123loPI   C4B 1968  15.705  14.320   8.003 -0.0171  0.0714  0.0390
  124loPI    C1 1969   2.557   8.148  10.450  0.1181  0.2143  0.2212
  124loPI    C2 1970   2.198   8.062  10.604 -0.0483  0.0586 -0.2367
  124loPI    C3 1971   2.400   8.383  10.733 -0.2629  0.0405  0.1596
  124loPI   PO4 1972   2.506   8.131  10.222  0.0084  0.1819 -0.0814
  124loPI   GL1 1973   2.313   8.187   9.842  0.0482 -0.0839  0.0565
  124loPI   GL2 1974   2.619   8.154   9.759  0.1323  0.1230  0.2155
  124loPI   C1A 1975   2.128   8.141   9.401 -0.0767  0.1731 -0.1714
  124loPI   C2A 1976   2.321   8.177   9.033  0.1033  0.1763 -0.0676
  124loPI   C3A 1977   2.172   8.349   8.749 -0.0531  0.1472  0.0475
  124loPI   C4A 1978   1.854   8.260   8.535 -0.1108  0.1184  0.2779
  124loPI   C5A 1979   1.489   8.414   8.408 -0.0014 -0.1709  0.0379
  124loPI   C6A 1980   1.274   8.718   8.260  0.2662 -0.0706 -0.2276
  124loPI   C1B 1981   2.707   8.026   9.325  0.3023  0.2793 -0.2147
  124loPI   C2B 1982   2.872   7.682   9.107 -0.1102  0.0170 -0.0323
  124loPI   C3B 1983   3.204   7.673   8.804 -0.1616  0.3377  0.3097
  124loPI   C4B 1984   3.579   7.883   8.722 -0.0415 -0.2152 -0.2839
  125loPI    C1 1985  16.711   0.616  10.358  0.0048 -0.0323  0.0236
  125loPI    C2 1986  16.543   0.279  10.222  0.2047 -0.0223 -0.2553
  125loPI    C3 1987  16.652   0.307  10.606  0.0965 -0.2381 -0.2072
  125loPI   PO4 1988  16.530   0.834  10.308  0.1694  0.0973  0.0132
  125loPI   GL1 1989  16.492   1.161  10.047  0.0403  0.0170  0.3147
  125loPI   GL2 1990  16.611   0.906   9.787  0.1756 -0.2094  0.1542
  125loPI   C1A 1991  16.325   1.283   9.647 -0.2218  0.0557 -0.2143
  125loPI   C2A 1992  16.318   1.287   9.150  0.0629  0.1877 -0.4117
  125loPI   C3A 1993  16.406   1.229   8.674  0.2765  0.0047 -0.0166
  125loPI   C4A 1994  16.365   1.175   8.247  0.2707  0.2331  0.2302
  125loPI   C5A 1995  16.424   1.156   7.788 -0.1789  0.2614 -0.1673
  125loPI   C6A 1996  16.326   0.911   7.455  0.0422  0.1278  0.4486
  125loPI   C1B 1997  16.610   0.895   9.411 -0.0428 -0.0259  0.1088
  125loPI   C2B 1998  16.639   0.821   8.972 -0.0074 -0.0382  0.0226
  125loPI   C3B 1999  16.625   0.815   8.543 -0.1704 -0.0708  0.0377
  125loPI   C4B 2000  16.803   0.900   8.043 -0.2992 -0.2252  0.0552
  126loPI    C1 2001  14.350  14.460  10.572 -0.0713 -0.1404  0.0442
  126loPI    C2 2002  14.287  14.851  10.520 -0.0816 -0.1264  0.1594
  126loPI    C3 2003  14.056  14.643  10.772 -0.0363 -0.1938  0.1458
  126loPI   PO4 2004  14.392  14.327  10.293  0.1601  0.0222  0.1472
  126loPI   GL1 2005  14.440  14.332   9.836 -0.0091 -0.0399 -0.0806
  126loPI   GL2 2006  14.798  14.333   9.913 -0.0284 -0.0514 -0.3481
  126loPI   C1A 2007  14.318  14.358   9.337 -0.1840 -0.0454 -0.2517
  126loPI   C2A 2008  13.950  14.429   9.004  0.1644  0.1697  0.1190
  126loPI   C3A 2009  13.644  14.782   8.847  0.0753  0.2968  0.1529
  126loPI   C4A 2010  13.315  14.729   8.561  0.0371 -0.1877  0.2796
  126loPI   C5A 2011  13.219  14.854   8.072 -0.0697 -0.1667 -0.0682
  126loPI   C6A 2012  12.899  14.973   7.858 -0.1334  0.0537  0.3450
  126loPI   C1B 2013  14.800  14.444   9.455 -0.3697 -0.1913  0.4090
  126loPI   C2B 2014  14.769  14.184   9.132  0.3595 -0.4136 -0.0084
  126loPI   C3B 2015  14.773  13.899   8.813 -0.5006 -0.1340 -0.0239
  126loPI   C4B 2016  14.880  14.007   8.367  0.0755  0.1649 -0.1049
  127loPI    C1 2017  17.995   5.307  10.298  0.0667  0.2766  0.0029
  127loPI    C2 2018  18.349   5.341  10.480  0.2351 -0.1996 -0.2171
  127loPI    C3 2019  18.046   5.159  10.666  0.1623  0.0319 -0.1057
  127loPI   PO4 2020  17.938   5.577  10.158  0.1469 -0.1203  0.1572
  127loPI   GL1 2021  17.973   5.747   9.761 -0.1421 -0.2307 -0.0517
  127loPI   GL2 2022  18.030   5.433   9.697  0.2926  0.0581  0.0067
  127loPI   C1A 2023  18.067   6.187   9.594 -0.3537  0.3147  0.2182
  127loPI   C2A 2024  17.907   6.482   9.430 -0.4674 -0.0983  0.1461
  127loPI   C3A 2025  17.639   6.553   9.141  0.0336  0.0225 -0.1012
  127loPI   C4A 2026  17.826   6.234   8.795 -0.1400 -0.1990 -0.0614
  127loPI   C5A 2027  18.192   5.945   8.751 -0.1892  0.1355 -0.0386
  127loPI   C6A 2028  18.664   5.989   8.872  0.1162 -0.1405  0.2676
  127loPI   C1B 2029  17.583   5.548   9.477 -0.2448  0.2645  0.2029
  127loPI   C2B 2030  17.386   5.544   9.062  0.1458  0.1882  0.1377
  127loPI   C3B 2031  17.283   5.555   8.687  0.3385 -0.0305  0.0275
  127loPI   C4B 2032  17.130   5.829   8.379  0.0280 -0.1937  0.1196
  128loPI    C1 2033   9.008  18.386  10.414 -0.3618  0.0464 -0.4074
  128loPI    C2 2034   8.972  18.035  10.602 -0.0027  0.0657 -0.2947
  128loPI    C3 2035   8.793  18.361  10.750  0.0030  0.0130 -0.1698
  128loPI   PO4 2036   9.177  18.249  10.212  0.0050 -0.0915 -0.1540
  128loPI   GL1 2037   9.369  18.122   9.802  0.2916  0.2228  0.0495
  128loPI   GL2 2038   9.078  18.268   9.629 -0.3761  0.0145  0.1539
  128loPI   C1A 2039   9.067  17.779   9.653  0.0340  0.2967  0.1714
  128loPI   C2A 2040   9.083  17.634   9.271  0.1216  0.0568 -0.0344
  128loPI   C3A 2041   9.181  17.672   8.858  0.2626  0.4395 -0.2061
  128loPI   C4A 2042   9.283  17.797   8.461 -0.0774  0.1300  0.2870
  128loPI   C5A 2043   9.597  17.812   8.103 -0.1276 -0.0377 -0.2137
  128loPI   C6A 2044   9.943  17.784   7.833 -0.0959  0.0757 -0.2500
  128loPI   C1B 2045   9.164  18.292   9.235 -0.2082  0.0350 -0.4868
  128loPI   C2B 2046   9.287  18.216   8.867  0.2130 -0.1161 -0.3384
  128loPI   C3B 2047   9.222  18.260   8.395 -0.0947  0.0365  0.3299
  128loPI   C4B 2048   9.147  18.157   7.982  0.1941  0.2556 -0.1770
  129loPI    C1 2049  15.624  13.488  10.390 -0.0245 -0.0594  0.0263
  129loPI    C2 2050  15.385  13.800  10.463  0.1621  0.0964 -0.0213
  129loPI    C3 2051  15.415  13.505  10.731  0.0318  0.1487  0.0518
  129loPI   PO4 2052  15.869  13.535  10.146 -0.2060 -0.2643 -0.1535
  129loPI   GL1 2053  16.018  13.259   9.735  0.2608 -0.1475  0.1319
  129loPI   GL2 2054  16.353  13.316   9.814  0.0695 -0.0897  0.2456
  129loPI   C1A 2055  15.743  13.479   9.433 -0.3827  0.1852 -0.0634
  129loPI   C2A 2056  15.810  13.540   9.071 -0.1805  0.2347 -0.0532
  129loPI   C3A 2057  15.917  13.736   8.686 -0.0423  0.0041 -0.1081
  129loPI   C4A 2058  16.113  13.976   8.425 -0.1406 -0.1370  0.1657
  129loPI   C5A 2059  16.360  13.915   8.125 -0.0867  0.1724 -0.1161
  129loPI   C6A 2060  16.646  13.877   7.658 -0.1071  0.1656  0.0033
  129loPI   C1B 2061  16.401  13.431   9.380 -0.2176  0.1219  0.0497
  129loPI   C2B 2062  16.383  13.478   8.910  0.0220 -0.4072  0.2584
  129loPI   C3B 2063  16.632  13.632   8.453  0.2012 -0.0842 -0.0900
  129loPI   C4B 2064  16.766  13.636   8.048 -0.1450  0.0182 -0.2215
  130loPI    C1 2065   8.695   2.564  10.112 -0.0907  0.0396 -0.0010
  130loPI    C2 2066   9.028   2.368  10.215 -0.0426  0.0404 -0.1521
  130loPI    C3 2067   8.676   2.261  10.372  0.0373  0.0818  0.0583
  130loPI   PO4 2068   8.539   2.576   9.826  0.2777  0.0332 -0.1628
  130loPI   GL1 2069   8.657   2.370   9.467 -0.1058 -0.0648 -0.2480
  130loPI   GL2 2070   8.358   2.225   9.585  0.0749 -0.3462  0.1796
  130loPI   C1A 2071   8.801   2.297   9.002  0.0824 -0.0929 -0.1274
  130loPI   C2A 2072   8.829   2.168   8.534 -0.3123  0.0968 -0.0966
  130loPI   C3A 2073   9.064   1.881   8.340 -0.0955  0.1407  0.0427
  130loPI   C4A 2074   9.098   1.727   7.970 -0.1284  0.0370  0.3111
  130loPI   C5A 2075   9.271   1.489   7.855 -0.1567 -0.0120  0.0173
  130loPI   C6A 2076   9.403   1.170   7.701 -0.2355 -0.1776  0.0662
  130loPI   C1B 2077   8.319   2.118   9.129 -0.1962  0.1787 -0.1359
  130loPI   C2B 2078   8.339   1.964   8.681  0.1567 -0.3681 -0.1120
  130loPI   C3B 2079   8.543   1.844   8.262  0.1549 -0.0344  0.1270
  130loPI   C4B 2080   8.657   1.757   7.771 -0.1058 -0.0898 -0.2942
  131loPI    C1 2081  17.112   4.006  10.421  0.0602  0.0326  0.0866
  131loPI    C2 2082  17.227   3.921  10.795  0.3417 -0.2788 -0.0657
  131loPI    C3 2083  17.257   4.295  10.656 -0.0454 -0.0983  0.3158
  131loPI   PO4 2084  17.190   3.857  10.243  0.0432  0.0067 -0.0676
  131loPI   GL1 2085  17.030   4.043   9.867  0.1265  0.3537 -0.0636
  131loPI   GL2 2086  16.969   4.312   9.729  0.2466  0.0406  0.0547
  131loPI   C1A 2087  17.047   3.658   9.566 -0.0232 -0.0989 -0.1466
  131loPI   C2A 2088  16.906   3.445   9.191  0.0853  0.1443  0.0897
  131loPI   C3A 2089  16.682   3.411   8.813 -0.0324 -0.0887  0.1561
  131loPI   C4A 2090  16.471   3.391   8.396  0.2831 -0.1527 -0.0796
  131loPI   C5A 2091  16.337   3.441   8.019 -0.2161  0.2899  0.2200
  131loPI   C6A 2092  16.113   3.582   7.737 -0.1135  0.0673 -0.1042
  131loPI   C1B 2093  16.983   4.187   9.357  0.1444 -0.0673 -0.1107
  131loPI   C2B 2094  16.971   4.287   9.002 -0.1419 -0.3204 -0.0615
  131loPI   C3B 2095  16.779   4.630   8.809 -0.2377 -0.1258  0.2336
  131loPI   C4B 2096  16.704   4.769   8.361  0.0613  0.1224 -0.2375
  132loPI    C1 2097   7.213  14.975  10.342 -0.0114  0.1130 -0.3693
  132loPI    C2 2098   7.560  15.107  10.195  0.1357  0.1635  0.0107
  132loPI    C3 2099   7.558  14.844  10.496 -0.1539  0.3176  0.1482
  132loPI   PO4 2100   7.021  15.010  10.156 -0.1752 -0.0094 -0.1976
  132loPI   GL1 2101   6.639  15.007   9.914 -0.1552  0.1078  0.1156
  132loPI   GL2 2102   6.881  14.639   9.802 -0.3279 -0.0110  0.1762
  132loPI   C1A 2103   6.396  14.915   9.619  0.0446 -0.1815 -0.3508
  132loPI   C2A 2104   6.301  14.830   9.237 -0.0152 -0.0207  0.1682
  132loPI   C3A 2105   6.222  14.661   8.826 -0.2512 -0.2080  0.3073
  132loPI   C4A 2106   6.379  14.561   8.432 -0.1785 -0.0231 -0.1940
  132loPI   C5A 2107   6.547  14.619   8.012 -0.1052  0.2477  0.2273
  132loPI   C6A 2108   6.725  15.000   7.795 -0.1279  0.4035 -0.1625
  132loPI   C1B 2109   6.978  14.850   9.503 -0.0095  0.0804 -0.0277
  132loPI   C2B 2110   6.778  14.872   9.055  0.3353 -0.0549 -0.4897
  132loPI   C3B 2111   6.774  14.695   8.717  0.0827 -0.1473 -0.1866
  132loPI   C4B 2112   6.766  14.212   8.474  0.2637 -0.2132  0.0333
  133loPI    C1 2113  16.285  16.923  10.172 -0.1886  0.2833 -0.0542
  133loPI    C2 2114  16.034  16.783  10.451  0.0953 -0.1789 -0.0209
  133loPI    C3 2115  16.368  16.974  10.560  0.0234 -0.0318 -0.0549
  133loPI   PO4 2116  16.159  16.962   9.992 -0.0014 -0.1486 -0.1638
  133loPI   GL1 2117  15.993  16.745   9.626 -0.0857 -0.0795 -0.1916
  133loPI   GL2 2118  15.758  16.494   9.633  0.3412  0.2769  0.1112
  133loPI   C1A 2119  16.078  17.010   9.371  0.1223  0.1265  0.0355
  133loPI   C2A 2120  16.155  17.304   9.136 -0.0056 -0.0110  0.2031
  133loPI   C3A 2121  16.151  17.568   8.770  0.3232  0.1525 -0.2019
  133loPI   C4A 2122  16.135  17.532   8.347  0.3018 -0.1426 -0.0425
  133loPI   C5A 2123  16.156  17.592   7.931  0.1320 -0.1641  0.1683
  133loPI   C6A 2124  15.968  17.871   7.791 -0.0508 -0.3368  0.0903
  133loPI   C1B 2125  15.582  16.833   9.351 -0.3275 -0.1214  0.1510
  133loPI   C2B 2126  15.795  17.023   8.943 -0.1585 -0.2370 -0.0461
  133loPI   C3B 2127  15.952  17.112   8.594  0.0556 -0.0785 -0.2899
  133loPI   C4B 2128  16.087  17.067   8.149  0.0925  0.1309 -0.0200
  134loPI    C1 2129   3.189   3.041  10.199  0.0128 -0.0847  0.1937
  134loPI    C2 2130   3.558   2.988  10.344  0.2022  0.0548 -0.2240
  134loPI    C3 2131   3.384   3.347  10.368  0.0727 -0.0223  0.0140
  134loPI   PO4 2132   3.246   2.951   9.908  0.0931 -0.1419  0.4180
  134loPI   GL1 2133   3.016   2.721   9.652  0.0323 -0.2150 -0.0699
  134loPI   GL2 2134   2.740   2.775   9.625  0.0944  0.0332 -0.1152
  134loPI   C1A 2135   3.140   2.862   9.198  0.1625 -0.2302  0.1036
  134loPI   C2A 2136   3.415   2.828   8.803  0.1776 -0.3625 -0.1207
  134loPI   C3A 2137   3.462   2.862   8.400  0.5329  0.1087  0.1011
  134loPI   C4A 2138   3.457   2.882   7.965  0.2073  0.0020 -0.0414
  134loPI   C5A 2139   3.038   3.003   7.715  0.1583 -0.0087 -0.2830
  134loPI   C6A 2140   2.578   2.874   7.751 -0.1022 -0.2629  0.0765
  134loPI   C1B 2141   2.614   2.919   9.248  0.0182  0.0093  0.0338
  134loPI   C2B 2142   2.819   3.156   8.854  0.2211  0.1260 -0.1592
  134loPI   C3B 2143   2.625   3.376   8.471 -0.1358 -0.1423 -0.0262
  134loPI   C4B 2144   2.572   3.354   8.043 -0.3029 -0.1320  0.1678
  135loPI    C1 2145  17.858  16.355   9.644 -0.3153 -0.0254 -0.0064
  135loPI    C2 2146  18.192  16.306   9.859 -0.1829  0.0457 -0.1931
  135loPI    C3 2147  17.990  16.651   9.879 -0.4161 -0.1053  0.1529
  135loPI   PO4 2148  17.675  16.148   9.650  0.3030  0.0103  0.2530
  135loPI   GL1 2149  17.470  15.920   9.333  0.0931  0.0887 -0.0980
  135loPI   GL2 2150  17.247  16.166   9.436 -0.2457 -0.2944  0.0249
  135loPI   C1A 2151  17.420  15.721   8.983  0.0375  0.0117  0.2669
  135loPI   C2A 2152  17.560  15.710   8.495 -0.1401 -0.2341  0.3975
  135loPI   C3A 2153  17.994  15.698   8.332  0.7123  0.1539 -0.0641
  135loPI   C4A 2154  18.203  15.940   8.128 -0.1996  0.0475  0.3145
  135loPI   C5A 2155  18.545  16.049   7.886  0.0067  0.0552  0.0547
  135loPI   C6A 2156  18.775  16.040   7.562  0.1006 -0.0718  0.1180
  135loPI   C1B 2157  17.195  16.151   9.034  0.2489  0.0612  0.1049
  135loPI   C2B 2158  17.270  16.179   8.527  0.0009 -0.1096 -0.0200
  135loPI   C3B 2159  17.264  16.385   8.196  0.2285 -0.0434  0.0778
  135loPI   C4B 2160  17.326  16.580   7.861  0.0041  0.1658  0.0005
  136loPI    C1 2161  10.282  14.478  10.309  0.0991 -0.0755  0.2120
  136loPI    C2 2162   9.889  14.413  10.347  0.0965 -0.1260  0.1039
  136loPI    C3 2163  10.131  14.361  10.661 -0.0395  0.3333  0.2940
  136loPI   PO4 2164  10.203  14.484   9.924 -0.2552 -0.2416 -0.1911
  136loPI   GL1 2165  10.038  14.617   9.590  0.2322  0.0008 -0.2769
  136loPI   GL2 2166   9.793  14.827   9.424  0.0188 -0.0249 -0.0503
  136loPI   C1A 2167  10.075  14.522   9.168 -0.0302  0.1900 -0.0895
  136loPI   C2A 2168  10.210  14.737   8.839 -0.0907  0.1657  0.3907
  136loPI   C3A 2169  10.111  15.005   8.547  0.2507  0.1585 -0.1296
  136loPI   C4A 2170  10.337  15.380   8.295 -0.3097  0.0586  0.0815
  136loPI   C5A 2171  10.623  15.693   8.151 -0.1600  0.5414  0.1735
  136loPI   C6A 2172  10.784  16.029   8.228  0.1027  0.1014 -0.0501
  136loPI   C1B 2173   9.731  14.877   8.969 -0.0271 -0.1455 -0.1163
  136loPI   C2B 2174   9.622  14.999   8.529  0.1723 -0.1791 -0.0817
  136loPI   C3B 2175   9.305  15.234   8.296  0.2895 -0.0049  0.0125
  136loPI   C4B 2176   9.055  15.225   7.921  0.2740  0.1753 -0.1631
  137loPI    C1 2177  14.208   2.465  10.316  0.1881 -0.0023 -0.0007
  137loPI    C2 2178  14.495   2.631  10.540  0.2779 -0.0863 -0.0521
  137loPI    C3 2179  14.216   2.401  10.711  0.1032  0.1824  0.0321
  137loPI   PO4 2180  14.144   2.643  10.185 -0.4083 -0.0078 -0.0201
  137loPI   GL1 2181  13.996   2.526   9.798  0.0872 -0.1435 -0.0284
  137loPI   GL2 2182  14.117   2.854   9.686 -0.0432 -0.2765 -0.2602
  137loPI   C1A 2183  14.051   2.442   9.293  0.3566 -0.0302 -0.0627
  137loPI   C2A 2184  13.858   2.551   8.885 -0.1106  0.0604  0.1709
  137loPI   C3A 2185  13.892   2.537   8.478 -0.4091 -0.4893 -0.5445
  137loPI   C4A 2186  14.128   2.780   8.138 -0.0602 -0.0788 -0.0210
  137loPI   C5A 2187  14.240   3.153   8.048 -0.1901 -0.5233  0.3662
  137loPI   C6A 2188  14.402   3.558   8.080  0.0108 -0.1180  0.2706
  137loPI   C1B 2189  14.043   3.032   9.328  0.1709  0.0944  0.1963
  137loPI   C2B 2190  14.029   2.993   8.786 -0.1093 -0.1323  0.3530
  137loPI   C3B 2191  13.943   3.238   8.464 -0.1094 -0.2520 -0.1343
  137loPI   C4B 2192  13.673   3.278   7.965 -0.0763 -0.0852 -0.0094
  138loPI    C1 2193   4.094  14.736  10.226  0.3188  0.1655 -0.1419
  138loPI    C2 2194   3.725  14.798  10.084  0.2205  0.0435  0.0571
  138loPI    C3 2195   3.973  15.107  10.138  0.1161  0.1363  0.0082
  138loPI   PO4 2196   4.180  14.528  10.071  0.1251 -0.2617 -0.1707
  138loPI   GL1 2197   4.407  14.381   9.784 -0.1391 -0.2427 -0.0613
  138loPI   GL2 2198   4.266  14.176   9.657  0.2896 -0.0738 -0.0238
  138loPI   C1A 2199   4.675  14.480   9.522 -0.2945  0.2638 -0.0308
  138loPI   C2A 2200   4.845  14.493   9.172 -0.1403 -0.0495 -0.0326
  138loPI   C3A 2201   4.889  14.332   8.898 -0.0880 -0.3348  0.0340
  138loPI   C4A 2202   4.871  14.332   8.556 -0.2617 -0.1912 -0.2253
  138loPI   C5A 2203   5.185  14.376   8.257  0.2058  0.0677  0.3153
  138loPI   C6A 2204   5.254  14.307   7.811  0.3992 -0.2188 -0.1558
  138loPI   C1B 2205   4.405  14.136   9.223 -0.1470 -0.2236 -0.1460
  138loPI   C2B 2206   4.469  14.066   8.820  0.0260 -0.1239  0.0278
  138loPI   C3B 2207   4.488  14.077   8.348 -0.1389  0.5928  0.3410
  138loPI   C4B 2208   4.368  13.923   7.871 -0.0497  0.0167  0.0168
  139loPI    C1 2209  18.135   3.432  10.290  0.0753  0.0665  0.0438
  139loPI    C2 2210  18.296   3.322  10.639  0.0338  0.0024  0.0428
  139loPI    C3 2211  18.432   3.164  10.298  0.0159  0.0002  0.0366
  139loPI   PO4 2212  18.050   3.726  10.350  0.2757 -0.2347 -0.2009
  139loPI   GL1 2213  17.948   3.945  10.019  0.1921 -0.0393  0.1133
  139loPI   GL2 2214  17.605   4.071   9.914  0.2726  0.1905  0.2223
  139loPI   C1A 2215  18.100   3.907   9.563 -0.2096 -0.1397 -0.0158
  139loPI   C2A 2216  17.915   4.017   9.271 -0.0927  0.0808  0.1197
  139loPI   C3A 2217  17.872   4.080   8.838  0.2314 -0.1864  0.0625
  139loPI   C4A 2218  17.878   3.998   8.379 -0.1562  0.2933 -0.0493
  139loPI   C5A 2219  17.878   3.813   7.943  0.1494  0.1408  0.2072
  139loPI   C6A 2220  17.840   4.114   7.570  0.2686  0.1709 -0.2007
  139loPI   C1B 2221  17.512   3.872   9.496  0.0011  0.1627  0.1756
  139loPI   C2B 2222  17.279   3.824   9.111  0.0199 -0.0477 -0.1907
  139loPI   C3B 2223  17.148   3.567   8.749  0.1636 -0.0472  0.0661
  139loPI   C4B 2224  16.961   3.417   8.426  0.2140  0.2050  0.1377
  140loPI    C1 2225  10.976  13.189  10.549  0.1499 -0.1322  0.0552
  140loPI    C2 2226  11.235  13.060  10.825  0.2200  0.0123  0.0580
  140loPI    C3 2227  11.093  13.434  10.842  0.1529 -0.0077 -0.0487
  140loPI   PO4 2228  11.126  13.062  10.334 -0.2299  0.1709  0.2406
  140loPI   GL1 2229  11.080  13.030   9.840 -0.0440  0.2784  0.0545
  140loPI   GL2 2230  11.030  13.277   9.601 -0.1051  0.0156 -0.1591
  140loPI   C1A 2231  11.116  12.730   9.560 -0.0177 -0.5304  0.1410
  140loPI   C2A 2232  11.155  12.573   9.097  0.1723 -0.1127  0.3797
  140loPI   C3A 2233  11.047  12.558   8.632 -0.2376  0.2992  0.2393
  140loPI   C4A 2234  10.878  12.720   8.271 -0.1005 -0.2711 -0.1254
  140loPI   C5A 2235  10.695  13.053   8.096 -0.3120 -0.2354 -0.1864
  140loPI   C6A 2236  10.489  13.469   7.841 -0.1362 -0.0423 -0.2004
  140loPI   C1B 2237  11.072  13.120   9.225 -0.2376  0.1090  0.1612
  140loPI   C2B 2238  10.941  13.046   8.799  0.0108  0.2591  0.2980
  140loPI   C3B 2239  11.200  13.104   8.402 -0.1357  0.0463  0.1045
  140loPI   C4B 2240  11.285  13.080   8.034  0.0293  0.2125  0.1519
  141loPI    C1 2241   6.487   0.620  10.148  0.0262 -0.1731  0.1515
  141loPI    C2 2242   6.823   0.573   9.936 -0.2345 -0.3282 -0.2397
  141loPI    C3 2243   6.733   0.930  10.092  0.1882 -0.3247  0.0125
  141loPI   PO4 2244   6.325   0.496   9.997  0.1830 -0.1546 -0.0034
  141loPI   GL1 2245   6.475   0.400   9.580  0.0135  0.4243 -0.0383
  141loPI   GL2 2246   6.419   0.085   9.505  0.2235  0.2726  0.2029
  141loPI   C1A 2247   6.678   0.370   9.171  0.3513 -0.1886  0.3175
  141loPI   C2A 2248   6.561   0.202   8.741  0.0137 -0.0312 -0.1582
  141loPI   C3A 2249   6.495   0.140   8.330  0.2023 -0.1375 -0.0644
  141loPI   C4A 2250   6.320   0.149   7.985  0.0331  0.0010  0.2115
  141loPI   C5A 2251   5.965   0.178   7.876 -0.2200  0.0337  0.3685
  141loPI   C6A 2252   5.601   0.418   7.740  0.3946  0.0345 -0.4626
  141loPI   C1B 2253   6.445  -0.186   9.113 -0.0175  0.0562 -0.2956
  141loPI   C2B 2254   6.460  -0.314   8.687 -0.2533  0.0389 -0.0188
  141loPI   C3B 2255   6.570  -0.416   8.257  0.0015  0.2426 -0.0143
  141loPI   C4B 2256   6.396  -0.382   7.900 -0.0689 -0.0761 -0.0720
  142loPI    C1 2257  15.709   2.613  10.591 -0.0432  0.1138 -0.0474
  142loPI    C2 2258  15.818   2.987  10.681 -0.2300  0.1433  0.0618
  142loPI    C3 2259  15.990   2.678  10.868 -0.0507  0.1718 -0.0536
  142loPI   PO4 2260  15.469   2.713  10.440  0.0977  0.0122 -0.0980
  142loPI   GL1 2261  15.476   2.897  10.035 -0.0526  0.2164  0.3014
  142loPI   GL2 2262  15.316   3.182  10.019  0.5182 -0.2361 -0.3510
  142loPI   C1A 2263  15.483   2.657   9.755 -0.2060  0.1693 -0.1948
  142loPI   C2A 2264  15.673   2.619   9.360  0.1317 -0.1343  0.0682
  142loPI   C3A 2265  15.894   2.647   8.882 -0.0556 -0.0611  0.0345
  142loPI   C4A 2266  16.175   2.585   8.633  0.1174  0.1851 -0.0335
  142loPI   C5A 2267  16.280   2.480   8.219 -0.0196  0.0271  0.1656
  142loPI   C6A 2268  16.381   2.094   8.032  0.0039  0.1516  0.0100
  142loPI   C1B 2269  15.523   3.143   9.578 -0.0668  0.4281 -0.2473
  142loPI   C2B 2270  15.708   3.071   9.166 -0.2759 -0.0728 -0.0263
  142loPI   C3B 2271  15.638   3.282   8.790  0.0928 -0.1375  0.0083
  142loPI   C4B 2272  15.809   3.466   8.361  0.3389  0.0430 -0.1036
  143loPI    C1 2273   6.759   0.110  10.245  0.0699 -0.0523  0.1385
  143loPI    C2 2274   6.593   0.318  10.544 -0.0467  0.0483  0.0055
  143loPI    C3 2275   6.949   0.428  10.397 -0.0556  0.0853  0.0113
  143loPI   PO4 2276   6.632   0.091   9.957 -0.2376  0.2130 -0.1408
  143loPI   GL1 2277   6.913  -0.088   9.682  0.1077  0.0750 -0.2847
  143loPI   GL2 2278   7.085  -0.062   9.889 -0.1432  0.2939  0.3019
  143loPI   C1A 2279   6.935  -0.033   9.262  0.0383 -0.4005 -0.0989
  143loPI   C2A 2280   6.950   0.019   8.926 -0.0827 -0.0822 -0.2270
  143loPI   C3A 2281   6.955   0.005   8.566 -0.0030 -0.0272  0.3347
  143loPI   C4A 2282   7.099  -0.165   8.244  0.0106  0.1471  0.2189
  143loPI   C5A 2283   7.455  -0.177   8.029  0.0034  0.0975  0.1361
  143loPI   C6A 2284   7.854  -0.144   7.708 -0.2763 -0.2425 -0.0929
  143loPI   C1B 2285   7.154   0.327   9.646 -0.2632  0.1478 -0.0533
  143loPI   C2B 2286   7.348   0.310   9.215 -0.2584  0.0701 -0.0946
  143loPI   C3B 2287   7.349   0.314   8.776  0.0410  0.2116  0.1724
  143loPI   C4B 2288   7.426   0.200   8.406  0.1854  0.0618  0.0034
  144loPI    C1 2289  18.356   4.528  10.413 -0.1872  0.1602  0.0787
  144loPI    C2 2290  18.299   4.312  10.081  0.0844  0.0299  0.1139
  144loPI    C3 2291  18.101   4.220  10.416 -0.0974  0.0846  0.0230
  144loPI   PO4 2292  18.244   4.816  10.249  0.2665 -0.0883  0.1800
  144loPI   GL1 2293  17.988   4.888   9.886  0.0462  0.1584 -0.0426
  144loPI   GL2 2294  17.674   5.052   9.841  0.1554 -0.0995 -0.1531
  144loPI   C1A 2295  18.010   4.971   9.392 -0.0128 -0.3269  0.1423
  144loPI   C2A 2296  17.957   5.306   9.171 -0.0456  0.1004  0.2979
  144loPI   C3A 2297  18.063   5.407   8.685  0.1520 -0.1048  0.4175
  144loPI   C4A 2298  18.276   5.643   8.366 -0.0301  0.0477 -0.1428
  144loPI   C5A 2299  18.543   5.582   8.014  0.0070 -0.1164 -0.4517
  144loPI   C6A 2300  18.783   5.287   7.944 -0.0295 -0.2541 -0.1329
  144loPI   C1B 2301  17.472   5.067   9.376 -0.1967  0.1096 -0.1147
  144loPI   C2B 2302  17.612   5.022   8.976  0.1661 -0.1735 -0.0284
  144loPI   C3B 2303  17.556   5.092   8.613  0.0460 -0.0725  0.1172
  144loPI   C4B 2304  17.597   5.362   8.289 -0.1505 -0.0188 -0.1253
  145loPI    C1 2305  17.521   9.915  10.487 -0.0446 -0.1347 -0.2953
  145loPI    C2 2306  17.166   9.934  10.303 -0.1991 -0.0517  0.0060
  145loPI    C3 2307  17.184   9.882  10.700  0.1234  0.0821  0.0121
  145loPI   PO4 2308  17.670   9.824  10.286 -0.0296 -0.1980  0.1528
  145loPI   GL1 2309  17.961   9.995   9.990  0.0403  0.1349 -0.2923
  145loPI   GL2 2310  18.188   9.915  10.139  0.1122  0.3775  0.2109
  145loPI   C1A 2311  18.037  10.060   9.536 -0.1175 -0.0832  0.2412
  145loPI   C2A 2312  17.938   9.899   9.085 -0.0779 -0.1364  0.1634
  145loPI   C3A 2313  17.963   9.835   8.643 -0.0176 -0.0334  0.0393
  145loPI   C4A 2314  17.651   9.852   8.436 -0.1218  0.1193 -0.1457
  145loPI   C5A 2315  17.429   9.766   7.969 -0.1105  0.2254 -0.3701
  145loPI   C6A 2316  17.022   9.965   7.854  0.1302 -0.0663  0.0447
  145loPI   C1B 2317  18.390   9.829   9.768  0.0340 -0.1772  0.1914
  145loPI   C2B 2318  18.502   9.853   9.315  0.1727  0.1209  0.1982
  145loPI   C3B 2319  18.428   9.847   8.902 -0.0694  0.0994  0.1038
  145loPI   C4B 2320  18.387   9.755   8.499 -0.2161 -0.0534  0.2290
  146loPI    C1 2321  14.833  10.097  10.357 -0.0055  0.1408  0.0757
  146loPI    C2 2322  15.057  10.337  10.128  0.0428  0.1544  0.1368
  146loPI    C3 2323  15.136  10.303  10.519  0.2226 -0.1870  0.0744
  146loPI   PO4 2324  14.882   9.885  10.208  0.2278  0.2298 -0.2557
  146loPI   GL1 2325  14.941   9.921   9.785  0.0665  0.1897  0.2096
  146loPI   GL2 2326  15.361   9.888   9.715 -0.1782  0.1507 -0.2853
  146loPI   C1A 2327  14.990  10.184   9.362 -0.0449 -0.0347  0.1780
  146loPI   C2A 2328  14.834  10.100   8.945  0.2080  0.0130 -0.0405
  146loPI   C3A 2329  14.604  10.035   8.593 -0.0879  0.0590 -0.1141
  146loPI   C4A 2330  14.141  10.045   8.453 -0.0462 -0.1318 -0.0924
  146loPI   C5A 2331  13.849  10.156   8.080 -0.2125 -0.3253 -0.0381
  146loPI   C6A 2332  13.486  10.283   8.050  0.0458  0.3192 -0.0366
  146loPI   C1B 2333  15.331   9.893   9.172 -0.1183  0.2578 -0.3343
  146loPI   C2B 2334  15.232   9.770   8.734  0.3751 -0.2111 -0.0221
  146loPI   C3B 2335  14.997   9.762   8.371 -0.1113 -0.2817 -0.1088
  146loPI   C4B 2336  14.958   9.700   7.908 -0.2678  0.0089  0.0512
  147loPI    C1 2337  12.136   7.359  10.432 -0.0602 -0.1354 -0.2847
  147loPI    C2 2338  11.949   7.086  10.208 -0.2823 -0.1517 -0.0830
  147loPI    C3 2339  11.810   7.176  10.572  0.0799 -0.1326  0.0548
  147loPI   PO4 2340  12.372   7.339  10.291 -0.0080 -0.2489  0.1991
  147loPI   GL1 2341  12.458   7.373   9.916  0.0480  0.2154  0.0490
  147loPI   GL2 2342  12.661   7.284   9.652 -0.1429 -0.0108 -0.3169
  147loPI   C1A 2343  12.274   6.951   9.804  0.0569  0.1303 -0.0625
  147loPI   C2A 2344  12.284   6.847   9.461  0.3866  0.1101 -0.2323
  147loPI   C3A 2345  12.396   6.922   8.972 -0.0751  0.3353 -0.0339
  147loPI   C4A 2346  12.287   6.970   8.528 -0.0615  0.1634 -0.2528
  147loPI   C5A 2347  12.301   7.265   8.250  0.0783 -0.3885 -0.1970
  147loPI   C6A 2348  12.060   7.520   7.891 -0.1872  0.1250  0.0712
  147loPI   C1B 2349  12.650   7.217   9.215 -0.1548 -0.0218 -0.3607
  147loPI   C2B 2350  12.740   7.220   8.811 -0.1712  0.0448  0.4201
  147loPI   C3B 2351  12.756   7.064   8.358 -0.2270 -0.0531  0.0937
  147loPI   C4B 2352  12.761   6.861   7.890 -0.2167  0.0923 -0.3307
  148loPI    C1 2353   1.639   0.529   9.992 -0.0520 -0.1393 -0.1918
  148loPI    C2 2354   1.875   0.568  10.313  0.0463 -0.0143 -0.2788
  148loPI    C3 2355   1.633   0.251  10.280 -0.0777  0.0493 -0.0079
  148loPI   PO4 2356   1.859   0.611   9.805 -0.0458 -0.0247  0.0071
  148loPI   GL1 2357   2.001   0.460   9.516  0.1871  0.1279  0.3795
  148loPI   GL2 2358   2.365   0.378   9.603 -0.2496 -0.0394  0.2671
  148loPI   C1A 2359   2.047   0.440   9.080  0.0232 -0.0499 -0.0878
  148loPI   C2A 2360   1.982   0.529   8.572 -0.2707  0.0068  0.0518
  148loPI   C3A 2361   2.003   0.639   8.116  0.0744  0.3871  0.1360
  148loPI   C4A 2362   2.333   0.721   7.815  0.1025  0.1738 -0.1565
  148loPI   C5A 2363   2.687   0.934   7.690  0.0033 -0.2573  0.0499
  148loPI   C6A 2364   3.114   1.048   7.880 -0.0585  0.2552 -0.0087
  148loPI   C1B 2365   2.558   0.459   9.138  0.1035  0.1152 -0.1418
  148loPI   C2B 2366   2.464   0.511   8.787  0.0222 -0.0884  0.1976
  148loPI   C3B 2367   2.506   0.565   8.278  0.1417 -0.0852 -0.0366
  148loPI   C4B 2368   2.798   0.514   7.927 -0.0258 -0.2875 -0.1371
  149loPI    C1 2369   8.123  17.470  10.403 -0.1716  0.0040 -0.0348
  149loPI    C2 2370   7.858  17.639  10.651 -0.1077 -0.1951  0.1735
  149loPI    C3 2371   7.935  17.248  10.677  0.1241 -0.1606  0.0393
  149loPI   PO4 2372   8.274  17.660  10.299 -0.0813  0.1520  0.0088
  149loPI   GL1 2373   8.221  17.747   9.864  0.0331  0.1478  0.0722
  149loPI   GL2 2374   7.986  17.511   9.913  0.0826 -0.0921  0.1084
  149loPI   C1A 2375   8.205  17.699   9.395 -0.1123  0.0591  0.0901
  149loPI   C2A 2376   8.227  17.735   9.061  0.2637 -0.4877 -0.1422
  149loPI   C3A 2377   8.355  17.709   8.615  0.2394 -0.0596 -0.1711
  149loPI   C4A 2378   8.436  17.740   8.204  0.0550 -0.1066  0.0145
  149loPI   C5A 2379   8.117  17.971   7.930  0.0314  0.0341 -0.2176
  149loPI   C6A 2380   8.037  17.922   7.538 -0.0208  0.1119 -0.2365
  149loPI   C1B 2381   7.648  17.631   9.545  0.1560 -0.2070  0.1561
  149loPI   C2B 2382   7.738  17.747   9.140  0.0810  0.1522 -0.0848
  149loPI   C3B 2383   7.836  17.622   8.709 -0.2100  0.1159  0.0705
  149loPI   C4B 2384   7.917  17.599   8.301 -0.0511  0.3194 -0.0757
  150loPI    C1 2385   1.819  18.317  10.467 -0.0510 -0.0309  0.1291
  150loPI    C2 2386   1.972  18.623  10.674 -0.2036  0.1556 -0.0299
  150loPI    C3 2387   1.623  18.463  10.784  0.0258 -0.1717  0.2428
  150loPI   PO4 2388   1.895  18.288  10.232 -0.1996 -0.4317 -0.2243
  150loPI   GL1 2389   2.181  18.135   9.903 -0.0531  0.1111  0.1233
  150loPI   GL2 2390   2.400  18.224   9.652 -0.0257  0.2497  0.1475
  150loPI   C1A 2391   1.960  18.353   9.526 -0.0618  0.0335 -0.2510
  150loPI   C2A 2392   1.778  18.405   9.194  0.0779  0.2471 -0.0297
  150loPI   C3A 2393   1.869  18.518   8.729 -0.1286  0.0062 -0.1936
  150loPI   C4A 2394   1.777  18.652   8.225  0.0465  0.1126 -0.0464
  150loPI   C5A 2395   1.755  18.700   7.771 -0.2546  0.0467 -0.0700
  150loPI   C6A 2396   1.894  19.019   7.451  0.0938 -0.0312 -0.3889
  150loPI   C1B 2397   2.344  18.455   9.233 -0.0396  0.1102  0.0302
  150loPI   C2B 2398   2.376  18.508   8.842  0.0167 -0.0307 -0.1008
  150loPI   C3B 2399   2.332  18.616   8.430 -0.1136  0.0889 -0.0292
  150loPI   C4B 2400   2.229  18.626   7.925 -0.6437  0.0937  0.2316
  151loPI    C1 2401  16.354   5.223  10.567  0.3384  0.0557  0.0524
  151loPI    C2 2402  16.257   5.597  10.668  0.0157  0.0495 -0.2183
  151loPI    C3 2403  16.181   5.296  10.920 -0.0722  0.1227 -0.1566
  151loPI   PO4 2404  16.604   5.312  10.429  0.0773  0.0298  0.1836
  151loPI   GL1 2405  16.690   5.485  10.013  0.2741  0.0972  0.1168
  151loPI   GL2 2406  16.951   5.730   9.921  0.2094  0.0302  0.1880
  151loPI   C1A 2407  16.661   5.277   9.646  0.1941  0.0869 -0.0005
  151loPI   C2A 2408  16.661   4.837   9.623  0.1910 -0.0359 -0.1673
  151loPI   C3A 2409  16.555   4.468   9.333 -0.5240 -0.0026  0.0793
  151loPI   C4A 2410  16.401   4.216   9.008 -0.0788  0.0744  0.0014
  151loPI   C5A 2411  16.509   4.259   8.593  0.0457 -0.1706  0.0900
  151loPI   C6A 2412  16.557   4.209   8.209 -0.2486 -0.1459  0.0713
  151loPI   C1B 2413  17.049   5.814   9.434 -0.0535  0.0425  0.0424
  151loPI   C2B 2414  16.927   5.739   9.083  0.1627  0.0563 -0.0213
  151loPI   C3B 2415  16.784   5.498   8.775 -0.0440  0.0965  0.1116
  151loPI   C4B 2416  16.589   5.167   8.633  0.1531  0.1168  0.1266
  152loPI    C1 2417  13.292  11.177  10.454  0.1684 -0.0657 -0.0806
  152loPI    C2 2418  13.534  11.442  10.630 -0.0148  0.0359  0.0204
  152loPI    C3 2419  13.451  11.096  10.812  0.0526  0.0021 -0.0131
  152loPI   PO4 2420  13.104  11.442  10.281  0.3794  0.1124 -0.1309
  152loPI   GL1 2421  12.826  11.408   9.957 -0.0569 -0.1892 -0.0050
  152loPI   GL2 2422  12.619  11.166   9.790  0.0038  0.0115 -0.2133
  152loPI   C1A 2423  12.747  11.651   9.663 -0.0487 -0.0771 -0.2196
  152loPI   C2A 2424  12.872  11.676   9.282  0.0256 -0.0492  0.2332
  152loPI   C3A 2425  12.909  11.760   8.808 -0.3995 -0.4912  0.0465
  152loPI   C4A 2426  13.064  11.853   8.380  0.0838  0.1142  0.1329
  152loPI   C5A 2427  13.267  12.039   8.019 -0.0927  0.1662  0.0911
  152loPI   C6A 2428  13.650  12.005   7.794  0.0240 -0.2027 -0.1323
  152loPI   C1B 2429  12.644  11.244   9.335 -0.0748 -0.2483  0.5719
  152loPI   C2B 2430  12.674  11.338   8.909 -0.1259 -0.0477 -0.1121
  152loPI   C3B 2431  12.680  11.343   8.472  0.2310 -0.0199 -0.0111
  152loPI   C4B 2432  12.599  11.583   8.107  0.0424  0.2189  0.1587
  153loPI    C1 2433  10.102  11.892  10.096 -0.1749 -0.3062  0.0677
  153loPI    C2 2434  10.119  12.098  10.439  0.2290 -0.0746 -0.0839
  153loPI    C3 2435   9.764  12.002  10.280  0.0381  0.0480  0.2583
  153loPI   PO4 2436  10.369  12.015   9.985 -0.0534  0.1085 -0.1995
  153loPI   GL1 2437  10.441  12.395   9.830 -0.0957  0.1101 -0.1883
  153loPI   GL2 2438  10.215  12.583   9.625  0.2386  0.0634 -0.1152
  153loPI   C1A 2439  10.715  12.472   9.478 -0.0486 -0.1036  0.1448
  153loPI   C2A 2440  10.799  12.235   9.151  0.0812 -0.0126  0.1966
  153loPI   C3A 2441  10.981  12.027   8.719  0.1053 -0.2984 -0.1077
  153loPI   C4A 2442  11.072  12.152   8.270 -0.1363 -0.2444  0.3215
  153loPI   C5A 2443  10.957  11.985   7.928  0.2845 -0.0784 -0.1787
  153loPI   C6A 2444  10.855  11.989   7.554 -0.1897 -0.0714  0.0072
  153loPI   C1B 2445  10.299  12.486   9.183 -0.0083  0.0186 -0.0990
  153loPI   C2B 2446  10.078  12.481   8.814  0.0299  0.0653  0.3089
  153loPI   C3B 2447  10.114  12.343   8.358  0.1168  0.1816 -0.2291
  153loPI   C4B 2448  10.160  12.200   7.919  0.2526  0.2354 -0.0111
  154loPI    C1 2449  16.551  16.029  10.115  0.0106 -0.1436  0.1707
  154loPI    C2 2450  16.161  15.940  10.132 -0.0332 -0.0320 -0.1814
  154loPI    C3 2451  16.406  15.821  10.425 -0.3421 -0.0421  0.0781
  154loPI   PO4 2452  16.620  16.049   9.951 -0.1846 -0.3387 -0.1032
  154loPI   GL1 2453  16.520  16.241   9.583 -0.1171 -0.2073 -0.2136
  154loPI   GL2 2454  16.238  16.329   9.463 -0.0978  0.0473 -0.0391
  154loPI   C1A 2455  16.642  16.287   9.094 -0.1438  0.0050 -0.0100
  154loPI   C2A 2456  16.597  16.440   8.716 -0.0052 -0.1867  0.0020
  154loPI   C3A 2457  16.307  16.594   8.353  0.2316  0.0219 -0.1255
  154loPI   C4A 2458  15.997  16.396   8.005  0.0110 -0.1911  0.2207
  154loPI   C5A 2459  15.844  16.363   7.577  0.1056  0.0580  0.0908
  154loPI   C6A 2460  15.872  16.658   7.251  0.0056 -0.0850  0.2103
  154loPI   C1B 2461  15.994  16.405   9.178  0.2123 -0.0674 -0.0516
  154loPI   C2B 2462  16.014  16.568   8.764 -0.1639 -0.4491 -0.0510
  154loPI   C3B 2463  15.747  16.586   8.407 -0.3324 -0.0640  0.2176
  154loPI   C4B 2464  15.331  16.437   8.234  0.1918 -0.0533  0.3981
  155loPI    C1 2465  15.591  12.329  10.431  0.0058  0.2549  0.0174
  155loPI    C2 2466  15.208  12.416  10.506 -0.0172 -0.0560  0.2843
  155loPI    C3 2467  15.319  12.036  10.448  0.1831  0.0722 -0.2209
  155loPI   PO4 2468  15.657  12.508  10.344 -0.1682 -0.0047  0.1985
  155loPI   GL1 2469  15.963  12.515  10.034  0.1099 -0.1582 -0.1724
  155loPI   GL2 2470  15.741  12.692   9.893 -0.4647  0.1702  0.0528
  155loPI   C1A 2471  16.001  12.434   9.555 -0.2670  0.2768  0.1839
  155loPI   C2A 2472  15.899  12.496   9.140  0.1215 -0.0901 -0.0746
  155loPI   C3A 2473  15.846  12.658   8.844  0.0566  0.2568  0.0481
  155loPI   C4A 2474  15.928  12.735   8.407  0.2727  0.0726 -0.2537
  155loPI   C5A 2475  16.150  12.981   8.125  0.0765 -0.0101 -0.0674
  155loPI   C6A 2476  16.510  13.189   8.149  0.0321 -0.3522  0.0852
  155loPI   C1B 2477  15.772  12.913   9.581  0.0936  0.0006  0.2583
  155loPI   C2B 2478  15.941  13.025   9.187  0.1298  0.2042 -0.0695
  155loPI   C3B 2479  16.080  13.132   8.681  0.0220 -0.1841  0.0195
  155loPI   C4B 2480  16.143  13.461   8.275  0.1168  0.1320 -0.1851
  156loPI    C1 2481   4.402  13.992  10.645 -0.2197  0.3085 -0.0137
  156loPI    C2 2482   4.164  13.845  10.931 -0.0680 -0.0462 -0.0648
  156loPI    C3 2483   4.314  14.214  10.966 -0.5065  0.1286  0.0358
  156loPI   PO4 2484   4.523  13.811  10.442  0.1477 -0.3676 -0.1965
  156loPI   GL1 2485   4.466  13.884   9.972 -0.3356  0.0120 -0.2717
  156loPI   GL2 2486   4.249  13.656   9.914 -0.1167  0.0625  0.1021
  156loPI   C1A 2487   4.715  13.934   9.549  0.2287  0.1909 -0.1289
  156loPI   C2A 2488   4.860  13.909   9.162  0.2300 -0.0334 -0.1184
  156loPI   C3A 2489   4.890  13.817   8.611  0.1088 -0.0389 -0.3708
  156loPI   C4A 2490   4.858  13.766   8.258  0.0139  0.4328 -0.0102
  156loPI   C5A 2491   4.895  14.022   8.005  0.0369  0.2406  0.0748
  156loPI   C6A 2492   4.757  14.392   7.939 -0.1343 -0.0694  0.0547
  156loPI   C1B 2493   4.345  13.640   9.493  0.2849 -0.0688 -0.0355
  156loPI   C2B 2494   4.366  13.619   9.081 -0.1427 -0.2220 -0.0312
  156loPI   C3B 2495   4.408  13.628   8.641 -0.0566  0.0699  0.2128
  156loPI   C4B 2496   4.315  13.518   8.220  0.1605 -0.1694  0.1615
  157loPI    C1 2497  12.360   0.607  10.314 -0.1427  0.2128  0.1186
  157loPI    C2 2498  12.615   0.494  10.601 -0.0426 -0.0649 -0.0757
  157loPI    C3 2499  12.298   0.720  10.693  0.1156  0.0445  0.2137
  157loPI   PO4 2500  12.362   0.362  10.206  0.3531  0.2731 -0.1428
  157loPI   GL1 2501  12.261   0.138   9.887 -0.2880 -0.0620 -0.3706
  157loPI   GL2 2502  12.616   0.204   9.812 -0.1345 -0.1115  0.1792
  157loPI   C1A 2503  12.310   0.061   9.416 -0.1601  0.0127 -0.0757
  157loPI   C2A 2504  12.375  -0.008   8.963  0.1569  0.5721 -0.2775
  157loPI   C3A 2505  12.546   0.197   8.643  0.0152  0.0673 -0.3749
  157loPI   C4A 2506  12.553   0.114   8.145 -0.3026  0.0826  0.1476
  157loPI   C5A 2507  12.428  -0.247   8.024 -0.0976 -0.3377  0.1663
  157loPI   C6A 2508  12.249  -0.439   7.662  0.3464  0.0434  0.0164
  157loPI   C1B 2509  13.023   0.356   9.655  0.0664 -0.0277 -0.0968
  157loPI   C2B 2510  13.068   0.629   9.271  0.3030  0.3111  0.0741
  157loPI   C3B 2511  13.316   0.846   8.829 -0.2396 -0.2190  0.0195
  157loPI   C4B 2512  13.518   0.866   8.457 -0.1041 -0.0084  0.1673
  158loPI    C1 2513   1.071   1.157   9.800 -0.1644 -0.2021 -0.1614
  158loPI    C2 2514   1.174   1.131  10.186  0.2271  0.0771 -0.2415
  158loPI    C3 2515   1.180   0.805   9.954 -0.1536 -0.1212  0.0186
  158loPI   PO4 2516   1.214   1.371   9.720  0.0163  0.0723  0.1598
  158loPI   GL1 2517   1.393   1.330   9.351 -0.0505  0.0984 -0.1229
  158loPI   GL2 2518   1.252   1.068   9.290 -0.1142 -0.1013  0.0898
  158loPI   C1A 2519   1.339   1.313   8.852  0.2562  0.1740  0.1086
  158loPI   C2A 2520   1.212   1.310   8.414 -0.1179 -0.0464  0.1783
  158loPI   C3A 2521   1.081   1.495   8.021 -0.4334  0.2097 -0.0671
  158loPI   C4A 2522   0.702   1.645   7.849 -0.0136 -0.2570 -0.0791
  158loPI   C5A 2523   0.298   1.535   8.009 -0.4975  0.0843  0.0567
  158loPI   C6A 2524  -0.002   1.726   8.057  0.2135  0.0530 -0.3056
  158loPI   C1B 2525   1.209   0.848   8.996  0.1951 -0.1648 -0.0476
  158loPI   C2B 2526   1.142   0.889   8.600  0.2739 -0.1670 -0.3253
  158loPI   C3B 2527   1.098   0.905   8.187  0.0919  0.0820 -0.1246
  158loPI   C4B 2528   1.065   0.860   7.849  0.1072 -0.3289  0.2745
  159loPI    C1 2529  11.480  10.235  10.303  0.1905 -0.3016  0.3090
  159loPI    C2 2530  11.178  10.403  10.506  0.1394 -0.1726  0.1285
  159loPI    C3 2531  11.101  10.158  10.198  0.2185 -0.1760  0.1114
  159loPI   PO4 2532  11.606  10.428  10.162 -0.0349  0.0679 -0.0061
  159loPI   GL1 2533  11.478  10.561   9.845  0.0850  0.1361  0.0155
  159loPI   GL2 2534  11.175  10.592   9.873  0.0782 -0.0664 -0.3687
  159loPI   C1A 2535  11.635  10.404   9.448 -0.3338 -0.1122  0.0150
  159loPI   C2A 2536  11.582  10.318   9.025 -0.1544 -0.1263  0.1568
  159loPI   C3A 2537  11.768  10.416   8.643  0.1014 -0.1726  0.1713
  159loPI   C4A 2538  11.803  10.514   8.191  0.0458  0.1107  0.2610
  159loPI   C5A 2539  11.937  10.268   7.972 -0.0285 -0.0809 -0.2674
  159loPI   C6A 2540  11.837  10.011   7.624 -0.0014  0.0074  0.2312
  159loPI   C1B 2541  11.328  10.874   9.531  0.0338  0.3370 -0.1667
  159loPI   C2B 2542  11.434  10.800   9.061  0.0963  0.3637 -0.1391
  159loPI   C3B 2543  11.399  10.705   8.648  0.1002  0.1689 -0.2333
  159loPI   C4B 2544  11.219  10.670   8.232 -0.3479  0.0186 -0.0805
  160loPI    C1 2545  12.281   1.594  10.393 -0.1067 -0.0474  0.0799
  160loPI    C2 2546  12.559   1.571  10.679 -0.1125  0.3376  0.1216
  160loPI    C3 2547  12.669   1.602  10.296 -0.1034  0.0662  0.1006
  160loPI   PO4 2548  12.100   1.372  10.378  0.2010  0.0471 -0.1165
  160loPI   GL1 2549  12.145   1.126   9.976 -0.1613  0.1173 -0.2141
  160loPI   GL2 2550  12.437   1.261   9.948 -0.0449  0.1291 -0.3096
  160loPI   C1A 2551  12.031   0.889   9.654  0.0239  0.1879 -0.1081
  160loPI   C2A 2552  11.931   0.775   9.256 -0.2258 -0.0646 -0.1260
  160loPI   C3A 2553  11.931   0.790   8.855  0.1946 -0.0055  0.1189
  160loPI   C4A 2554  12.008   0.924   8.476 -0.0658 -0.1773  0.0367
  160loPI   C5A 2555  12.186   1.198   8.302  0.3449 -0.0501  0.2231
  160loPI   C6A 2556  12.418   1.590   8.325  0.0671 -0.3009  0.0520
  160loPI   C1B 2557  12.370   1.189   9.481  0.0689 -0.0974  0.0189
  160loPI   C2B 2558  12.329   1.053   9.037  0.0758 -0.2657  0.0151
  160loPI   C3B 2559  12.428   0.824   8.675 -0.3463  0.0872 -0.0324
  160loPI   C4B 2560  12.578   0.603   8.313 -0.0062  0.0783  0.0427
  161loPI    C1 2561  14.367  17.253  10.247  0.0582 -0.0876 -0.0675
  161loPI    C2 2562  14.043  17.043  10.350  0.1012 -0.1335 -0.0261
  161loPI    C3 2563  14.357  17.061  10.597  0.0396  0.1014  0.0369
  161loPI   PO4 2564  14.156  17.373  10.044 -0.2190 -0.0034  0.1365
  161loPI   GL1 2565  14.271  17.509   9.739 -0.1782  0.2172 -0.2488
  161loPI   GL2 2566  14.359  17.834   9.858 -0.1366  0.0832  0.0673
  161loPI   C1A 2567  14.146  17.546   9.240  0.0593 -0.0179 -0.0572
  161loPI   C2A 2568  13.911  17.562   8.859  0.1617  0.1326  0.0611
  161loPI   C3A 2569  13.734  17.667   8.546  0.1874 -0.0247  0.1518
  161loPI   C4A 2570  13.621  17.929   8.280  0.0254  0.2407  0.1568
  161loPI   C5A 2571  13.470  17.998   7.877 -0.1228 -0.0941 -0.2571
  161loPI   C6A 2572  13.649  18.023   7.434  0.0306 -0.2931  0.0673
  161loPI   C1B 2573  14.532  17.859   9.369 -0.1182  0.1702  0.1371
  161loPI   C2B 2574  14.759  17.612   9.087  0.1413 -0.0236 -0.0485
  161loPI   C3B 2575  15.112  17.532   8.878  0.0136 -0.2014  0.0626
  161loPI   C4B 2576  15.114  17.317   8.515 -0.0364  0.0261  0.0885
  162loPI    C1 2577   1.452   5.903  10.732 -0.0463 -0.0913  0.0971
  162loPI    C2 2578   1.196   5.865  11.038 -0.2808 -0.2271 -0.1123
  162loPI    C3 2579   1.489   5.597  10.987 -0.1063 -0.0841  0.1145
  162loPI   PO4 2580   1.207   5.946  10.537 -0.0381  0.2000  0.1088
  162loPI   GL1 2581   1.150   5.879  10.113  0.0042 -0.3001  0.1866
  162loPI   GL2 2582   1.238   5.653   9.956 -0.1816 -0.2470  0.0532
  162loPI   C1A 2583   1.008   6.108   9.706 -0.3743  0.0207 -0.2124
  162loPI   C2A 2584   1.033   6.112   9.303 -0.2707  0.0423 -0.4113
  162loPI   C3A 2585   0.819   6.164   8.941  0.0878  0.0754  0.0098
  162loPI   C4A 2586   0.670   6.027   8.569  0.3720  0.1034  0.1840
  162loPI   C5A 2587   0.750   6.219   8.152  0.2102  0.1391 -0.1028
  162loPI   C6A 2588   0.776   6.379   7.881  0.1000 -0.5027  0.0697
  162loPI   C1B 2589   1.176   5.664   9.543 -0.1350 -0.1050  0.0240
  162loPI   C2B 2590   1.182   5.697   9.129 -0.0518 -0.1324 -0.4630
  162loPI   C3B 2591   1.225   5.993   8.718 -0.2182  0.0787 -0.0537
  162loPI   C4B 2592   1.068   6.308   8.535 -0.1895 -0.2207  0.0298
  163loPI    C1 2593  10.072   3.729  10.602  0.1020 -0.1663 -0.0817
  163loPI    C2 2594   9.694   3.807  10.496  0.0386 -0.0703  0.2071
  163loPI    C3 2595   9.919   4.093  10.662  0.3047 -0.0695 -0.1417
  163loPI   PO4 2596  10.141   3.657  10.368  0.1483 -0.0567  0.0297
  163loPI   GL1 2597  10.416   3.368  10.053 -0.3383  0.1421 -0.0648
  163loPI   GL2 2598  10.142   3.510   9.873  0.1605 -0.0579 -0.0125
  163loPI   C1A 2599  10.579   3.324   9.647 -0.2031  0.3458 -0.1343
  163loPI   C2A 2600  10.563   3.170   9.180 -0.1629  0.3012  0.0559
  163loPI   C3A 2601  10.614   3.126   8.697  0.0484  0.0972  0.1020
  163loPI   C4A 2602  10.834   2.998   8.354 -0.1200  0.0329  0.3388
  163loPI   C5A 2603  11.066   2.889   7.980 -0.1857  0.0857 -0.0128
  163loPI   C6A 2604  10.910   2.772   7.646 -0.0103 -0.2175  0.1210
  163loPI   C1B 2605  10.281   3.815   9.573  0.1452 -0.0296  0.1520
  163loPI   C2B 2606  10.229   4.019   9.125 -0.1048  0.1128 -0.1287
  163loPI   C3B 2607  10.319   4.115   8.772 -0.2177 -0.2628  0.0319
  163loPI   C4B 2608  10.443   4.161   8.375 -0.0411  0.0218  0.0869
  164loPI    C1 2609  13.557  17.439  10.267 -0.0361 -0.1200 -0.1051
  164loPI    C2 2610  13.796  17.533  10.574 -0.1890 -0.3791  0.0969
  164loPI    C3 2611  13.613  17.822  10.368  0.1874 -0.1851  0.0268
  164loPI   PO4 2612  13.690  17.309  10.080 -0.0855  0.0716 -0.0345
  164loPI   GL1 2613  13.781  17.164   9.604 -0.1292  0.3096 -0.1316
  164loPI   GL2 2614  13.818  17.452   9.587 -0.0994 -0.0189  0.0125
  164loPI   C1A 2615  14.018  17.047   9.312  0.2373 -0.0563 -0.0798
  164loPI   C2A 2616  14.128  17.105   9.021  0.2302  0.2859 -0.0304
  164loPI   C3A 2617  14.395  17.426   8.832  0.2205  0.1070 -0.2065
  164loPI   C4A 2618  14.445  17.912   8.861 -0.2139 -0.4078 -0.0216
  164loPI   C5A 2619  14.484  18.164   8.490  0.2211 -0.1634 -0.0601
  164loPI   C6A 2620  14.355  18.220   8.137 -0.1829  0.1673 -0.0425
  164loPI   C1B 2621  13.567  17.432   9.189  0.1443  0.0187 -0.0624
  164loPI   C2B 2622  13.409  17.723   9.005 -0.1637 -0.2063 -0.2718
  164loPI   C3B 2623  13.356  17.970   8.791  0.0908  0.3230 -0.0199
  164loPI   C4B 2624  13.550  18.303   8.616 -0.2461  0.1869  0.1384
  165loPI    C1 2625   0.939  17.841  10.647  0.0175 -0.2758  0.0893
  165loPI    C2 2626   0.574  17.734  10.769 -0.0152 -0.0861  0.1617
  165loPI    C3 2627   0.830  17.901  11.027  0.0695 -0.0802  0.0744
  165loPI   PO4 2628   0.926  17.955  10.378  0.0310 -0.2943 -0.0824
  165loPI   GL1 2629   1.122  17.906   9.950 -0.0749  0.3634  0.1411
  165loPI   GL2 2630   1.164  18.186   9.714 -0.1789 -0.3367 -0.0744
  165loPI   C1A 2631   1.145  17.750   9.531 -0.1094 -0.0608 -0.3395
  165loPI   C2A 2632   1.107  17.963   9.210 -0.0703 -0.0934  0.1820
  165loPI   C3A 2633   1.163  18.010   8.781  0.1224  0.1733  0.0755
  165loPI   C4A 2634   1.191  18.114   8.469  0.0750 -0.0590 -0.0442
  165loPI   C5A 2635   1.463  18.260   8.061  0.3190  0.0794 -0.0169
  165loPI   C6A 2636   1.756  18.202   7.761 -0.0396  0.0622 -0.1624
  165loPI   C1B 2637   1.291  18.415   9.301 -0.1774  0.2336 -0.0334
  165loPI   C2B 2638   1.412  18.430   8.865 -0.1455 -0.0320  0.0145
  165loPI   C3B 2639   1.277  18.619   8.432 -0.0723 -0.1769  0.1915
  165loPI   C4B 2640   1.238  18.750   8.009 -0.2330  0.0878 -0.0363
  166loPI    C1 2641  18.027   2.881  10.388 -0.1867  0.4634 -0.1311
  166loPI    C2 2642  17.723   2.740  10.606  0.0832 -0.1834 -0.1497
  166loPI    C3 2643  18.015   2.951  10.781 -0.0588 -0.0916 -0.0205
  166loPI   PO4 2644  18.011   2.992  10.071 -0.0609 -0.3655  0.3241
  166loPI   GL1 2645  17.718   3.166   9.764  0.0774 -0.0871  0.1357
  166loPI   GL2 2646  17.873   2.936   9.600 -0.2443 -0.0461  0.0413
  166loPI   C1A 2647  17.784   3.431   9.403 -0.1077 -0.2828  0.1732
  166loPI   C2A 2648  17.742   3.571   9.052  0.0761 -0.2148 -0.1575
  166loPI   C3A 2649  17.650   3.653   8.693  0.0023  0.0419  0.2386
  166loPI   C4A 2650  17.403   3.669   8.302  0.1737 -0.1514 -0.1459
  166loPI   C5A 2651  17.364   3.982   7.959  0.0971 -0.0758  0.2708
  166loPI   C6A 2652  17.067   3.686   7.698 -0.1234  0.2395 -0.1192
  166loPI   C1B 2653  17.831   2.979   9.179 -0.1977 -0.0626  0.2222
  166loPI   C2B 2654  17.737   2.806   8.809 -0.0337  0.1297  0.0590
  166loPI   C3B 2655  17.784   2.853   8.331 -0.0268  0.0326  0.0306
  166loPI   C4B 2656  18.128   2.703   8.108  0.0099  0.3980 -0.2489
  167loPI    C1 2657   8.861   6.968  10.153  0.2723  0.0103 -0.1436
  167loPI    C2 2658   8.734   7.193  10.458 -0.1887 -0.2628 -0.1243
  167loPI    C3 2659   9.033   6.933  10.513  0.1719  0.1487 -0.0813
  167loPI   PO4 2660   8.685   7.064   9.933  0.0733 -0.2190  0.1174
  167loPI   GL1 2661   8.807   7.120   9.508 -0.0729 -0.0204 -0.0674
  167loPI   GL2 2662   8.944   7.455   9.657  0.0116  0.0372  0.0652
  167loPI   C1A 2663   8.882   7.390   9.127 -0.3765  0.0144 -0.0898
  167loPI   C2A 2664   8.786   7.414   8.787  0.0418 -0.2474  0.2414
  167loPI   C3A 2665   8.742   7.260   8.332 -0.2468 -0.0766  0.0882
  167loPI   C4A 2666   9.015   7.268   8.065  0.1303  0.0403 -0.2642
  167loPI   C5A 2667   9.286   7.164   7.721  0.4384 -0.1438 -0.3286
  167loPI   C6A 2668   9.427   6.940   7.346  0.2353 -0.0729 -0.2111
  167loPI   C1B 2669   8.729   7.765   9.391  0.0309  0.1214  0.3120
  167loPI   C2B 2670   8.610   7.815   8.993 -0.0342 -0.0312 -0.2037
  167loPI   C3B 2671   8.716   7.953   8.633 -0.1623  0.4067 -0.0547
  167loPI   C4B 2672   8.862   7.993   8.346 -0.0605 -0.3406 -0.1495
  168loPI    C1 2673   9.675  11.427  10.326  0.0645  0.0501  0.1303
  168loPI    C2 2674   9.591  11.474  10.714 -0.2430 -0.0830  0.0825
  168loPI    C3 2675   9.728  11.123  10.581  0.0585  0.0246  0.1012
  168loPI   PO4 2676   9.442  11.497  10.135  0.0308 -0.1162 -0.0873
  168loPI   GL1 2677   9.287  11.561   9.748  0.1057 -0.2920 -0.1862
  168loPI   GL2 2678   9.057  11.424   9.590  0.0441 -0.2034 -0.1702
  168loPI   C1A 2679   9.287  11.890   9.515 -0.2855  0.0605  0.0100
  168loPI   C2A 2680   9.463  12.149   9.261 -0.0073  0.1110  0.2427
  168loPI   C3A 2681   9.547  12.224   8.837  0.3655  0.0665  0.0468
  168loPI   C4A 2682   9.512  12.488   8.505 -0.0899  0.3362 -0.0292
  168loPI   C5A 2683   9.208  12.387   8.197 -0.1825  0.2705 -0.0572
  168loPI   C6A 2684   9.019  12.017   8.100  0.2355  0.1405 -0.0231
  168loPI   C1B 2685   9.148  11.265   9.282 -0.0932 -0.1421  0.3205
  168loPI   C2B 2686   9.212  11.497   8.923  0.0411 -0.0550  0.2611
  168loPI   C3B 2687   9.187  11.512   8.506 -0.0687  0.1717 -0.2594
  168loPI   C4B 2688   9.412  11.584   8.101 -0.0394  0.1505 -0.0126
  169loPI    C1 2689   3.439   1.244   9.988  0.0791  0.0240  0.3472
  169loPI    C2 2690   3.108   1.415   9.842  0.2530 -0.0508 -0.1565
  169loPI    C3 2691   3.081   1.083  10.064 -0.0174  0.0426 -0.0445
  169loPI   PO4 2692   3.612   1.276   9.819 -0.0713  0.0686  0.2988
  169loPI   GL1 2693   3.590   1.548   9.574 -0.2097 -0.2930 -0.1190
  169loPI   GL2 2694   3.339   1.532   9.433  0.0600  0.1571 -0.1048
  169loPI   C1A 2695   3.768   1.403   9.158  0.1777  0.0437  0.0672
  169loPI   C2A 2696   3.813   1.426   8.663 -0.0258  0.2184  0.1680
  169loPI   C3A 2697   3.676   1.463   8.222  0.1277  0.2364 -0.2142
  169loPI   C4A 2698   3.349   1.509   7.985  0.3697  0.1193  0.0476
  169loPI   C5A 2699   3.084   1.770   7.865 -0.1078 -0.1994 -0.1050
  169loPI   C6A 2700   3.033   2.141   7.987 -0.0080 -0.1979 -0.2824
  169loPI   C1B 2701   3.322   1.300   8.991  0.0245 -0.5319 -0.1700
  169loPI   C2B 2702   3.268   1.434   8.578 -0.3487 -0.1799 -0.0106
  169loPI   C3B 2703   3.039   1.048   8.498 -0.0371 -0.0543 -0.0873
  169loPI   C4B 2704   2.759   0.930   8.193  0.2676  0.1452  0.0672
  170loPI    C1 2705  12.663   7.770  10.237 -0.2126  0.0180 -0.1480
  170loPI    C2 2706  12.928   7.948  10.479 -0.1064 -0.0661 -0.2015
  170loPI    C3 2707  12.866   7.554  10.507 -0.1531 -0.0628 -0.2565
  170loPI   PO4 2708  12.790   7.809  10.017  0.1962  0.1069 -0.1912
  170loPI   GL1 2709  13.024   7.570   9.690 -0.1832 -0.1710 -0.3578
  170loPI   GL2 2710  13.218   7.811   9.657 -0.1450  0.1209  0.1784
  170loPI   C1A 2711  12.939   7.660   9.273  0.0775  0.0138  0.0521
  170loPI   C2A 2712  13.024   7.671   8.901 -0.0166 -0.2002  0.4105
  170loPI   C3A 2713  13.011   7.482   8.455  0.0159  0.0486  0.0835
  170loPI   C4A 2714  13.240   7.342   8.122  0.1123  0.2493 -0.0088
  170loPI   C5A 2715  13.172   7.170   7.777 -0.3867  0.0302 -0.0064
  170loPI   C6A 2716  13.284   7.023   7.358 -0.0812 -0.1772 -0.0668
  170loPI   C1B 2717  13.360   7.926   9.270 -0.0477  0.1030  0.0580
  170loPI   C2B 2718  13.430   7.978   8.852  0.1071  0.1452  0.1439
  170loPI   C3B 2719  13.319   8.007   8.485 -0.1206  0.0220  0.0533
  170loPI   C4B 2720  13.389   8.198   8.078  0.2574  0.0311  0.0036
  171loPI    C1 2721   6.077   0.563  10.466  0.0838 -0.2020  0.0133
  171loPI    C2 2722   6.125   0.305  10.767  0.3082 -0.1102  0.0583
  171loPI    C3 2723   6.016   0.682  10.843  0.0453 -0.1722 -0.0023
  171loPI   PO4 2724   5.876   0.415  10.271 -0.2306 -0.0291  0.2639
  171loPI   GL1 2725   5.762   0.538   9.824  0.0955 -0.3243 -0.0116
  171loPI   GL2 2726   6.036   0.777   9.751 -0.1070 -0.1789 -0.0786
  171loPI   C1A 2727   5.984   0.229   9.585  0.1645  0.0102  0.0683
  171loPI   C2A 2728   5.857   0.050   9.265  0.1696 -0.0523 -0.0554
  171loPI   C3A 2729   5.800  -0.328   9.110  0.0456 -0.1230 -0.1342
  171loPI   C4A 2730   5.960  -0.478   8.882 -0.2525 -0.1484 -0.0225
  171loPI   C5A 2731   6.096  -0.557   8.489  0.0316  0.0068  0.3738
  171loPI   C6A 2732   6.118  -0.751   8.086  0.0496  0.2465 -0.0046
  171loPI   C1B 2733   6.060   0.624   9.276  0.2660  0.2077 -0.2481
  171loPI   C2B 2734   6.147   0.311   9.014  0.2319 -0.0865  0.0660
  171loPI   C3B 2735   6.120   0.414   8.612 -0.2506 -0.1350 -0.0178
  171loPI   C4B 2736   5.989   0.592   8.176  0.1336  0.0558 -0.1045
  172loPI    C1 2737   5.895  13.767  10.542  0.1359 -0.0928  0.0095
  172loPI    C2 2738   5.868  13.717  10.938 -0.0540 -0.0810 -0.0008
  172loPI    C3 2739   6.198  13.878  10.778 -0.0532  0.0901  0.1701
  172loPI   PO4 2740   5.634  13.798  10.478  0.2087 -0.2556  0.0887
  172loPI   GL1 2741   5.331  13.657  10.264 -0.2437  0.0408  0.2661
  172loPI   GL2 2742   5.279  13.371  10.151  0.1802  0.1762 -0.1294
  172loPI   C1A 2743   5.125  13.686   9.771  0.0283 -0.1690  0.1563
  172loPI   C2A 2744   5.225  13.682   9.362 -0.2768  0.1950  0.1598
  172loPI   C3A 2745   5.270  13.620   8.945  0.2565 -0.0543  0.3217
  172loPI   C4A 2746   5.310  13.541   8.513  0.1799  0.2241  0.0418
  172loPI   C5A 2747   5.268  13.715   8.013  0.1072 -0.0935 -0.1767
  172loPI   C6A 2748   5.458  13.864   7.682  0.0882 -0.1032 -0.2524
  172loPI   C1B 2749   5.313  13.225   9.755 -0.1867  0.4247  0.1497
  172loPI   C2B 2750   5.295  13.173   9.341 -0.1652 -0.1327  0.0742
  172loPI   C3B 2751   5.254  13.103   8.970  0.1943 -0.0725 -0.1990
  172loPI   C4B 2752   5.267  13.056   8.560 -0.0828  0.3073 -0.3063
  173loPI    C1 2753   1.329   1.776  10.446 -0.0119 -0.0643 -0.1002
  173loPI    C2 2754   1.560   1.484  10.592 -0.0543  0.0473  0.1972
  173loPI    C3 2755   1.190   1.535  10.734 -0.1626  0.0469 -0.0789
  173loPI   PO4 2756   1.285   1.726  10.149  0.0069 -0.2536 -0.0566
  173loPI   GL1 2757   1.316   1.956   9.740 -0.0583  0.0909 -0.1839
  173loPI   GL2 2758   1.064   2.224   9.728  0.1452 -0.2943  0.0007
  173loPI   C1A 2759   1.562   1.905   9.297  0.2081 -0.2876  0.1152
  173loPI   C2A 2760   1.424   2.198   9.030  0.1376  0.0974  0.0272
  173loPI   C3A 2761   1.249   2.334   8.678 -0.0545 -0.0184  0.0525
  173loPI   C4A 2762   1.213   2.548   8.294 -0.1323  0.1230  0.1318
  173loPI   C5A 2763   1.034   2.557   7.917 -0.1195  0.0647 -0.2297
  173loPI   C6A 2764   0.616   2.611   7.828  0.0420  0.0977  0.0882
  173loPI   C1B 2765   0.756   2.619   9.523  0.1593 -0.0326  0.2001
  173loPI   C2B 2766   0.651   2.959   9.235 -0.0370 -0.1138  0.4548
  173loPI   C3B 2767   0.656   3.199   8.908  0.0157 -0.1268 -0.1865
  173loPI   C4B 2768   0.632   3.538   8.765  0.0281  0.0414  0.1181
  174loPI    C1 2769   9.436  14.845  10.108  0.2004 -0.1618 -0.1026
  174loPI    C2 2770   9.779  14.940   9.926  0.3100 -0.2436  0.0593
  174loPI    C3 2771   9.706  15.071  10.297  0.0959 -0.0931 -0.0342
  174loPI   PO4 2772   9.376  14.593   9.951 -0.1492  0.3532  0.0006
  174loPI   GL1 2773   9.429  14.412   9.518 -0.0063 -0.0370  0.0983
  174loPI   GL2 2774   9.695  14.285   9.369 -0.1141  0.2606 -0.1896
  174loPI   C1A 2775   9.267  14.153   9.210 -0.2955 -0.0847 -0.1786
  174loPI   C2A 2776   9.254  14.083   8.747  0.2166  0.2246  0.0777
  174loPI   C3A 2777   9.360  13.999   8.310 -0.0307 -0.2766  0.0506
  174loPI   C4A 2778   9.485  13.724   7.972 -0.1171  0.0184  0.1364
  174loPI   C5A 2779   9.285  13.479   7.598  0.2223  0.1811  0.1163
  174loPI   C6A 2780   9.340  13.231   7.255 -0.1246  0.1297  0.3684
  174loPI   C1B 2781   9.680  14.344   8.899 -0.0906 -0.0262  0.2214
  174loPI   C2B 2782   9.470  14.550   8.563  0.0467  0.0394  0.2212
  174loPI   C3B 2783   9.422  14.733   8.182  0.1670  0.0660 -0.0036
  174loPI   C4B 2784   9.566  14.994   7.811  0.2218 -0.3563 -0.1649
  175loPI    C1 2785  16.598  11.077  10.821  0.0161 -0.0744 -0.0378
  175loPI    C2 2786  16.349  11.101  11.134  0.2360 -0.0078  0.1352
  175loPI    C3 2787  16.389  11.412  10.886  0.2792  0.0461  0.2099
  175loPI   PO4 2788  16.523  10.853  10.714  0.1222  0.0906  0.2509
  175loPI   GL1 2789  16.243  11.016  10.321 -0.0973  0.1871  0.0812
  175loPI   GL2 2790  16.102  10.894  10.100 -0.0964 -0.1701  0.1037
  175loPI   C1A 2791  16.417  11.233   9.905 -0.1181  0.0272 -0.0217
  175loPI   C2A 2792  16.454  11.183   9.433 -0.2341  0.0323 -0.0705
  175loPI   C3A 2793  16.180  11.089   9.102  0.3128  0.3354 -0.3794
  175loPI   C4A 2794  16.173  11.113   8.717  0.0713  0.4021 -0.1563
  175loPI   C5A 2795  16.236  11.111   8.317 -0.1671  0.0779 -0.1049
  175loPI   C6A 2796  16.100  11.086   8.038 -0.1361  0.0319  0.0254
  175loPI   C1B 2797  15.978  11.153   9.666 -0.2769  0.1208  0.1175
  175loPI   C2B 2798  15.955  11.468   9.394 -0.1096 -0.0601  0.1164
  175loPI   C3B 2799  15.996  11.549   8.966 -0.0548  0.2311  0.1122
  175loPI   C4B 2800  16.017  11.612   8.506 -0.0006 -0.1525 -0.0023
  176loPI    C1 2801  14.694  12.971  10.566 -0.0209  0.1201  0.2500
  176loPI    C2 2802  15.077  13.028  10.667  0.1089  0.0212 -0.1691
  176loPI    C3 2803  14.876  12.713  10.812  0.1892  0.0644  0.0392
  176loPI   PO4 2804  14.735  13.000  10.275  0.0489 -0.2215  0.0327
  176loPI   GL1 2805  14.922  13.057   9.868 -0.2134 -0.1022 -0.0870
  176loPI   GL2 2806  14.976  13.309   9.810  0.1728 -0.2423  0.1175
  176loPI   C1A 2807  15.242  12.763   9.680 -0.2568 -0.0753 -0.1696
  176loPI   C2A 2808  15.399  12.686   9.294  0.3329 -0.1523  0.1011
  176loPI   C3A 2809  15.326  12.694   8.902  0.2315  0.0528  0.2669
  176loPI   C4A 2810  15.385  12.668   8.454 -0.2668 -0.4864  0.0185
  176loPI   C5A 2811  15.538  13.010   8.119  0.5387  0.2426 -0.1223
  176loPI   C6A 2812  15.785  13.320   7.932  0.1321 -0.3038  0.1554
  176loPI   C1B 2813  15.246  13.239   9.486  0.1904 -0.2263  0.4361
  176loPI   C2B 2814  15.374  13.232   8.990 -0.0774 -0.0997  0.0112
  176loPI   C3B 2815  15.576  13.076   8.640  0.2989  0.0527 -0.0471
  176loPI   C4B 2816  15.634  13.364   8.394  0.0005 -0.2557  0.0632
  177loPI    C1 2817  13.857  10.137  10.655  0.0398  0.0861  0.1789
  177loPI    C2 2818  14.099  10.134  10.973  0.0613 -0.1981  0.1632
  177loPI    C3 2819  13.717  10.021  11.011  0.0119 -0.0466  0.1256
  177loPI   PO4 2820  13.935   9.949  10.442 -0.1824  0.1358 -0.0508
  177loPI   GL1 2821  13.963   9.787  10.029 -0.1631  0.0259  0.1111
  177loPI   GL2 2822  13.992  10.105   9.953 -0.0962  0.0625 -0.1883
  177loPI   C1A 2823  13.596   9.733   9.725 -0.1125 -0.0289  0.2007
  177loPI   C2A 2824  13.470   9.944   9.351 -0.0488  0.0443  0.3663
  177loPI   C3A 2825  13.272   9.968   8.937 -0.0269 -0.0558  0.0485
  177loPI   C4A 2826  13.153   9.837   8.598 -0.1514  0.2253  0.4197
  177loPI   C5A 2827  13.142   9.857   8.152  0.0475  0.1878  0.0385
  177loPI   C6A 2828  13.270   9.488   7.907 -0.4599 -0.4324 -0.1228
  177loPI   C1B 2829  14.326  10.378   9.658 -0.0358  0.0114  0.1787
  177loPI   C2B 2830  14.440  10.237   9.287  0.0371 -0.1784  0.3118
  177loPI   C3B 2831  14.377  10.374   8.858 -0.1427 -0.0531 -0.0817
  177loPI   C4B 2832  14.531  10.468   8.388  0.1131  0.0484  0.0765
  178loPI    C1 2833   7.092  15.386  10.613  0.1797 -0.1031 -0.0329
  178loPI    C2 2834   7.279  15.123  10.849  0.3077  0.0719  0.0631
  178loPI    C3 2835   7.003  15.368  11.002  0.1413 -0.0497 -0.0391
  178loPI   PO4 2836   7.323  15.448  10.490  0.3081 -0.1719 -0.0098
  178loPI   GL1 2837   7.236  15.490  10.028  0.3237  0.2282  0.2256
  178loPI   GL2 2838   7.549  15.580  10.060 -0.1179  0.0605  0.1797
  178loPI   C1A 2839   7.097  15.307   9.604 -0.1718  0.0991 -0.1657
  178loPI   C2A 2840   7.113  15.233   9.213  0.1824  0.0932 -0.3969
  178loPI   C3A 2841   7.123  15.146   8.779 -0.2673  0.0402 -0.1709
  178loPI   C4A 2842   7.050  15.024   8.332  0.3308 -0.0473 -0.0415
  178loPI   C5A 2843   6.996  14.544   8.148 -0.0248  0.1819  0.2740
  178loPI   C6A 2844   7.163  14.397   7.818  0.2390  0.0989 -0.2119
  178loPI   C1B 2845   7.584  15.262   9.793 -0.1076  0.4807 -0.2147
  178loPI   C2B 2846   7.648  15.226   9.339  0.1759 -0.0836  0.2731
  178loPI   C3B 2847   7.562  15.322   8.877  0.1210 -0.1774 -0.2604
  178loPI   C4B 2848   7.466  15.527   8.486  0.2253 -0.0944  0.0326
  179loPI    C1 2849  14.711   8.222  10.247  0.0120  0.0301  0.1541
  179loPI    C2 2850  15.103   8.237  10.170  0.0046  0.2437  0.1503
  179loPI    C3 2851  14.946   7.915  10.348  0.1286  0.0214 -0.1350
  179loPI   PO4 2852  14.657   8.328  10.033  0.0529  0.3563  0.1071
  179loPI   GL1 2853  14.416   8.204   9.671  0.1829 -0.1649  0.1781
  179loPI   GL2 2854  14.124   8.049   9.751  0.1365  0.2233 -0.2682
  179loPI   C1A 2855  14.298   8.299   9.215  0.0397  0.0300  0.3228
  179loPI   C2A 2856  14.155   8.309   8.841 -0.1829  0.2381 -0.1850
  179loPI   C3A 2857  14.185   8.277   8.507  0.0645  0.0158 -0.1886
  179loPI   C4A 2858  14.399   8.145   8.177 -0.0616  0.2773 -0.2955
  179loPI   C5A 2859  14.302   7.917   7.845  0.2056 -0.2023 -0.3778
  179loPI   C6A 2860  14.302   7.813   7.484 -0.1326  0.1159 -0.2010
  179loPI   C1B 2861  13.865   8.197   9.419 -0.2406  0.1876  0.0154
  179loPI   C2B 2862  13.681   8.327   9.037 -0.0405  0.2020  0.1162
  179loPI   C3B 2863  13.740   8.364   8.558 -0.0218  0.1237  0.3537
  179loPI   C4B 2864  13.879   8.325   8.148 -0.2279 -0.2171  0.0245
  180loPI    C1 2865   8.295  18.189  10.092 -0.0596 -0.1282 -0.0706
  180loPI    C2 2866   8.518  18.399  10.349 -0.1647 -0.2164  0.0941
  180loPI    C3 2867   8.632  18.031  10.241  0.2116  0.0523 -0.4733
  180loPI   PO4 2868   8.275  18.366   9.896 -0.0285 -0.0654 -0.1096
  180loPI   GL1 2869   8.334  18.400   9.542  0.0445  0.1280 -0.4116
  180loPI   GL2 2870   8.588  18.515   9.493  0.1752 -0.1975  0.1228
  180loPI   C1A 2871   8.291  18.462   9.075  0.0681  0.0567  0.0845
  180loPI   C2A 2872   8.384  18.584   8.736 -0.2830  0.0201  0.5181
  180loPI   C3A 2873   8.312  18.779   8.380  0.0214 -0.1945 -0.3237
  180loPI   C4A 2874   8.361  19.024   8.104  0.3336 -0.0893 -0.0155
  180loPI   C5A 2875   8.118  19.376   8.113  0.3234  0.2311 -0.3364
  180loPI   C6A 2876   7.853  19.784   7.949 -0.1744 -0.0556 -0.1264
  180loPI   C1B 2877   8.771  18.543   9.074 -0.0062  0.4370  0.1006
  180loPI   C2B 2878   8.890  18.514   8.703 -0.1805  0.1125  0.1293
  180loPI   C3B 2879   8.869  18.599   8.270 -0.0904 -0.3215 -0.0270
  180loPI   C4B 2880   8.821  18.454   7.868  0.0804 -0.0201  0.3721
  181loPI    C1 2881   3.720  15.640  10.429  0.1597 -0.0270  0.1789
  181loPI    C2 2882   3.326  15.590  10.473  0.0649  0.3038 -0.2273
  181loPI    C3 2883   3.549  15.703  10.786 -0.1280 -0.0575  0.0490
  181loPI   PO4 2884   3.719  15.567  10.155 -0.1128  0.2984 -0.1162
  181loPI   GL1 2885   3.638  15.335   9.816  0.0124 -0.3162 -0.1900
  181loPI   GL2 2886   3.868  15.473   9.691  0.0021 -0.1564  0.2402
  181loPI   C1A 2887   3.759  14.962   9.573 -0.2522 -0.0707  0.0945
  181loPI   C2A 2888   3.781  14.907   9.233 -0.1231 -0.1374  0.2700
  181loPI   C3A 2889   3.735  15.004   8.806 -0.1044 -0.2298  0.1620
  181loPI   C4A 2890   3.974  14.965   8.482  0.0893 -0.0051  0.1769
  181loPI   C5A 2891   4.391  15.070   8.370  0.3690  0.1586  0.1658
  181loPI   C6A 2892   4.516  15.377   8.030  0.1809  0.0644  0.0652
  181loPI   C1B 2893   3.671  15.440   9.304 -0.0558  0.1385 -0.1043
  181loPI   C2B 2894   3.661  15.503   8.879  0.2250 -0.3003  0.0037
  181loPI   C3B 2895   3.532  15.252   8.465  0.2066  0.0510  0.1272
  181loPI   C4B 2896   3.357  15.124   8.126 -0.1604  0.2863  0.1761
  182loPI    C1 2897  15.413   5.338  10.665  0.0505 -0.3136 -0.1633
  182loPI    C2 2898  15.762   5.527  10.720 -0.0313 -0.1279 -0.2721
  182loPI    C3 2899  15.655   5.230  10.965  0.0255  0.0748  0.0032
  182loPI   PO4 2900  15.429   5.315  10.436 -0.3767  0.2900  0.0000
  182loPI   GL1 2901  15.509   5.402  10.007  0.0766 -0.3114 -0.2473
  182loPI   GL2 2902  15.404   5.125   9.775  0.2348  0.1353  0.3181
  182loPI   C1A 2903  15.657   5.468   9.481  0.2659 -0.2030 -0.0305
  182loPI   C2A 2904  15.597   5.507   9.008 -0.2108 -0.3335 -0.0200
  182loPI   C3A 2905  15.499   5.415   8.599  0.0466 -0.1684  0.2032
  182loPI   C4A 2906  15.283   5.201   8.263 -0.0248 -0.2978  0.2041
  182loPI   C5A 2907  14.893   5.282   8.081  0.0508  0.1804 -0.3301
  182loPI   C6A 2908  14.493   5.082   8.057 -0.0612 -0.3868 -0.1229
  182loPI   C1B 2909  15.369   5.171   9.228  0.2133 -0.1455 -0.0651
  182loPI   C2B 2910  15.259   4.934   8.872  0.0571  0.0386 -0.2055
  182loPI   C3B 2911  15.051   4.873   8.459  0.1051  0.1832 -0.0968
  182loPI   C4B 2912  14.577   4.681   8.463  0.1668 -0.0119  0.4291
  183loPI    C1 2913  15.282  14.339  10.284  0.3040 -0.2832 -0.0505
  183loPI    C2 2914  15.590  14.538  10.126  0.0191  0.1110 -0.1241
  183loPI    C3 2915  15.534  14.537  10.522  0.1205  0.0274 -0.1094
  183loPI   PO4 2916  15.225  14.157  10.048  0.0437  0.1591  0.0926
  183loPI   GL1 2917  15.096  14.069   9.575 -0.1509 -0.1569 -0.0016
  183loPI   GL2 2918  15.130  13.751   9.616  0.0488 -0.3701  0.0208
  183loPI   C1A 2919  15.236  14.316   9.205 -0.1314  0.0811  0.0323
  183loPI   C2A 2920  15.070  14.302   8.735 -0.2490  0.1976 -0.3430
  183loPI   C3A 2921  15.271  14.295   8.243 -0.0829 -0.0529  0.0656
  183loPI   C4A 2922  15.301  13.970   7.954 -0.3551 -0.2074 -0.2546
  183loPI   C5A 2923  14.974  13.757   7.743 -0.1208  0.0579  0.1262
  183loPI   C6A 2924  14.815  13.348   8.032  0.3589 -0.1973 -0.1421
  183loPI   C1B 2925  15.159  13.655   9.203  0.0102 -0.1815  0.2406
  183loPI   C2B 2926  15.351  13.660   8.763  0.2866 -0.0052 -0.0338
  183loPI   C3B 2927  15.141  13.587   8.302 -0.2787  0.2147  0.0656
  183loPI   C4B 2928  15.334  13.441   7.951  0.1133 -0.0411  0.1670
  184loPI    C1 2929   4.444  15.146  10.309 -0.5176 -0.1615 -0.0242
  184loPI    C2 2930   4.677  14.986  10.591 -0.0767  0.0660 -0.2487
  184loPI    C3 2931   4.280  14.949  10.616 -0.0369 -0.0921  0.2881
  184loPI   PO4 2932   4.521  15.084  10.144 -0.0776 -0.0832  0.2496
  184loPI   GL1 2933   4.635  15.278   9.837 -0.0310 -0.3443 -0.0724
  184loPI   GL2 2934   4.343  15.400   9.844 -0.0711 -0.0482 -0.0386
  184loPI   C1A 2935   4.758  15.684   9.543  0.1748  0.1177 -0.0113
  184loPI   C2A 2936   4.915  15.836   9.196 -0.1639  0.1365  0.0849
  184loPI   C3A 2937   5.197  15.707   8.921  0.0376  0.2181 -0.0115
  184loPI   C4A 2938   5.268  15.796   8.510 -0.0487 -0.0346 -0.0319
  184loPI   C5A 2939   5.353  15.515   8.160  0.0647  0.0016 -0.0276
  184loPI   C6A 2940   5.038  15.242   8.086 -0.1318  0.2040 -0.1408
  184loPI   C1B 2941   4.307  15.347   9.449  0.3940 -0.1040 -0.0080
  184loPI   C2B 2942   4.125  15.242   9.055 -0.2173 -0.0400 -0.2390
  184loPI   C3B 2943   4.091  15.374   8.680 -0.0599  0.0397 -0.3493
  184loPI   C4B 2944   4.009  15.402   8.236  0.5059 -0.2205  0.0675
  185loPI    C1 2945  14.689   9.354  10.351  0.1006  0.0777  0.0241
  185loPI    C2 2946  14.901   9.409  10.686 -0.0843  0.0980  0.1392
  185loPI    C3 2947  14.502   9.398  10.701 -0.0837 -0.3698 -0.0115
  185loPI   PO4 2948  14.768   9.171  10.238  0.0528 -0.1206 -0.1448
  185loPI   GL1 2949  14.598   9.001   9.890  0.0574 -0.1911  0.1415
  185loPI   GL2 2950  14.329   9.098   9.846  0.0870  0.2248  0.0616
  185loPI   C1A 2951  14.757   9.205   9.471 -0.1213 -0.0111 -0.0641
  185loPI   C2A 2952  15.054   9.200   9.062 -0.1013 -0.1708 -0.1074
  185loPI   C3A 2953  15.445   9.405   8.991 -0.1075 -0.2159  0.0747
  185loPI   C4A 2954  15.843   9.229   8.805 -0.2206 -0.2193 -0.0097
  185loPI   C5A 2955  15.827   9.069   8.387 -0.3621  0.2352 -0.1710
  185loPI   C6A 2956  15.502   8.887   8.060  0.3137  0.1383 -0.2009
  185loPI   C1B 2957  14.202   9.093   9.440 -0.0175 -0.3681  0.2097
  185loPI   C2B 2958  14.279   9.332   9.075  0.0716  0.0949 -0.0242
  185loPI   C3B 2959  14.625   9.481   8.834 -0.2798  0.1040 -0.3257
  185loPI   C4B 2960  14.926   9.324   8.596  0.0853 -0.1548  0.2376
  186loPI    C1 2961  11.814  18.100  10.137 -0.1886 -0.0611 -0.0913
  186loPI    C2 2962  11.817  17.700  10.130  0.0165 -0.0615 -0.0441
  186loPI    C3 2963  11.842  17.894  10.479 -0.1840 -0.0067 -0.0590
  186loPI   PO4 2964  11.946  18.145   9.961 -0.3946 -0.0244  0.2235
  186loPI   GL1 2965  11.915  18.307   9.657  0.0863  0.1692 -0.0655
  186loPI   GL2 2966  11.586  18.458   9.775  0.2041  0.0804 -0.3577
  186loPI   C1A 2967  11.942  18.228   9.227  0.0277 -0.1548  0.0405
  186loPI   C2A 2968  11.898  18.021   8.848 -0.0907  0.0249 -0.0429
  186loPI   C3A 2969  11.790  18.029   8.405 -0.0996 -0.1600  0.1762
  186loPI   C4A 2970  11.826  18.121   8.029 -0.3480  0.2606  0.1201
  186loPI   C5A 2971  11.908  18.427   7.833  0.0437  0.1186  0.0854
  186loPI   C6A 2972  11.890  18.699   7.529 -0.1013 -0.2341  0.4290
  186loPI   C1B 2973  11.498  18.449   9.386 -0.1713 -0.1134 -0.1635
  186loPI   C2B 2974  11.516  18.303   8.966  0.1820  0.0524 -0.2021
  186loPI   C3B 2975  11.304  18.240   8.572  0.2993 -0.0149 -0.1080
  186loPI   C4B 2976  11.349  18.104   8.232  0.0601  0.3256 -0.0081
  187loPI    C1 2977   3.331  13.177  10.299 -0.1525 -0.0516  0.0087
  187loPI    C2 2978   3.508  13.471  10.505  0.0695 -0.1251 -0.0744
  187loPI    C3 2979   3.524  13.094  10.640 -0.0427 -0.1290 -0.0714
  187loPI   PO4 2980   3.167  13.297  10.191 -0.0126  0.1034  0.1066
  187loPI   GL1 2981   3.142  13.179   9.772  0.1976  0.0789 -0.1510
  187loPI   GL2 2982   3.028  12.849   9.654  0.2462  0.3323  0.0510
  187loPI   C1A 2983   3.297  13.228   9.446 -0.1780 -0.0609 -0.0532
  187loPI   C2A 2984   3.281  13.180   8.964  0.0016 -0.2532 -0.0143
  187loPI   C3A 2985   3.441  13.157   8.629 -0.1778  0.0948 -0.0172
  187loPI   C4A 2986   3.425  13.192   8.204  0.0090  0.3407 -0.0733
  187loPI   C5A 2987   3.857  13.210   7.946  0.2621 -0.2506 -0.1578
  187loPI   C6A 2988   4.135  13.068   8.056  0.0229  0.1547  0.2293
  187loPI   C1B 2989   2.821  13.042   9.321  0.2489  0.2267 -0.2443
  187loPI   C2B 2990   2.838  13.038   8.874  0.0744 -0.2539 -0.2272
  187loPI   C3B 2991   2.995  13.085   8.407  0.1499 -0.2707  0.0599
  187loPI   C4B 2992   2.957  13.231   7.991  0.0378 -0.2777 -0.0479
  188loPI    C1 2993  17.541   9.452  10.687  0.0100 -0.2691  0.0297
  188loPI    C2 2994  17.720   9.299  11.010 -0.0906 -0.1110  0.1623
  188loPI    C3 2995  17.679   9.695  10.973 -0.1218 -0.1304 -0.0229
  188loPI   PO4 2996  17.684   9.389  10.507  0.2098  0.2815 -0.0399
  188loPI   GL1 2997  17.423   9.420  10.156 -0.0589 -0.0871 -0.1939
  188loPI   GL2 2998  17.370   9.665   9.877 -0.1092  0.0062 -0.1425
  188loPI   C1A 2999  17.533   9.108   9.843  0.0103  0.1082  0.0059
  188loPI   C2A 3000  17.864   8.921   9.539  0.1371  0.1365 -0.4659
  188loPI   C3A 3001  18.095   8.864   9.159  0.2025  0.1666 -0.0213
  188loPI   C4A 3002  18.156   8.880   8.736 -0.0577  0.0768 -0.3816
  188loPI   C5A 3003  18.136   8.619   8.401 -0.1049  0.0805 -0.0591
  188loPI   C6A 3004  17.922   8.306   8.261 -0.0016  0.3282  0.1552
  188loPI   C1B 3005  17.538   9.591   9.560 -0.1909 -0.2845 -0.1197
  188loPI   C2B 3006  17.572   9.585   9.180  0.0768  0.4448 -0.0019
  188loPI   C3B 3007  17.740   9.436   8.785  0.2207 -0.0939  0.1237
  188loPI   C4B 3008  17.864   9.373   8.356  0.1213 -0.1593  0.0010
  189loPI    C1 3009  10.606   7.894  10.556  0.0020 -0.0007  0.0090
  189loPI    C2 3010  10.864   7.867  10.861 -0.1182 -0.0209  0.1094
  189loPI    C3 3011  10.588   8.157  10.857 -0.0706  0.0232 -0.0160
  189loPI   PO4 3012  10.738   7.835  10.336 -0.1593  0.0410  0.1121
  189loPI   GL1 3013  10.629   7.770   9.950 -0.3499 -0.2311 -0.1751
  189loPI   GL2 3014  10.802   7.625   9.852 -0.1855 -0.0167  0.1568
  189loPI   C1A 3015  10.380   7.795   9.577  0.1980 -0.0979 -0.0301
  189loPI   C2A 3016  10.307   7.638   9.196 -0.0750 -0.3330  0.3218
  189loPI   C3A 3017  10.173   7.421   8.667  0.1366 -0.1938  0.0196
  189loPI   C4A 3018   9.913   7.551   8.289 -0.0097 -0.1357  0.1563
  189loPI   C5A 3019   9.889   7.599   7.811 -0.2287 -0.0529  0.2579
  189loPI   C6A 3020   9.756   7.251   7.559  0.0559 -0.1318  0.1007
  189loPI   C1B 3021  10.718   7.446   9.495  0.0091  0.2466  0.0382
  189loPI   C2B 3022  10.706   7.356   9.037 -0.1562 -0.1870  0.0325
  189loPI   C3B 3023  10.720   7.345   8.584  0.0979  0.2216  0.1834
  189loPI   C4B 3024  10.868   7.588   8.349  0.3470 -0.1318  0.1041
  190loPI    C1 3025  15.968   6.008  10.444  0.0409 -0.2913  0.2325
  190loPI    C2 3026  15.697   6.164  10.693  0.0924  0.1559  0.0194
  190loPI    C3 3027  16.051   6.041  10.834  0.0872  0.3209  0.1806
  190loPI   PO4 3028  15.935   6.082  10.195  0.2342  0.1504  0.1510
  190loPI   GL1 3029  15.921   5.935   9.662 -0.0446  0.1516 -0.1115
  190loPI   GL2 3030  16.121   6.185   9.652  0.0088 -0.1906  0.0630
  190loPI   C1A 3031  15.926   5.791   9.201  0.0147  0.1451 -0.2028
  190loPI   C2A 3032  15.821   5.766   8.685 -0.3943 -0.1682 -0.1527
  190loPI   C3A 3033  16.086   5.771   8.194  0.3115 -0.2745 -0.0276
  190loPI   C4A 3034  16.230   5.958   7.843  0.2054  0.1285 -0.0091
  190loPI   C5A 3035  16.137   6.328   7.682 -0.0237 -0.0629 -0.1373
  190loPI   C6A 3036  15.837   6.554   7.630  0.0215  0.1306 -0.4047
  190loPI   C1B 3037  16.208   6.260   9.279 -0.0782  0.3069  0.1156
  190loPI   C2B 3038  16.108   6.196   8.894 -0.0964  0.1408  0.5019
  190loPI   C3B 3039  16.173   6.229   8.492 -0.2530  0.2140  0.0121
  190loPI   C4B 3040  15.826   6.222   8.191 -0.0149 -0.2592 -0.1967
  191loPI    C1 3041   2.376  16.801  10.192  0.1287  0.0859  0.1686
  191loPI    C2 3042   2.351  16.827  10.590  0.0362 -0.1496  0.1798
  191loPI    C3 3043   2.160  16.534  10.396  0.0197  0.0077 -0.0459
  191loPI   PO4 3044   2.691  16.728  10.100 -0.1202  0.1002  0.0889
  191loPI   GL1 3045   2.826  16.609   9.738  0.0570 -0.1848  0.3029
  191loPI   GL2 3046   3.114  16.730   9.518  0.1163  0.1448  0.1961
  191loPI   C1A 3047   2.712  16.457   9.317 -0.0744 -0.1005  0.1972
  191loPI   C2A 3048   2.846  16.417   8.901 -0.0723 -0.1154 -0.1857
  191loPI   C3A 3049   3.030  16.275   8.635 -0.2150  0.1378  0.1594
  191loPI   C4A 3050   3.152  16.060   8.266 -0.1872 -0.0906  0.1685
  191loPI   C5A 3051   3.124  15.809   7.846 -0.2850 -0.3521 -0.0324
  191loPI   C6A 3052   3.360  15.539   7.749 -0.1330  0.1495 -0.3000
  191loPI   C1B 3053   3.090  16.783   9.079 -0.0234  0.2553  0.1243
  191loPI   C2B 3054   3.267  16.838   8.738 -0.1516  0.0751  0.1223
  191loPI   C3B 3055   3.573  16.963   8.430  0.0401 -0.1576  0.3292
  191loPI   C4B 3056   3.636  16.762   8.055  0.0529 -0.0920 -0.1638
  192loPI    C1 3057   2.219   4.121  10.259  0.1333  0.1663  0.1810
  192loPI    C2 3058   2.368   3.775  10.394 -0.4281 -0.0381  0.3043
  192loPI    C3 3059   2.461   4.118  10.577  0.1989 -0.1037  0.1311
  192loPI   PO4 3060   2.378   4.177  10.063  0.1174 -0.2764 -0.0801
  192loPI   GL1 3061   2.643   4.040   9.741  0.2901  0.5171  0.1092
  192loPI   GL2 3062   2.571   3.780   9.570  0.0259 -0.0206 -0.0146
  192loPI   C1A 3063   2.420   4.289   9.361  0.0845  0.0259 -0.0187
  192loPI   C2A 3064   2.511   4.533   9.108 -0.0859  0.3320 -0.1839
  192loPI   C3A 3065   2.650   4.467   8.664  0.0790 -0.1005  0.0672
  192loPI   C4A 3066   2.843   4.841   8.480  0.0365 -0.2078  0.0244
  192loPI   C5A 3067   3.120   5.179   8.657 -0.3035 -0.2084 -0.2411
  192loPI   C6A 3068   3.192   5.433   9.023 -0.0067  0.3556  0.1890
  192loPI   C1B 3069   2.364   3.793   9.247  0.0637  0.1065  0.0601
  192loPI   C2B 3070   2.142   4.106   9.020  0.0700  0.0959 -0.0296
  192loPI   C3B 3071   2.192   4.303   8.665  0.1658  0.2269  0.0536
  192loPI   C4B 3072   2.449   4.210   8.262 -0.2729  0.1238 -0.1811
  193loPI    C1 3073   8.426   5.342   9.776 -0.2826 -0.2545 -0.0156
  193loPI    C2 3074   8.432   5.731   9.683  0.3530 -0.2585 -0.0395
  193loPI    C3 3075   8.311   5.614  10.046 -0.3743 -0.0960 -0.2119
  193loPI   PO4 3076   8.396   5.212   9.555  0.2354 -0.0349 -0.2989
  193loPI   GL1 3077   8.582   4.928   9.270  0.0724  0.2249 -0.0001
  193loPI   GL2 3078   8.594   4.636   9.085  0.1122  0.3228 -0.1130
  193loPI   C1A 3079   8.579   5.116   8.900 -0.2004 -0.0308 -0.0957
  193loPI   C2A 3080   8.586   5.329   8.510 -0.2860 -0.1050 -0.1072
  193loPI   C3A 3081   8.725   5.567   8.242  0.3496  0.0907 -0.0215
  193loPI   C4A 3082   8.625   5.820   7.851  0.1160  0.1311  0.0819
  193loPI   C5A 3083   8.568   6.078   7.562  0.3189 -0.0299  0.0928
  193loPI   C6A 3084   8.637   6.467   7.302  0.1545  0.0686  0.1350
  193loPI   C1B 3085   8.463   4.657   8.671  0.3574 -0.0456 -0.2588
  193loPI   C2B 3086   8.541   4.816   8.396  0.1215 -0.0714  0.1087
  193loPI   C3B 3087   8.639   5.090   8.089 -0.1251 -0.0166 -0.0902
  193loPI   C4B 3088   8.748   5.327   7.743 -0.1384 -0.2298 -0.0274
  194loPI    C1 3089  15.928  11.833  10.244 -0.1828 -0.1246 -0.1221
  194loPI    C2 3090  15.902  11.469  10.081  0.0066 -0.0589 -0.3043
  194loPI    C3 3091  16.238  11.681  10.042  0.0076  0.0128  0.0623
  194loPI   PO4 3092  15.790  11.971  10.216 -0.2666 -0.0664 -0.1912
  194loPI   GL1 3093  15.726  12.081   9.867  0.2355  0.1141 -0.0988
  194loPI   GL2 3094  15.909  11.831   9.721  0.0195 -0.0786 -0.0637
  194loPI   C1A 3095  15.563  12.246   9.548  0.3221 -0.0276  0.1334
  194loPI   C2A 3096  15.455  12.213   9.154  0.3618  0.1535 -0.0731
  194loPI   C3A 3097  15.294  12.081   8.779 -0.0134  0.1713  0.0957
  194loPI   C4A 3098  15.314  12.138   8.326  0.0357  0.1668  0.0692
  194loPI   C5A 3099  15.150  12.353   8.021 -0.0696 -0.0685  0.2863
  194loPI   C6A 3100  14.844  12.455   7.710 -0.2077  0.0161 -0.1681
  194loPI   C1B 3101  15.906  11.985   9.271  0.1056 -0.0827  0.1981
  194loPI   C2B 3102  15.850  11.982   8.805  0.0164  0.0406  0.1000
  194loPI   C3B 3103  15.737  12.312   8.546  0.0630 -0.1633  0.0156
  194loPI   C4B 3104  15.643  12.463   8.111 -0.2259 -0.0311 -0.0847
  195loPI    C1 3105   3.388   8.853  10.587 -0.2363 -0.1941 -0.2139
  195loPI    C2 3106   3.274   8.580  10.856 -0.3268 -0.0019 -0.0546
  195loPI    C3 3107   3.150   8.959  10.891 -0.1298  0.0797 -0.2228
  195loPI   PO4 3108   3.345   8.753  10.399  0.1817 -0.0762 -0.1072
  195loPI   GL1 3109   3.284   8.700   9.991  0.1106 -0.1195  0.1478
  195loPI   GL2 3110   2.992   8.591   9.913  0.0896 -0.0564  0.1238
  195loPI   C1A 3111   3.177   8.918   9.601  0.1208 -0.0719  0.2019
  195loPI   C2A 3112   3.216   9.146   9.247  0.0076 -0.0764 -0.1394
  195loPI   C3A 3113   3.405   9.353   8.884 -0.1639  0.1407  0.0750
  195loPI   C4A 3114   3.507   9.273   8.418  0.0590 -0.2663  0.0001
  195loPI   C5A 3115   3.656   9.539   8.119 -0.2899  0.0981 -0.3236
  195loPI   C6A 3116   3.729  10.093   8.072  0.0848  0.0206  0.1860
  195loPI   C1B 3117   2.799   8.637   9.628 -0.0089  0.1682 -0.0067
  195loPI   C2B 3118   2.630   8.463   9.334 -0.1815 -0.1053 -0.1274
  195loPI   C3B 3119   2.625   8.523   8.870 -0.2017  0.0717  0.3783
  195loPI   C4B 3120   2.905   8.631   8.525  0.1093  0.4737 -0.0106
  196loPI    C1 3121   0.614   6.578  10.359 -0.5139  0.0502 -0.2223
  196loPI    C2 3122   0.656   6.409  10.719 -0.0359  0.2787 -0.1639
  196loPI    C3 3123   0.667   6.183  10.389 -0.2510  0.0964 -0.0483
  196loPI   PO4 3124   0.413   6.719  10.354  0.1756 -0.0678 -0.4217
  196loPI   GL1 3125   0.333   6.882   9.944 -0.0383  0.3583 -0.0927
  196loPI   GL2 3126   0.145   7.042  10.059 -0.1995 -0.3816 -0.0070
  196loPI   C1A 3127   0.618   6.985   9.615  0.0535 -0.1390  0.0126
  196loPI   C2A 3128   0.646   7.022   9.228 -0.0112  0.0615 -0.1276
  196loPI   C3A 3129   0.551   7.312   9.012  0.0285  0.0315  0.0057
  196loPI   C4A 3130   0.737   7.541   8.812 -0.1535 -0.3845 -0.1030
  196loPI   C5A 3131   1.071   7.764   8.679 -0.1162 -0.0168 -0.0357
  196loPI   C6A 3132   1.007   8.231   8.601  0.2262 -0.1158 -0.0568
  196loPI   C1B 3133   0.118   7.152   9.588  0.0705 -0.0145  0.0486
  196loPI   C2B 3134   0.041   6.946   9.205 -0.0654  0.3139  0.0321
  196loPI   C3B 3135   0.066   6.869   8.786  0.1632 -0.1102 -0.0756
  196loPI   C4B 3136   0.148   6.918   8.284  0.4133 -0.0408  0.0262
  197loPI    C1 3137  14.348   8.983  10.547 -0.0404  0.0469  0.1153
  197loPI    C2 3138  14.716   8.922  10.689 -0.0391 -0.0406  0.0747
  197loPI    C3 3139  14.398   8.860  10.924 -0.0177  0.3478  0.2139
  197loPI   PO4 3140  14.359   8.796  10.295  0.0643  0.4265 -0.1070
  197loPI   GL1 3141  14.247   8.641   9.902  0.1294  0.1923  0.2178
  197loPI   GL2 3142  13.972   8.537   9.713 -0.3146  0.1558  0.1589
  197loPI   C1A 3143  14.479   8.684   9.523 -0.0556  0.0795 -0.0206
  197loPI   C2A 3144  14.368   8.794   9.095 -0.0484 -0.1534 -0.2323
  197loPI   C3A 3145  14.471   8.647   8.678  0.1196  0.1760  0.0446
  197loPI   C4A 3146  14.491   8.668   8.234  0.1990  0.1017 -0.2045
  197loPI   C5A 3147  14.225   8.600   7.848 -0.0116  0.2073 -0.0292
  197loPI   C6A 3148  13.985   8.300   7.491  0.1596  0.1480 -0.0747
  197loPI   C1B 3149  13.910   8.739   9.251  0.0006  0.0540 -0.2840
  197loPI   C2B 3150  13.944   8.808   8.763  0.3061 -0.1202 -0.0054
  197loPI   C3B 3151  13.984   8.805   8.319 -0.0163  0.2939 -0.2071
  197loPI   C4B 3152  14.205   9.121   7.962 -0.0911 -0.1570 -0.0722
  198loPI    C1 3153  11.269   6.976  10.139  0.0487 -0.1647  0.0726
  198loPI    C2 3154  10.907   7.142  10.099  0.1092 -0.0197  0.1193
  198loPI    C3 3155  10.949   6.745  10.074 -0.0792 -0.0518  0.2914
  198loPI   PO4 3156  11.466   7.171  10.142  0.0584 -0.0232  0.0366
  198loPI   GL1 3157  11.744   7.330   9.793 -0.0407  0.1971 -0.1932
  198loPI   GL2 3158  11.989   7.453   9.802  0.1486  0.1776 -0.1272
  198loPI   C1A 3159  11.728   7.623   9.389  0.1696 -0.0047 -0.2038
  198loPI   C2A 3160  11.635   7.575   8.935 -0.1052  0.0080  0.0061
  198loPI   C3A 3161  11.536   7.633   8.589 -0.3256  0.0632  0.1130
  198loPI   C4A 3162  11.365   7.777   8.286 -0.0855 -0.2724 -0.4479
  198loPI   C5A 3163  11.058   7.964   8.008  0.1004 -0.1753 -0.0458
  198loPI   C6A 3164  10.684   7.968   7.879 -0.0171  0.0991 -0.0411
  198loPI   C1B 3165  12.208   7.339   9.459 -0.2374 -0.1613  0.1701
  198loPI   C2B 3166  12.118   7.351   9.114 -0.1225 -0.0656 -0.1222
  198loPI   C3B 3167  12.094   7.414   8.741 -0.0034  0.0330 -0.1082
  198loPI   C4B 3168  12.002   7.676   8.368 -0.0165  0.0459 -0.0232
  199loPI    C1 3169  12.296  13.477  10.563 -0.0989 -0.1030 -0.3560
  199loPI    C2 3170  12.079  13.314  10.857  0.0321  0.1996 -0.0860
  199loPI    C3 3171  12.458  13.424  10.925  0.0160  0.4125 -0.3239
  199loPI   PO4 3172  12.224  13.335  10.338 -0.1707  0.1911  0.0860
  199loPI   GL1 3173  12.151  13.260   9.891 -0.0609 -0.1305  0.0069
  199loPI   GL2 3174  11.979  13.401   9.723  0.0055  0.3963 -0.4016
  199loPI   C1A 3175  12.334  13.180   9.542  0.1008 -0.2522 -0.0726
  199loPI   C2A 3176  12.449  13.194   9.145 -0.1645  0.1845 -0.0224
  199loPI   C3A 3177  12.354  13.156   8.746  0.0591 -0.2302 -0.3157
  199loPI   C4A 3178  12.226  12.992   8.427  0.0047  0.1635  0.3869
  199loPI   C5A 3179  12.335  13.001   8.116 -0.3161 -0.0086  0.0731
  199loPI   C6A 3180  12.271  13.123   7.634  0.1633 -0.0655  0.1882
  199loPI   C1B 3181  11.940  13.260   9.309 -0.0598 -0.0271 -0.0819
  199loPI   C2B 3182  11.898  13.086   8.970 -0.1779 -0.4181  0.2169
  199loPI   C3B 3183  11.753  13.126   8.567 -0.0834  0.1418 -0.2218
  199loPI   C4B 3184  11.755  13.035   8.244 -0.1211  0.0611  0.0061
  200loPI    C1 3185  10.142  11.302  10.359  0.0168  0.1937 -0.0546
  200loPI    C2 3186  10.043  11.635  10.558 -0.4259 -0.1056  0.2424
  200loPI    C3 3187  10.117  11.296  10.758 -0.1262 -0.2276 -0.0656
  200loPI   PO4 3188  10.227  11.410  10.142  0.0664 -0.1116  0.0456
  200loPI   GL1 3189  10.263  11.617   9.713 -0.1777 -0.0054  0.0211
  200loPI   GL2 3190  10.545  11.320   9.562  0.3450  0.3901  0.0146
  200loPI   C1A 3191  10.217  11.589   9.271  0.2052  0.0875  0.1566
  200loPI   C2A 3192  10.198  11.513   8.802 -0.0726  0.1910 -0.4858
  200loPI   C3A 3193  10.374  11.398   8.456  0.1680  0.1669  0.3203
  200loPI   C4A 3194  10.527  11.332   8.048 -0.0986 -0.0017  0.3640
  200loPI   C5A 3195  10.520  11.119   7.692  0.2965 -0.2158  0.0205
  200loPI   C6A 3196  10.490  11.219   7.341  0.0009 -0.2316  0.1829
  200loPI   C1B 3197  10.521  11.184   9.250 -0.4027  0.0071 -0.0256
  200loPI   C2B 3198  10.586  11.094   8.786  0.0349 -0.0959 -0.0318
  200loPI   C3B 3199  10.538  10.944   8.418 -0.0048  0.0273  0.0828
  200loPI   C4B 3200  10.472  10.683   7.995  0.2178 -0.1794  0.2110
  201loPI    C1 3201   6.578  14.235  10.721  0.1046  0.3031 -0.1882
  201loPI    C2 3202   6.953  14.210  10.857  0.0439 -0.0610 -0.0764
  201loPI    C3 3203   6.723  14.520  10.962  0.3048  0.1561 -0.1320
  201loPI   PO4 3204   6.588  14.132  10.447 -0.1868  0.1507 -0.1661
  201loPI   GL1 3205   6.680  14.074  10.011  0.3067 -0.0475 -0.1796
  201loPI   GL2 3206   6.765  14.094   9.707  0.0242 -0.1573  0.0265
  201loPI   C1A 3207   6.258  13.886   9.751 -0.2841  0.1264  0.1589
  201loPI   C2A 3208   6.013  13.997   9.470 -0.1860  0.0561 -0.2689
  201loPI   C3A 3209   5.762  14.285   9.284  0.0390 -0.1501 -0.1242
  201loPI   C4A 3210   5.776  14.358   8.841  0.1687  0.0303  0.2023
  201loPI   C5A 3211   5.731  14.430   8.440 -0.1501 -0.1987 -0.1937
  201loPI   C6A 3212   5.557  14.093   8.148 -0.3022 -0.0304 -0.0382
  201loPI   C1B 3213   6.487  14.030   9.320  0.1739 -0.0797 -0.1134
  201loPI   C2B 3214   6.149  14.057   9.013  0.1024  0.0813 -0.0030
  201loPI   C3B 3215   6.163  14.150   8.607 -0.1964  0.2782 -0.2058
  201loPI   C4B 3216   6.051  14.278   8.122  0.0123  0.2102  0.1133
  202loPI    C1 3217  17.447   6.425  10.603 -0.0800  0.0008 -0.0831
  202loPI    C2 3218  17.522   6.812  10.671  0.1213 -0.0432 -0.0465
  202loPI    C3 3219  17.546   6.548  10.970  0.1367 -0.1066 -0.1034
  202loPI   PO4 3220  17.593   6.326  10.392  0.4280 -0.0739  0.0410
  202loPI   GL1 3221  17.782   6.385   9.992  0.1515  0.2564 -0.2467
  202loPI   GL2 3222  17.712   6.075  10.001 -0.1198 -0.2354  0.0022
  202loPI   C1A 3223  17.457   6.464   9.704  0.1398 -0.2376  0.0555
  202loPI   C2A 3224  17.133   6.302   9.501 -0.2480  0.2810  0.2082
  202loPI   C3A 3225  17.042   6.322   9.036 -0.1331  0.2067  0.0362
  202loPI   C4A 3226  16.857   6.095   8.701  0.0970  0.1558 -0.2370
  202loPI   C5A 3227  16.549   5.938   8.305  0.1763  0.0569 -0.0567
  202loPI   C6A 3228  16.548   5.493   8.309 -0.1488 -0.2012 -0.4406
  202loPI   C1B 3229  17.629   6.013   9.470  0.1306  0.0947 -0.2466
  202loPI   C2B 3230  17.472   6.076   9.109 -0.0122 -0.0268 -0.0248
  202loPI   C3B 3231  17.374   6.126   8.684  0.2127  0.0825 -0.1098
  202loPI   C4B 3232  17.591   6.220   8.365 -0.1540 -0.1573 -0.0833
  203loPI    C1 3233   7.139  16.210  10.459  0.3912 -0.1782 -0.0400
  203loPI    C2 3234   6.853  16.153  10.185  0.2532 -0.0775  0.0811
  203loPI    C3 3235   7.023  15.839  10.365  0.3828 -0.1467 -0.1563
  203loPI   PO4 3236   7.314  16.387  10.296 -0.1677 -0.1602 -0.3853
  203loPI   GL1 3237   7.445  16.260   9.899 -0.1960  0.1075 -0.1972
  203loPI   GL2 3238   7.256  15.975   9.889  0.1132  0.2394  0.0483
  203loPI   C1A 3239   7.587  16.237   9.462 -0.0791  0.0423  0.3083
  203loPI   C2A 3240   7.732  16.234   9.066 -0.2632  0.2204 -0.0251
  203loPI   C3A 3241   7.666  16.200   8.697  0.0999  0.0270  0.0579
  203loPI   C4A 3242   7.689  15.985   8.350  0.0954 -0.1592 -0.1340
  203loPI   C5A 3243   7.421  15.879   8.081  0.0091  0.0236  0.3692
  203loPI   C6A 3244   6.968  15.969   7.807  0.2148 -0.2031 -0.1319
  203loPI   C1B 3245   7.447  15.713   9.531 -0.5301 -0.0896 -0.1565
  203loPI   C2B 3246   7.369  15.688   9.175 -0.0267  0.0743 -0.2621
  203loPI   C3B 3247   7.399  15.850   8.897  0.1277  0.5999  0.0392
  203loPI   C4B 3248   7.119  15.928   8.582  0.1234 -0.1738 -0.0634
  204loPI    C1 3249   5.768  16.124  10.853  0.2879  0.1032  0.0589
  204loPI    C2 3250   5.965  15.884  11.106 -0.1440 -0.1679  0.1478
  204loPI    C3 3251   5.747  16.189  11.247  0.1306  0.0755  0.0556
  204loPI   PO4 3252   5.931  16.128  10.604  0.1885  0.0591 -0.2083
  204loPI   GL1 3253   5.890  16.278  10.080  0.1388  0.0152  0.1933
  204loPI   GL2 3254   5.619  16.394   9.985 -0.0911  0.0182 -0.2332
  204loPI   C1A 3255   5.795  15.970   9.771 -0.0490  0.2314  0.1934
  204loPI   C2A 3256   5.877  15.682   9.507 -0.0679 -0.2285  0.1475
  204loPI   C3A 3257   5.689  15.480   9.145 -0.5672 -0.1602  0.3498
  204loPI   C4A 3258   5.809  15.418   8.682 -0.1503 -0.0814 -0.0314
  204loPI   C5A 3259   5.757  15.282   8.255  0.1917  0.1092  0.0063
  204loPI   C6A 3260   5.515  15.078   7.963 -0.0465 -0.0471  0.0866
  204loPI   C1B 3261   5.361  16.323   9.555 -0.1918  0.2382 -0.1383
  204loPI   C2B 3262   5.222  16.317   9.232 -0.3656  0.1993  0.0347
  204loPI   C3B 3263   5.286  16.232   8.805 -0.2148  0.0087  0.0031
  204loPI   C4B 3264   5.408  16.360   8.301  0.2883  0.1609 -0.0720
  205loPI    C1 3265  13.925   1.423  10.420  0.0143 -0.2952 -0.0143
  205loPI    C2 3266  13.734   1.516  10.759  0.1294  0.0355 -0.0364
  205loPI    C3 3267  13.861   1.142  10.697  0.0769 -0.0351  0.2691
  205loPI   PO4 3268  13.822   1.529  10.187 -0.1154  0.1390 -0.2668
  205loPI   GL1 3269  13.644   1.307   9.912  0.1051  0.0877  0.1805
  205loPI   GL2 3270  13.351   1.124   9.915 -0.1611  0.0184  0.0674
  205loPI   C1A 3271  13.451   1.450   9.527 -0.4083 -0.4124 -0.1350
  205loPI   C2A 3272  13.199   1.736   9.416  0.3734  0.0122  0.2155
  205loPI   C3A 3273  13.221   2.046   9.045  0.0038  0.0290  0.0727
  205loPI   C4A 3274  13.354   1.927   8.655 -0.0107 -0.2261 -0.1152
  205loPI   C5A 3275  13.690   2.043   8.363 -0.0034  0.1139  0.1299
  205loPI   C6A 3276  14.010   1.824   8.106 -0.0479 -0.1203 -0.0825
  205loPI   C1B 3277  13.324   0.977   9.518  0.1898 -0.1461 -0.2697
  205loPI   C2B 3278  13.246   1.166   9.184  0.3441  0.1402 -0.2182
  205loPI   C3B 3279  13.071   1.515   8.998 -0.2542 -0.1933 -0.1257
  205loPI   C4B 3280  12.864   1.778   8.778 -0.1112 -0.0340  0.3705
  206loPI    C1 3281  16.249   7.929  10.403  0.0787  0.0071  0.0461
  206loPI    C2 3282  16.398   8.288  10.310 -0.2310  0.1349  0.0322
  206loPI    C3 3283  16.496   8.115  10.657  0.1063  0.1237 -0.0654
  206loPI   PO4 3284  16.203   7.809  10.256  0.2068  0.2427 -0.0014
  206loPI   GL1 3285  16.096   7.774   9.879 -0.1128  0.2033 -0.0754
  206loPI   GL2 3286  16.041   7.444   9.671  0.0051  0.0242  0.1469
  206loPI   C1A 3287  16.259   8.043   9.446  0.0970 -0.0352 -0.0552
  206loPI   C2A 3288  16.447   8.105   9.118 -0.0732  0.3583  0.0887
  206loPI   C3A 3289  16.483   8.095   8.633  0.0630 -0.1136  0.1465
  206loPI   C4A 3290  16.720   7.968   8.318  0.0145  0.0177  0.0112
  206loPI   C5A 3291  17.143   7.963   8.118 -0.1576  0.0091  0.1056
  206loPI   C6A 3292  17.573   8.087   7.974  0.0259 -0.2268  0.1905
  206loPI   C1B 3293  15.903   7.236   9.345  0.1444 -0.1014 -0.2733
  206loPI   C2B 3294  15.879   7.458   8.969 -0.0006 -0.4135  0.1265
  206loPI   C3B 3295  15.739   7.587   8.531 -0.0117  0.0049  0.2414
  206loPI   C4B 3296  15.470   7.569   8.241  0.0028  0.1551  0.3560
  207loPI    C1 3297  13.445   6.404   9.742  0.3242  0.3079 -0.0223
  207loPI    C2 3298  13.548   6.344  10.123  0.2012 -0.2549 -0.0690
  207loPI    C3 3299  13.801   6.244   9.830  0.1758 -0.1027 -0.1435
  207loPI   PO4 3300  13.226   6.321   9.718 -0.1173  0.0016  0.2683
  207loPI   GL1 3301  12.953   6.147   9.511  0.0022 -0.1929 -0.1140
  207loPI   GL2 3302  12.779   6.004   9.699  0.2131 -0.0001 -0.0750
  207loPI   C1A 3303  12.884   6.190   9.102  0.1318  0.1220  0.1751
  207loPI   C2A 3304  12.936   6.112   8.745 -0.2425 -0.1419  0.1573
  207loPI   C3A 3305  13.085   5.977   8.238  0.2704  0.3403 -0.1646
  207loPI   C4A 3306  13.354   5.637   8.216  0.0033  0.0055 -0.0792
  207loPI   C5A 3307  13.696   5.547   8.013 -0.2067 -0.1899 -0.0255
  207loPI   C6A 3308  14.108   5.373   8.042  0.1722  0.1966  0.1933
  207loPI   C1B 3309  12.467   5.920   9.367  0.0893 -0.2306 -0.2118
  207loPI   C2B 3310  12.681   5.712   8.926  0.1320  0.1226  0.3825
  207loPI   C3B 3311  12.824   5.557   8.381 -0.1868  0.1142 -0.2470
  207loPI   C4B 3312  12.811   5.605   7.924  0.0692 -0.1082  0.1331
  208loPI    C1 3313  14.533  10.570  10.531  0.1620 -0.1174 -0.2393
  208loPI    C2 3314  14.385  10.199  10.556  0.0781 -0.0706 -0.0167
  208loPI    C3 3315  14.521  10.383  10.884 -0.2106  0.2294 -0.0589
  208loPI   PO4 3316  14.659  10.575  10.393 -0.2455  0.1177 -0.1336
  208loPI   GL1 3317  14.666  10.676  10.033  0.1238  0.3400  0.6887
  208loPI   GL2 3318  14.438  10.910   9.877 -0.0291 -0.1548  0.0946
  208loPI   C1A 3319  14.791  10.542   9.642 -0.0810  0.1059 -0.0742
  208loPI   C2A 3320  14.825  10.601   9.203  0.1649 -0.2382 -0.0585
  208loPI   C3A 3321  14.886  10.580   8.771  0.3252  0.2917  0.1560
  208loPI   C4A 3322  14.967  10.784   8.392  0.1875 -0.1964 -0.1524
  208loPI   C5A 3323  14.972  10.835   8.043 -0.1819  0.1247  0.0121
  208loPI   C6A 3324  14.822  10.637   7.776 -0.0806 -0.0916  0.3781
  208loPI   C1B 3325  14.449  10.905   9.461 -0.3229 -0.1397 -0.2658
  208loPI   C2B 3326  14.440  10.907   8.992 -0.7207 -0.2557  0.1034
  208loPI   C3B 3327  14.472  10.936   8.552 -0.5495  0.1402  0.2745
  208loPI   C4B 3328  14.368  10.947   8.104 -0.1475  0.1989 -0.1656
  209loPI    C1 3329  11.479  16.390  10.495 -0.1119  0.5892 -0.0197
  209loPI    C2 3330  11.548  16.458  10.884 -0.2980  0.1631  0.0934
  209loPI    C3 3331  11.175  16.476  10.741 -0.2832 -0.0758  0.0201
  209loPI   PO4 3332  11.641  16.189  10.405  0.1232  0.3286 -0.0124
  209loPI   GL1 3333  11.605  16.121   9.998  0.0754  0.3020  0.0580
  209loPI   GL2 3334  11.289  16.291   9.998 -0.0562  0.2792 -0.0196
  209loPI   C1A 3335  11.974  15.948   9.633 -0.0954  0.1925 -0.0796
  209loPI   C2A 3336  12.199  15.961   9.252  0.1653  0.1146 -0.3750
  209loPI   C3A 3337  12.339  16.274   9.003 -0.1354  0.0278  0.0428
  209loPI   C4A 3338  12.230  16.587   8.653  0.1351  0.1884  0.3185
  209loPI   C5A 3339  12.449  16.762   8.315 -0.1507 -0.0584  0.0343
  209loPI   C6A 3340  12.543  16.955   7.928  0.1787  0.1478  0.3066
  209loPI   C1B 3341  11.168  16.146   9.534 -0.0407  0.0148 -0.4038
  209loPI   C2B 3342  11.088  15.966   9.172  0.2021 -0.1789 -0.1320
  209loPI   C3B 3343  10.805  15.516   9.137  0.1100  0.0618 -0.0348
  209loPI   C4B 3344  10.712  15.248   9.385 -0.2925  0.0044  0.0382
  210loPI    C1 3345   7.879   5.617   9.801 -0.0189 -0.1250 -0.2009
  210loPI    C2 3346   7.949   5.283  10.010 -0.0933 -0.0570 -0.0656
  210loPI    C3 3347   7.783   5.600  10.189 -0.1154  0.0185 -0.2176
  210loPI   PO4 3348   8.005   5.548   9.564 -0.0739  0.1465 -0.2066
  210loPI   GL1 3349   8.003   5.458   9.132 -0.1827 -0.2721  0.1450
  210loPI   GL2 3350   8.410   5.633   9.232  0.3991  0.2605  0.0951
  210loPI   C1A 3351   8.169   5.510   8.824 -0.2317 -0.0256 -0.2555
  210loPI   C2A 3352   8.120   5.541   8.386  0.2280 -0.0717  0.1295
  210loPI   C3A 3353   8.284   5.409   7.970  0.2849 -0.5160  0.0065
  210loPI   C4A 3354   8.425   5.512   7.445  0.0090 -0.1319  0.0614
  210loPI   C5A 3355   8.772   5.692   7.232  0.2428 -0.2144 -0.0035
  210loPI   C6A 3356   8.996   6.045   7.307  0.3165  0.1903 -0.0596
  210loPI   C1B 3357   8.616   5.663   8.808  0.0092 -0.1888  0.1388
  210loPI   C2B 3358   8.929   5.879   8.561 -0.0750 -0.0721 -0.0059
  210loPI   C3B 3359   9.070   5.918   8.189  0.2004 -0.1000 -0.2206
  210loPI   C4B 3360   9.112   5.721   7.740  0.2922 -0.0177 -0.1372
  211loPI    C1 3361  11.255  14.624  10.306 -0.1920  0.0098  0.1471
  211loPI    C2 3362  11.297  14.243  10.422 -0.3135 -0.0923 -0.1341
  211loPI    C3 3363  11.121  14.508  10.665 -0.2110 -0.2094  0.0711
  211loPI   PO4 3364  11.076  14.561  10.081 -0.0783 -0.1830 -0.0288
  211loPI   GL1 3365  11.210  14.592   9.635 -0.1308 -0.0007  0.1069
  211loPI   GL2 3366  10.916  14.396   9.633 -0.2232 -0.0942  0.0166
  211loPI   C1A 3367  10.987  14.817   9.389  0.0923  0.1042 -0.2460
  211loPI   C2A 3368  10.710  14.843   8.988 -0.1536  0.3384  0.0684
  211loPI   C3A 3369  10.562  14.922   8.574  0.0893 -0.1654  0.0749
  211loPI   C4A 3370  10.430  14.674   8.276 -0.1367  0.1375  0.2073
  211loPI   C5A 3371  10.376  14.273   7.991 -0.2243 -0.0720 -0.1588
  211loPI   C6A 3372  10.225  13.952   7.812 -0.2382 -0.2974 -0.1563
  211loPI   C1B 3373  11.208  14.433   9.188  0.1203  0.1569  0.2114
  211loPI   C2B 3374  11.092  14.622   8.738  0.1152 -0.3401 -0.0162
  211loPI   C3B 3375  11.044  14.618   8.271 -0.1034  0.1072  0.3113
  211loPI   C4B 3376  10.809  14.500   7.918  0.0181  0.0388 -0.0863
  212loPI    C1 3377   4.484   0.047  10.638 -0.0651 -0.1386  0.0317
  212loPI    C2 3378   4.251  -0.002  10.960 -0.2024  0.1765 -0.0161
  212loPI    C3 3379   4.636   0.099  11.004 -0.0945 -0.2517  0.0601
  212loPI   PO4 3380   4.382   0.220  10.438  0.3481 -0.0968 -0.1291
  212loPI   GL1 3381   4.400   0.323   9.953  0.1230 -0.0950 -0.1555
  212loPI   GL2 3382   4.205   0.422   9.586  0.2238 -0.1500  0.0022
  212loPI   C1A 3383   4.594   0.103   9.636 -0.0737 -0.0206  0.3979
  212loPI   C2A 3384   4.644   0.226   9.186  0.0096  0.1365  0.0171
  212loPI   C3A 3385   4.674   0.424   8.807 -0.1865 -0.1124 -0.1512
  212loPI   C4A 3386   4.517   0.315   8.332  0.0022 -0.1541  0.0223
  212loPI   C5A 3387   4.665   0.411   7.874 -0.1505 -0.0366 -0.3312
  212loPI   C6A 3388   5.084   0.299   7.762  0.0584 -0.0372 -0.0700
  212loPI   C1B 3389   4.172   0.385   9.186 -0.0163  0.0189 -0.3768
  212loPI   C2B 3390   4.210   0.531   8.767  0.0749 -0.0588  0.1633
  212loPI   C3B 3391   4.082   0.890   8.588  0.2005 -0.1239 -0.1887
  212loPI   C4B 3392   4.067   1.081   8.243 -0.0901 -0.1874 -0.0602
  213loPI    C1 3393  13.248  13.317  10.296  0.0238  0.0040 -0.0272
  213loPI    C2 3394  13.423  13.674  10.259 -0.1933  0.1069 -0.0783
  213loPI    C3 3395  13.299  13.549  10.618 -0.0666  0.0575 -0.0512
  213loPI   PO4 3396  13.038  13.252  10.187  0.1626  0.0818 -0.1522
  213loPI   GL1 3397  13.069  12.912   9.867  0.0230 -0.1889 -0.1578
  213loPI   GL2 3398  12.795  13.069   9.806  0.0783 -0.0005  0.1773
  213loPI   C1A 3399  13.092  12.647   9.512  0.0928  0.2574  0.0276
  213loPI   C2A 3400  13.156  12.529   9.086  0.1097 -0.1890  0.2771
  213loPI   C3A 3401  13.217  12.385   8.670 -0.0671 -0.2657 -0.1687
  213loPI   C4A 3402  13.218  12.629   8.350  0.1366 -0.2364 -0.1571
  213loPI   C5A 3403  13.067  13.022   8.088  0.1093  0.5886  0.1921
  213loPI   C6A 3404  13.278  13.447   8.235 -0.0128 -0.2051  0.0402
  213loPI   C1B 3405  12.903  13.258   9.409 -0.1698 -0.0506 -0.1745
  213loPI   C2B 3406  12.961  13.262   9.026  0.1866 -0.1004 -0.0231
  213loPI   C3B 3407  13.100  13.633   8.769  0.0724  0.0109  0.3689
  213loPI   C4B 3408  13.386  13.891   8.605  0.0107  0.1658 -0.3939
  214loPI    C1 3409   5.717   4.000   9.768  0.1902  0.0289 -0.2947
  214loPI    C2 3410   5.739   4.190  10.119  0.1928  0.0639 -0.3137
  214loPI    C3 3411   5.593   3.818  10.102 -0.0379  0.1523 -0.3095
  214loPI   PO4 3412   5.610   4.160   9.616  0.3634  0.3131  0.1417
  214loPI   GL1 3413   5.566   4.293   9.239  0.0994 -0.0857  0.0734
  214loPI   GL2 3414   5.227   4.452   9.131  0.0716  0.2461 -0.1058
  214loPI   C1A 3415   5.712   4.373   8.790  0.1581  0.3011 -0.0062
  214loPI   C2A 3416   5.628   4.535   8.401  0.0248 -0.2345 -0.0036
  214loPI   C3A 3417   5.506   4.782   8.147  0.0200  0.0154  0.0623
  214loPI   C4A 3418   5.226   4.775   7.830  0.0805  0.0620 -0.0908
  214loPI   C5A 3419   4.809   4.790   7.837 -0.1269  0.5813 -0.0071
  214loPI   C6A 3420   4.374   4.812   7.487 -0.1323 -0.1736  0.0507
  214loPI   C1B 3421   5.241   4.555   8.720  0.0391 -0.0238  0.3711
  214loPI   C2B 3422   5.050   4.511   8.360  0.0649  0.3350  0.1247
  214loPI   C3B 3423   5.062   4.328   7.986  0.3193 -0.3379  0.0290
  214loPI   C4B 3424   4.645   4.329   7.718 -0.3878 -0.1505 -0.1526
  215loPI    C1 3425  16.834  17.041  10.363  0.0653 -0.0349  0.1110
  215loPI    C2 3426  16.744  17.027   9.973 -0.0834 -0.0708  0.1459
  215loPI    C3 3427  17.063  16.830  10.111 -0.0072 -0.0254  0.0363
  215loPI   PO4 3428  16.835  17.342  10.425 -0.0436 -0.2034  0.0653
  215loPI   GL1 3429  16.818  17.764  10.099 -0.0487 -0.1964  0.2072
  215loPI   GL2 3430  17.061  17.467   9.831 -0.0003  0.2817 -0.1046
  215loPI   C1A 3431  16.716  17.826   9.626  0.1324  0.0977  0.1513
  215loPI   C2A 3432  16.488  18.048   9.317  0.1613 -0.0645 -0.0273
  215loPI   C3A 3433  16.403  17.987   8.858  0.1734 -0.2919 -0.4067
  215loPI   C4A 3434  16.461  17.970   8.388  0.2480 -0.1959  0.1794
  215loPI   C5A 3435  16.191  18.250   8.098 -0.2051  0.4016  0.0037
  215loPI   C6A 3436  16.224  18.388   7.717  0.0176 -0.0718 -0.0773
  215loPI   C1B 3437  17.150  17.598   9.414 -0.1629 -0.2670 -0.0935
  215loPI   C2B 3438  17.197  17.459   8.986  0.1330  0.1406 -0.1020
  215loPI   C3B 3439  17.178  17.519   8.606  0.4461 -0.3793  0.3134
  215loPI   C4B 3440  17.283  17.680   8.166 -0.1088  0.0157  0.1908
  216loPI    C1 3441   8.203  16.972  10.374  0.1069  0.0544 -0.1117
  216loPI    C2 3442   8.530  17.183  10.281  0.2073 -0.0189  0.0694
  216loPI    C3 3443   8.402  17.169  10.660 -0.0103  0.0138 -0.0011
  216loPI   PO4 3444   8.289  16.714  10.147 -0.0676  0.0486  0.0591
  216loPI   GL1 3445   8.517  16.872   9.793 -0.0549  0.1147 -0.2815
  216loPI   GL2 3446   8.456  17.252   9.748  0.1263  0.2527 -0.0613
  216loPI   C1A 3447   8.611  16.882   9.426 -0.0991  0.0161  0.0845
  216loPI   C2A 3448   8.675  16.917   9.023 -0.0994  0.2145  0.0404
  216loPI   C3A 3449   8.594  16.866   8.600  0.0036  0.1201 -0.1436
  216loPI   C4A 3450   8.677  17.156   8.117 -0.2142  0.4308 -0.1488
  216loPI   C5A 3451   8.742  17.136   7.666 -0.0903  0.2479 -0.2491
  216loPI   C6A 3452   8.611  17.270   7.158  0.2113  0.1634 -0.5475
  216loPI   C1B 3453   8.614  17.402   9.365 -0.1031  0.1596 -0.3030
  216loPI   C2B 3454   8.625  17.363   8.978 -0.3761 -0.1581  0.0966
  216loPI   C3B 3455   8.696  17.355   8.628  0.1447  0.2365 -0.2008
  216loPI   C4B 3456   8.949  17.481   8.358  0.2724  0.0754 -0.1021
  217loPI    C1 3457   2.339   3.352  10.641  0.1138 -0.0673  0.0364
  217loPI    C2 3458   2.180   3.072  10.878  0.0161  0.0260  0.0820
  217loPI    C3 3459   1.963   3.391  10.773  0.1199  0.0743  0.0130
  217loPI   PO4 3460   2.374   3.248  10.305 -0.4144 -0.0351  0.0741
  217loPI   GL1 3461   2.124   3.136   9.930 -0.0198 -0.1262  0.1879
  217loPI   GL2 3462   2.136   2.826   9.920  0.1046  0.1611  0.2974
  217loPI   C1A 3463   2.444   3.289   9.560 -0.3048  0.1290 -0.0763
  217loPI   C2A 3464   2.843   3.381   9.330 -0.0883 -0.0788 -0.0111
  217loPI   C3A 3465   3.206   3.468   9.063 -0.0974  0.2686  0.0146
  217loPI   C4A 3466   3.227   3.283   8.606  0.1800  0.2004 -0.1559
  217loPI   C5A 3467   3.044   3.097   8.191  0.0054  0.2888 -0.3185
  217loPI   C6A 3468   3.028   2.642   8.083 -0.3078 -0.2462  0.2569
  217loPI   C1B 3469   2.186   2.817   9.509 -0.0291 -0.2257  0.1625
  217loPI   C2B 3470   2.000   2.864   9.104 -0.2591  0.0820  0.0444
  217loPI   C3B 3471   1.898   2.966   8.691  0.2215 -0.0433  0.0016
  217loPI   C4B 3472   2.153   2.996   8.293  0.1168 -0.2450 -0.1483
  218loPI    C1 3473  18.388  13.292  10.703  0.0883 -0.0950 -0.0282
  218loPI    C2 3474  18.700  13.496  10.847 -0.0393  0.2212 -0.1904
  218loPI    C3 3475  18.327  13.613  10.933 -0.1235 -0.3366  0.2611
  218loPI   PO4 3476  18.519  13.242  10.403  0.1485  0.0287 -0.0561
  218loPI   GL1 3477  18.370  13.266  10.025 -0.2107 -0.3229  0.0143
  218loPI   GL2 3478  18.194  13.396   9.950 -0.2126  0.3168  0.1539
  218loPI   C1A 3479  18.657  13.473   9.680 -0.2912  0.1583  0.0592
  218loPI   C2A 3480  18.971  13.742   9.520 -0.1659  0.1839  0.0383
  218loPI   C3A 3481  19.096  13.915   9.226  0.0446 -0.1631 -0.0005
  218loPI   C4A 3482  19.251  13.885   8.828  0.4357  0.0198 -0.0866
  218loPI   C5A 3483  19.240  14.132   8.489  0.2309  0.0208  0.0275
  218loPI   C6A 3484  19.148  14.384   8.094  0.1678 -0.0853 -0.1722
  218loPI   C1B 3485  18.185  13.290   9.574 -0.1599 -0.2104  0.0954
  218loPI   C2B 3486  17.921  13.123   9.284  0.0692 -0.2198 -0.1947
  218loPI   C3B 3487  17.737  12.869   9.013 -0.3019  0.2575 -0.2836
  218loPI   C4B 3488  17.497  12.702   8.639 -0.0044 -0.1401 -0.1467
  219loPI    C1 3489   9.595  12.488  10.171  0.2136  0.0238 -0.1328
  219loPI    C2 3490   9.768  12.816  10.321 -0.0758  0.1150  0.0104
  219loPI    C3 3491   9.780  12.473  10.526 -0.0062  0.1034 -0.0126
  219loPI   PO4 3492   9.362  12.565  10.119  0.2503 -0.0253  0.2180
  219loPI   GL1 3493   9.128  12.873   9.845  0.0733 -0.2027 -0.1513
  219loPI   GL2 3494   9.310  12.675   9.548 -0.1018  0.0427 -0.1956
  219loPI   C1A 3495   9.001  13.041   9.444  0.0285  0.0044  0.0651
  219loPI   C2A 3496   9.125  13.069   8.985 -0.1964  0.1991  0.1203
  219loPI   C3A 3497   9.381  13.041   8.601  0.2504 -0.0165 -0.1099
  219loPI   C4A 3498   9.393  12.856   8.176 -0.0753  0.0269 -0.0171
  219loPI   C5A 3499   9.231  12.813   7.690 -0.0069 -0.1205  0.2514
  219loPI   C6A 3500   9.061  12.811   7.339 -0.3266 -0.4810  0.0631
  219loPI   C1B 3501   9.252  12.611   9.128  0.3273  0.2537  0.0236
  219loPI   C2B 3502   9.086  12.510   8.746  0.0206 -0.0252  0.2097
  219loPI   C3B 3503   8.742  12.437   8.324 -0.0011  0.0525  0.0744
  219loPI   C4B 3504   8.388  12.425   8.018 -0.0468  0.0559  0.2101
  220loPI    C1 3505   7.920  12.060  10.591  0.2889  0.2795  0.1284
  220loPI    C2 3506   7.897  11.855  10.933  0.0283 -0.0503 -0.0809
  220loPI    C3 3507   7.690  12.194  10.889  0.1780  0.0720  0.1381
  220loPI   PO4 3508   7.822  11.851  10.401 -0.0246 -0.0359  0.1053
  220loPI   GL1 3509   7.575  11.820  10.030  0.1502  0.3034 -0.0418
  220loPI   GL2 3510   7.366  12.081   9.954 -0.1381  0.2056  0.1778
  220loPI   C1A 3511   7.890  11.570   9.712  0.0215  0.0519  0.1507
  220loPI   C2A 3512   7.859  11.527   9.245 -0.2051  0.2652  0.0452
  220loPI   C3A 3513   7.744  11.380   8.883  0.1303  0.1324 -0.0011
  220loPI   C4A 3514   7.733  11.257   8.499 -0.0394  0.0999 -0.0553
  220loPI   C5A 3515   7.797  11.292   8.101  0.1138  0.0368 -0.1148
  220loPI   C6A 3516   8.054  11.369   7.711  0.0980 -0.1048 -0.2471
  220loPI   C1B 3517   7.415  11.871   9.548  0.2022  0.2001  0.0823
  220loPI   C2B 3518   7.507  11.839   9.144 -0.0004  0.1192 -0.1630
  220loPI   C3B 3519   7.448  11.690   8.711  0.0157 -0.1096 -0.1768
  220loPI   C4B 3520   7.710  11.753   8.422 -0.0610  0.0416  0.0368
  221loPI    C1 3521   0.425   2.737  10.574  0.0354  0.1293  0.0028
  221loPI    C2 3522   0.075   2.810  10.754 -0.0708  0.1807 -0.2213
  221loPI    C3 3523   0.254   2.455  10.802 -0.0183  0.2483  0.1109
  221loPI   PO4 3524   0.339   2.823  10.295 -0.1182 -0.2234 -0.1062
  221loPI   GL1 3525   0.676   2.988   9.915  0.0050 -0.2087 -0.1143
  221loPI   GL2 3526   1.016   2.916   9.897 -0.2811 -0.1031 -0.0970
  221loPI   C1A 3527   0.798   3.302   9.586  0.0900  0.0521 -0.0604
  221loPI   C2A 3528   0.821   3.586   9.237 -0.1063  0.2315  0.3589
  221loPI   C3A 3529   0.845   3.962   8.945 -0.1308  0.2009  0.0573
  221loPI   C4A 3530   0.884   3.966   8.475 -0.0989  0.0289 -0.0116
  221loPI   C5A 3531   1.018   4.003   8.081 -0.2188  0.1176  0.1011
  221loPI   C6A 3532   1.053   4.129   7.615  0.1147 -0.1449  0.1914
  221loPI   C1B 3533   1.160   2.937   9.472 -0.0859 -0.0169 -0.0374
  221loPI   C2B 3534   1.108   3.060   9.099 -0.1372  0.0372  0.0559
  221loPI   C3B 3535   1.150   3.196   8.726  0.2067 -0.0589  0.1189
  221loPI   C4B 3536   1.100   3.521   8.536 -0.0916  0.0409 -0.0705
  222loPI    C1 3537   7.501  17.352  10.350 -0.0423  0.0035 -0.0738
  222loPI    C2 3538   7.437  17.586  10.032 -0.0864  0.0349 -0.0421
  222loPI    C3 3539   7.331  17.711  10.397 -0.0650 -0.0142 -0.0188
  222loPI   PO4 3540   7.665  17.200  10.198 -0.1496 -0.2795 -0.1235
  222loPI   GL1 3541   7.500  16.946   9.870  0.1180  0.3495 -0.1168
  222loPI   GL2 3542   7.505  17.192   9.757 -0.0612 -0.2607 -0.0387
  222loPI   C1A 3543   7.572  16.692   9.612  0.0363  0.0060  0.2079
  222loPI   C2A 3544   7.615  16.732   9.239  0.1619  0.0399 -0.0470
  222loPI   C3A 3545   7.726  16.681   8.828  0.0055  0.0285 -0.0298
  222loPI   C4A 3546   7.650  16.582   8.347 -0.0835 -0.1894 -0.2843
  222loPI   C5A 3547   7.578  16.374   8.011 -0.0395  0.0647 -0.0818
  222loPI   C6A 3548   7.378  16.225   7.653  0.1932  0.1196  0.1316
  222loPI   C1B 3549   7.489  17.223   9.325 -0.0373  0.1551 -0.1138
  222loPI   C2B 3550   7.615  17.182   8.887 -0.1818  0.2122 -0.2692
  222loPI   C3B 3551   7.766  17.056   8.548 -0.1547 -0.1093 -0.1166
  222loPI   C4B 3552   7.867  17.012   8.076 -0.1473 -0.0593  0.1313
  223loPI    C1 3553  12.908  12.825  10.379 -0.1551 -0.0899  0.0924
  223loPI    C2 3554  12.881  12.808  10.778 -0.1334  0.1034  0.1030
  223loPI    C3 3555  12.756  13.134  10.583  0.2707  0.1963 -0.0109
  223loPI   PO4 3556  13.239  12.726  10.317 -0.1836  0.1534 -0.0628
  223loPI   GL1 3557  13.459  12.568   9.906  0.3880 -0.1488  0.0822
  223loPI   GL2 3558  13.310  12.302   9.721  0.0050 -0.1247  0.1166
  223loPI   C1A 3559  13.550  12.928   9.571  0.0351  0.0630 -0.0301
  223loPI   C2A 3560  13.308  12.985   9.178 -0.3062  0.2149  0.0196
  223loPI   C3A 3561  13.456  12.871   8.817 -0.0414 -0.0112  0.1980
  223loPI   C4A 3562  13.172  13.112   8.581  0.4215 -0.2342  0.0350
  223loPI   C5A 3563  12.783  13.266   8.389  0.0104 -0.2645  0.2345
  223loPI   C6A 3564  12.528  13.434   7.954  0.1306  0.0061  0.0829
  223loPI   C1B 3565  13.620  12.367   9.344  0.1075 -0.4296 -0.2079
  223loPI   C2B 3566  13.681  12.406   8.919  0.1929  0.1057 -0.2581
  223loPI   C3B 3567  13.688  12.562   8.489 -0.0091 -0.0662 -0.2139
  223loPI   C4B 3568  13.561  13.016   8.265  0.0652 -0.0311  0.0292
  224loPI    C1 3569   5.262   9.149  10.361  0.0234  0.1224  0.0348
  224loPI    C2 3570   5.530   9.325  10.600 -0.0030  0.0793  0.0964
  224loPI    C3 3571   5.238   9.101  10.757  0.1166 -0.1400  0.0104
  224loPI   PO4 3572   5.032   9.356  10.239  0.1115  0.0707 -0.3868
  224loPI   GL1 3573   5.050   9.580   9.941 -0.1675  0.0158  0.2528
  224loPI   GL2 3574   5.113   9.785   9.782  0.1079 -0.0936 -0.2732
  224loPI   C1A 3575   5.141   9.268   9.577 -0.1180 -0.1055  0.2076
  224loPI   C2A 3576   5.308   9.174   9.230  0.0108  0.1558 -0.1041
  224loPI   C3A 3577   5.386   9.179   8.820  0.2997  0.3615  0.0047
  224loPI   C4A 3578   5.444   9.101   8.410 -0.2554 -0.0072 -0.1902
  224loPI   C5A 3579   5.621   9.040   8.008 -0.1230 -0.2473 -0.0061
  224loPI   C6A 3580   5.571   8.597   7.701  0.0258 -0.1665  0.1421
  224loPI   C1B 3581   5.087   9.719   9.328  0.0492  0.1524  0.1418
  224loPI   C2B 3582   4.978   9.689   9.003  0.0327 -0.0690 -0.1023
  224loPI   C3B 3583   4.754   9.587   8.640  0.2537  0.0911 -0.0595
  224loPI   C4B 3584   4.503   9.408   8.350  0.1078 -0.0618  0.5083
  225loPI    C1 3585   3.763  10.844  10.458 -0.0757 -0.0800 -0.0063
  225loPI    C2 3586   3.366  10.823  10.498 -0.0786 -0.1968 -0.0891
  225loPI    C3 3587   3.601  10.572  10.702 -0.0513 -0.1869 -0.1085
  225loPI   PO4 3588   3.826  10.760  10.238  0.0242  0.0023 -0.2398
  225loPI   GL1 3589   3.850  10.642   9.890  0.1614 -0.0481  0.4179
  225loPI   GL2 3590   3.605  10.643   9.594 -0.0348  0.3000 -0.1053
  225loPI   C1A 3591   4.162  10.592   9.515 -0.0503 -0.0348  0.0598
  225loPI   C2A 3592   4.532  10.426   9.406  0.1788 -0.0885 -0.0291
  225loPI   C3A 3593   4.737  10.181   9.126  0.1446  0.2839  0.4527
  225loPI   C4A 3594   4.600  10.036   8.745  0.1227 -0.1133  0.2312
  225loPI   C5A 3595   4.574  10.131   8.267  0.1536  0.2439  0.2259
  225loPI   C6A 3596   4.140  10.361   8.133 -0.3512  0.3401 -0.1118
  225loPI   C1B 3597   3.756  10.763   9.270 -0.2143 -0.0483 -0.0359
  225loPI   C2B 3598   4.030  10.450   9.044  0.2149  0.0723  0.0551
  225loPI   C3B 3599   4.378  10.446   8.897  0.0181  0.1476 -0.2920
  225loPI   C4B 3600   4.774  10.588   8.802 -0.1520  0.1490 -0.2229
  226loPI    C1 3601   8.713  14.803  10.679  0.0542  0.0089  0.1148
  226loPI    C2 3602   8.536  14.463  10.794  0.2304 -0.0917  0.0934
  226loPI    C3 3603   8.500  14.793  11.018 -0.0156 -0.0995  0.0686
  226loPI   PO4 3604   8.594  14.952  10.453 -0.1188  0.1795 -0.1224
  226loPI   GL1 3605   8.456  14.913  10.031  0.1345  0.0909 -0.5286
  226loPI   GL2 3606   8.364  15.163   9.888  0.1040  0.2136 -0.4684
  226loPI   C1A 3607   8.572  14.827   9.546 -0.2738  0.2173 -0.0734
  226loPI   C2A 3608   8.612  14.907   9.087 -0.3709  0.1728 -0.1176
  226loPI   C3A 3609   8.460  14.790   8.704 -0.2515  0.0280  0.2279
  226loPI   C4A 3610   8.299  15.003   8.269 -0.0646  0.1750 -0.4005
  226loPI   C5A 3611   8.102  14.805   7.835  0.1101 -0.1477 -0.0103
  226loPI   C6A 3612   7.768  15.042   7.669 -0.1158  0.0195 -0.0366
  226loPI   C1B 3613   8.360  15.301   9.430 -0.0508  0.3221 -0.2571
  226loPI   C2B 3614   8.375  15.332   9.031  0.2090  0.0075 -0.0151
  226loPI   C3B 3615   8.099  15.194   8.752  0.1376 -0.1513  0.1476
  226loPI   C4B 3616   7.874  15.253   8.366 -0.2821 -0.2961  0.2792
  227loPI    C1 3617   2.880   7.543  10.585  0.0163 -0.0068 -0.0524
  227loPI    C2 3618   2.678   7.213  10.486 -0.0489  0.1205 -0.3565
  227loPI    C3 3619   3.072   7.195  10.548 -0.0520 -0.0132 -0.3726
  227loPI   PO4 3620   2.861   7.715  10.335  0.3682 -0.0075  0.1296
  227loPI   GL1 3621   2.985   7.832   9.927 -0.4355  0.2578 -0.1312
  227loPI   GL2 3622   2.914   7.677   9.688 -0.2640  0.2273  0.1338
  227loPI   C1A 3623   3.110   8.161   9.626  0.2601 -0.1361 -0.2711
  227loPI   C2A 3624   3.173   8.479   9.310 -0.2880 -0.0406  0.4465
  227loPI   C3A 3625   3.049   8.707   9.043  0.0116 -0.0303 -0.0166
  227loPI   C4A 3626   3.229   8.930   8.699  0.1394  0.0637 -0.3902
  227loPI   C5A 3627   3.339   8.736   8.387 -0.0821 -0.1269 -0.1998
  227loPI   C6A 3628   3.502   8.467   7.990  0.1441  0.3795 -0.0094
  227loPI   C1B 3629   2.790   7.268   9.560 -0.2065  0.1320  0.1108
  227loPI   C2B 3630   2.700   7.101   9.202  0.2018  0.2106 -0.0036
  227loPI   C3B 3631   2.522   7.119   8.704  0.0519  0.1564 -0.1462
  227loPI   C4B 3632   2.193   7.116   8.441 -0.0436 -0.1709  0.3588
  228loPI    C1 3633  10.447   0.575  10.323 -0.0357 -0.0730  0.2691
  228loPI    C2 3634  10.447   0.880  10.582  0.0246 -0.0753  0.2718
  228loPI    C3 3635  10.640   0.541  10.672  0.0537 -0.0725  0.2201
  228loPI   PO4 3636  10.484   0.683  10.146  0.3281 -0.0200  0.4040
  228loPI   GL1 3637  10.522   0.748   9.780 -0.1818  0.0106  0.0492
  228loPI   GL2 3638  10.797   1.040   9.822  0.0691 -0.0299 -0.1310
  228loPI   C1A 3639  10.580   0.914   9.427  0.1587  0.0655  0.1105
  228loPI   C2A 3640  10.569   0.881   8.983  0.0806  0.0283  0.0589
  228loPI   C3A 3641  10.523   0.892   8.554 -0.1280  0.0230  0.0579
  228loPI   C4A 3642  10.292   0.685   8.209 -0.1282 -0.0681  0.4833
  228loPI   C5A 3643  10.137   0.614   7.817  0.1517  0.0562 -0.0094
  228loPI   C6A 3644  10.356   0.393   7.501 -0.0171 -0.2252  0.0705
  228loPI   C1B 3645  11.041   0.910   9.611  0.0234  0.0347 -0.2042
  228loPI   C2B 3646  11.039   0.815   9.123 -0.0397  0.1536 -0.0460
  228loPI   C3B 3647  10.997   0.693   8.722 -0.1594  0.0831 -0.2608
  228loPI   C4B 3648  11.185   0.635   8.303  0.0466  0.0677 -0.3174
  229loPI    C1 3649  12.980   5.725  10.359  0.0145  0.0610  0.1125
  229loPI    C2 3650  13.062   6.067  10.168 -0.0935  0.1859  0.2867
  229loPI    C3 3651  12.894   6.076  10.531 -0.1812 -0.0541  0.2540
  229loPI   PO4 3652  13.043   5.588   9.962 -0.0351 -0.1570 -0.4309
  229loPI   GL1 3653  12.918   5.529   9.526  0.1232 -0.1203 -0.1344
  229loPI   GL2 3654  13.076   5.242   9.532 -0.2285 -0.1073 -0.0362
  229loPI   C1A 3655  13.038   5.677   9.208  0.0553 -0.2051 -0.2502
  229loPI   C2A 3656  13.302   5.908   9.086  0.1105 -0.1780  0.0979
  229loPI   C3A 3657  13.431   5.959   8.665 -0.1495  0.1241  0.3273
  229loPI   C4A 3658  13.571   6.081   8.248 -0.3381  0.0035 -0.1450
  229loPI   C5A 3659  13.717   6.263   7.875  0.3161 -0.2534  0.2119
  229loPI   C6A 3660  13.670   6.175   7.510 -0.2871 -0.1403  0.1568
  229loPI   C1B 3661  12.941   5.071   9.278 -0.2308 -0.2017 -0.3264
  229loPI   C2B 3662  12.890   5.197   8.869  0.3371  0.2991 -0.2259
  229loPI   C3B 3663  12.736   5.024   8.443 -0.2161  0.1193 -0.3119
  229loPI   C4B 3664  12.678   5.016   7.998  0.1403 -0.1959  0.0544
  230loPI    C1 3665   4.359   7.638   9.970 -0.0098  0.2027 -0.1050
  230loPI    C2 3666   4.428   7.525  10.347  0.1790  0.1718 -0.1476
  230loPI    C3 3667   4.386   7.913  10.259  0.1726  0.1817 -0.1009
  230loPI   PO4 3668   4.356   7.418   9.866 -0.0818  0.3289 -0.1019
  230loPI   GL1 3669   4.437   7.298   9.484  0.1484 -0.0081 -0.0391
  230loPI   GL2 3670   4.732   7.252   9.266  0.1033  0.1815 -0.2881
  230loPI   C1A 3671   4.193   7.296   9.144  0.2912 -0.3190  0.2868
  230loPI   C2A 3672   4.095   7.584   8.774 -0.3705 -0.2715 -0.2541
  230loPI   C3A 3673   3.916   7.707   8.391 -0.2248 -0.2048 -0.0607
  230loPI   C4A 3674   3.610   7.761   8.073  0.3922  0.1741  0.4088
  230loPI   C5A 3675   3.204   7.966   7.941 -0.3623  0.0482  0.0806
  230loPI   C6A 3676   3.149   8.292   7.716  0.0811  0.1247  0.1732
  230loPI   C1B 3677   4.553   7.057   8.894  0.1525 -0.2640 -0.0960
  230loPI   C2B 3678   4.538   7.007   8.512 -0.1205 -0.0280  0.0138
  230loPI   C3B 3679   4.204   6.845   8.132  0.0571 -0.3523 -0.0943
  230loPI   C4B 3680   4.080   6.475   7.875 -0.1664  0.0026  0.2971
  231loPI    C1 3681   6.057   7.724  10.063 -0.0740  0.0111 -0.0849
  231loPI    C2 3682   6.268   7.616  10.386  0.0062 -0.1173 -0.1791
  231loPI    C3 3683   5.881   7.517  10.358 -0.0484  0.0515 -0.0413
  231loPI   PO4 3684   6.094   7.983  10.036 -0.0100  0.3805  0.2259
  231loPI   GL1 3685   6.371   8.197   9.744  0.0568  0.1179 -0.0857
  231loPI   GL2 3686   6.438   8.429   9.954 -0.0763 -0.0402 -0.3189
  231loPI   C1A 3687   6.497   8.482   9.380 -0.1355  0.5034 -0.0881
  231loPI   C2A 3688   6.478   8.388   8.974  0.0879 -0.0827  0.2158
  231loPI   C3A 3689   6.588   8.352   8.509 -0.0036  0.2860 -0.0599
  231loPI   C4A 3690   6.813   8.146   8.295  0.2805 -0.0726  0.2071
  231loPI   C5A 3691   7.003   8.146   7.946  0.2404 -0.1251 -0.0485
  231loPI   C6A 3692   7.358   8.096   7.705  0.0932 -0.3265 -0.0319
  231loPI   C1B 3693   6.685   8.695   9.809  0.1936 -0.0244 -0.2560
  231loPI   C2B 3694   7.158   8.703   9.541 -0.0809 -0.0561 -0.2017
  231loPI   C3B 3695   7.450   8.736   9.074 -0.2735  0.1371  0.0864
  231loPI   C4B 3696   7.548   8.680   8.641 -0.1697  0.0025 -0.0710
  232loPI    C1 3697  17.860  12.716  10.378 -0.0143  0.0220 -0.2212
  232loPI    C2 3698  18.259  12.743  10.385 -0.0266  0.1542  0.0846
  232loPI    C3 3699  18.036  13.075  10.378 -0.1331  0.0817  0.0097
  232loPI   PO4 3700  17.727  12.619  10.171 -0.0342 -0.0809 -0.1081
  232loPI   GL1 3701  17.602  12.648   9.757  0.0176  0.0929 -0.1110
  232loPI   GL2 3702  17.541  12.844   9.493 -0.1463  0.1829 -0.1972
  232loPI   C1A 3703  17.971  12.556   9.468  0.1774  0.2133  0.2438
  232loPI   C2A 3704  18.082  12.308   9.117  0.2319  0.0662  0.0034
  232loPI   C3A 3705  18.188  12.097   8.756 -0.1286  0.1754 -0.1860
  232loPI   C4A 3706  18.168  11.711   8.430  0.2031  0.4571 -0.0884
  232loPI   C5A 3707  18.421  11.590   8.114 -0.1417 -0.1192 -0.0391
  232loPI   C6A 3708  18.818  11.350   8.048  0.2321 -0.0582 -0.3052
  232loPI   C1B 3709  17.503  12.430   9.320 -0.0951  0.4648  0.0504
  232loPI   C2B 3710  17.610  12.317   8.991 -0.2459  0.0558 -0.1881
  232loPI   C3B 3711  17.968  12.520   8.587  0.1311 -0.2298 -0.0659
  232loPI   C4B 3712  17.859  12.845   8.295 -0.0258 -0.0565  0.5108
  233loPI    C1 3713   5.844   5.523   9.688  0.2282 -0.1641 -0.1157
  233loPI    C2 3714   5.788   5.447  10.076  0.3611 -0.3766 -0.1363
  233loPI    C3 3715   5.949   5.795   9.962  0.0723 -0.2007 -0.0188
  233loPI   PO4 3716   5.548   5.461   9.631 -0.3251 -0.0896  0.3679
  233loPI   GL1 3717   5.589   5.306   9.211 -0.0524 -0.0535 -0.0178
  233loPI   GL2 3718   5.792   5.394   8.952  0.2366  0.0700  0.1738
  233loPI   C1A 3719   5.305   5.420   8.855  0.1240  0.1243 -0.0238
  233loPI   C2A 3720   5.045   5.707   8.698  0.0146  0.1978 -0.1253
  233loPI   C3A 3721   5.058   5.899   8.330 -0.6535  0.5223  0.3153
  233loPI   C4A 3722   5.067   5.810   7.916  0.2241  0.0711 -0.1734
  233loPI   C5A 3723   5.480   5.706   7.717  0.1768 -0.0134  0.0253
  233loPI   C6A 3724   5.735   5.350   7.597  0.1989  0.1959 -0.1585
  233loPI   C1B 3725   5.976   5.548   8.589  0.0080  0.0528 -0.0793
  233loPI   C2B 3726   6.212   5.483   8.289  0.1636 -0.2138 -0.2321
  233loPI   C3B 3727   6.185   5.395   7.862  0.2535 -0.1621  0.1399
  233loPI   C4B 3728   6.275   5.271   7.479 -0.0423  0.0475  0.1103
  234loPI    C1 3729   3.131  11.307   9.862  0.1527 -0.1250 -0.0099
  234loPI    C2 3730   3.432  11.524  10.012  0.0243 -0.0607  0.1577
  234loPI    C3 3731   3.264  11.236  10.233 -0.2040  0.0721  0.1614
  234loPI   PO4 3732   2.971  11.517   9.799  0.0615 -0.2226  0.2350
  234loPI   GL1 3733   2.705  11.450   9.570 -0.0314  0.2831  0.2080
  234loPI   GL2 3734   2.930  11.300   9.348 -0.1239  0.1888 -0.1774
  234loPI   C1A 3735   2.411  11.329   9.288  0.1058 -0.0104  0.1482
  234loPI   C2A 3736   2.315  11.409   8.799 -0.0961 -0.4449  0.0328
  234loPI   C3A 3737   2.279  11.401   8.303 -0.3371  0.1452  0.3557
  234loPI   C4A 3738   2.624  11.561   7.991 -0.0897  0.2301 -0.0150
  234loPI   C5A 3739   2.724  11.725   7.664  0.4955  0.2820  0.1009
  234loPI   C6A 3740   2.663  11.759   7.203  0.1581 -0.3336  0.0141
  234loPI   C1B 3741   2.792  11.324   9.014  0.0713  0.0502 -0.0389
  234loPI   C2B 3742   2.782  11.415   8.658 -0.4135  0.2015 -0.1523
  234loPI   C3B 3743   2.836  11.236   8.304  0.1081 -0.0568  0.1841
  234loPI   C4B 3744   2.996  11.223   7.907  0.1320 -0.0794  0.1884
  235loPI    C1 3745   7.605   6.602  10.117  0.1777 -0.0319 -0.0029
  235loPI    C2 3746   7.932   6.591  10.347  0.0559 -0.2926  0.1631
  235loPI    C3 3747   7.577   6.487  10.499 -0.1188  0.0511  0.0032
  235loPI   PO4 3748   7.620   6.862   9.955 -0.1548 -0.0821 -0.3763
  235loPI   GL1 3749   7.716   6.986   9.652 -0.1390  0.1295 -0.0669
  235loPI   GL2 3750   7.869   7.198   9.642  0.0579 -0.2787 -0.1280
  235loPI   C1A 3751   7.429   7.225   9.442  0.0366 -0.0694 -0.1344
  235loPI   C2A 3752   7.459   7.254   9.125 -0.0464  0.1227 -0.2359
  235loPI   C3A 3753   7.615   7.214   8.770 -0.0371  0.3266 -0.2713
  235loPI   C4A 3754   7.766   7.506   8.585  0.0350 -0.1219 -0.1853
  235loPI   C5A 3755   7.835   7.760   8.197  0.0100 -0.0506  0.1025
  235loPI   C6A 3756   7.596   7.733   7.907 -0.2550 -0.3642  0.0987
  235loPI   C1B 3757   7.911   6.993   9.220 -0.2444  0.1177 -0.0314
  235loPI   C2B 3758   7.953   6.826   8.828 -0.1063 -0.0083  0.1245
  235loPI   C3B 3759   8.017   6.970   8.413 -0.1452  0.0625 -0.2841
  235loPI   C4B 3760   8.047   6.974   7.877  0.4436 -0.1224 -0.0526
  236loPI    C1 3761   2.912  14.896  10.359  0.3015 -0.0710  0.2393
  236loPI    C2 3762   2.678  14.956  10.678  0.0353  0.2835 -0.0135
  236loPI    C3 3763   3.017  15.165  10.637  0.1476  0.1279  0.1081
  236loPI   PO4 3764   2.706  14.737  10.137  0.3695 -0.0485 -0.3280
  236loPI   GL1 3765   2.521  14.642   9.757  0.1741 -0.1928 -0.1215
  236loPI   GL2 3766   2.783  14.748   9.612  0.2140  0.2516  0.0421
  236loPI   C1A 3767   2.485  14.360   9.370 -0.0859 -0.0247 -0.0458
  236loPI   C2A 3768   2.498  14.339   8.991 -0.3368  0.4204 -0.5850
  236loPI   C3A 3769   2.480  14.292   8.519  0.0620 -0.3045 -0.1964
  236loPI   C4A 3770   2.106  14.279   8.222  0.1073  0.1315 -0.2251
  236loPI   C5A 3771   1.656  14.472   8.001 -0.1532  0.1163 -0.1290
  236loPI   C6A 3772   1.270  14.762   8.211 -0.1948  0.0948  0.1247
  236loPI   C1B 3773   2.832  14.683   9.113 -0.1608 -0.0837 -0.1559
  236loPI   C2B 3774   2.927  14.447   8.700 -0.4181 -0.0701 -0.1621
  236loPI   C3B 3775   3.044  14.361   8.298  0.0145 -0.0268 -0.0247
  236loPI   C4B 3776   3.061  14.016   7.990  0.1265  0.0687 -0.1516
  237loPI    C1 3777  15.428  11.690  10.028 -0.0264  0.0966  0.0188
  237loPI    C2 3778  15.338  11.326  10.166 -0.0780  0.0518 -0.1307
  237loPI    C3 3779  15.528  11.588  10.401 -0.1020 -0.0474  0.0003
  237loPI   PO4 3780  15.230  11.862   9.977  0.1481 -0.2804 -0.0722
  237loPI   GL1 3781  15.185  11.971   9.622  0.0548 -0.1633 -0.1304
  237loPI   GL2 3782  15.422  11.710   9.562 -0.1304 -0.0446 -0.0350
  237loPI   C1A 3783  15.013  11.914   9.182  0.0503  0.0631 -0.0264
  237loPI   C2A 3784  15.005  11.583   8.980 -0.2189  0.2202  0.1585
  237loPI   C3A 3785  14.999  11.739   8.588  0.2014 -0.2150  0.0516
  237loPI   C4A 3786  14.934  11.724   8.134  0.0863 -0.0227 -0.1606
  237loPI   C5A 3787  14.580  11.646   7.885 -0.0156 -0.1029  0.0416
  237loPI   C6A 3788  14.219  11.703   7.658 -0.3630 -0.0352  0.0006
  237loPI   C1B 3789  15.508  11.713   9.178  0.2329  0.0551  0.1924
  237loPI   C2B 3790  15.501  11.631   8.769 -0.1220  0.0149  0.4346
  237loPI   C3B 3791  15.515  11.650   8.289 -0.0237  0.1059  0.3251
  237loPI   C4B 3792  15.725  11.449   7.909 -0.6578  0.2356 -0.0965
  238loPI    C1 3793   6.333  10.699  10.218  0.0840  0.0925 -0.1852
  238loPI    C2 3794   6.588  10.422  10.356 -0.0766  0.0748  0.0829
  238loPI    C3 3795   6.582  10.788  10.518 -0.1856  0.0911  0.0432
  238loPI   PO4 3796   6.104  10.528  10.255  0.1519 -0.0172 -0.1294
  238loPI   GL1 3797   6.053  10.161  10.009 -0.3123  0.1079 -0.1288
  238loPI   GL2 3798   6.400  10.150   9.924  0.2074 -0.1646  0.0194
  238loPI   C1A 3799   5.888  10.257   9.623  0.2362 -0.2290  0.3812
  238loPI   C2A 3800   5.702  10.159   9.358 -0.2038  0.1210  0.0233
  238loPI   C3A 3801   5.701  10.085   8.910  0.0217 -0.1621 -0.0708
  238loPI   C4A 3802   5.561  10.153   8.521  0.0475 -0.3262 -0.1244
  238loPI   C5A 3803   5.661  10.436   8.131 -0.3820 -0.0043  0.1084
  238loPI   C6A 3804   5.844  10.704   7.878 -0.1638  0.2321  0.2193
  238loPI   C1B 3805   6.461  10.271   9.448  0.3372  0.1523  0.1544
  238loPI   C2B 3806   6.586   9.912   9.148 -0.3681 -0.2463  0.1678
  238loPI   C3B 3807   6.625   9.663   8.759  0.1375 -0.0342  0.0800
  238loPI   C4B 3808   6.686   9.590   8.385 -0.2237  0.0633  0.3391
  239loPI    C1 3809   9.668  16.618  10.426 -0.1642 -0.0301 -0.0329
  239loPI    C2 3810   9.288  16.728  10.364 -0.1423  0.0801  0.0257
  239loPI    C3 3811   9.381  16.496  10.677 -0.1989 -0.1676 -0.1385
  239loPI   PO4 3812   9.766  16.869  10.409 -0.2993 -0.1459 -0.0586
  239loPI   GL1 3813   9.977  16.869  10.106 -0.0842  0.0638  0.1667
  239loPI   GL2 3814   9.900  17.187   9.949  0.0426  0.0549 -0.0494
  239loPI   C1A 3815  10.091  16.473   9.926  0.1475  0.2650  0.0041
  239loPI   C2A 3816  10.244  16.342   9.645  0.1242 -0.2518  0.0535
  239loPI   C3A 3817  10.258  16.167   9.299 -0.0739 -0.3415  0.0919
  239loPI   C4A 3818  10.095  16.083   8.892 -0.0859 -0.0184 -0.1860
  239loPI   C5A 3819   9.744  15.985   8.612  0.0019 -0.1070  0.0463
  239loPI   C6A 3820   9.428  15.797   8.380  0.1534  0.0190 -0.2840
  239loPI   C1B 3821  10.049  16.876   9.602  0.0811 -0.0450 -0.1789
  239loPI   C2B 3822  10.181  16.694   9.229  0.2556  0.4786 -0.2219
  239loPI   C3B 3823  10.368  16.517   8.878  0.1321  0.0767  0.0298
  239loPI   C4B 3824  10.447  16.220   8.572 -0.0694 -0.1480 -0.2323
  240loPI    C1 3825  17.843   8.321  10.738 -0.1554  0.1771  0.0652
  240loPI    C2 3826  17.782   8.353  11.132 -0.0146 -0.1722  0.1189
  240loPI    C3 3827  17.583   8.078  10.921 -0.0601 -0.0126 -0.0488
  240loPI   PO4 3828  17.750   8.466  10.593  0.2375  0.0675 -0.1275
  240loPI   GL1 3829  17.894   8.401  10.199  0.2424 -0.1941 -0.2732
  240loPI   GL2 3830  18.238   8.240   9.989 -0.1262  0.1837 -0.3694
  240loPI   C1A 3831  18.023   8.768   9.985  0.1002  0.0449 -0.0340
  240loPI   C2A 3832  18.366   8.884   9.824  0.0372  0.0292  0.0455
  240loPI   C3A 3833  18.689   8.832   9.546  0.0047 -0.1014  0.1469
  240loPI   C4A 3834  18.947   8.501   9.439 -0.0373 -0.0463  0.3197
  240loPI   C5A 3835  19.027   8.100   9.374 -0.0011 -0.1872 -0.0805
  240loPI   C6A 3836  19.226   7.897   9.103 -0.1791 -0.0276 -0.2009
  240loPI   C1B 3837  18.162   7.950   9.622 -0.4340  0.2825  0.3214
  240loPI   C2B 3838  17.932   8.041   9.285  0.2605  0.1470  0.1068
  240loPI   C3B 3839  17.896   8.372   9.089 -0.1290 -0.1149  0.0949
  240loPI   C4B 3840  17.736   8.495   8.761 -0.0626 -0.2966  0.0510
  241loPI    C1 3841  17.173  17.723  10.406 -0.2505 -0.1051  0.2453
  241loPI    C2 3842  17.339  17.387  10.265  0.2965  0.2043  0.1203
  241loPI    C3 3843  17.288  17.435  10.659  0.1660 -0.0427  0.1355
  241loPI   PO4 3844  17.314  17.869  10.300 -0.1136 -0.1137 -0.1978
  241loPI   GL1 3845  17.454  17.728   9.911  0.0302  0.0642  0.2461
  241loPI   GL2 3846  17.558  17.488   9.789  0.2530  0.1132 -0.1533
  241loPI   C1A 3847  17.227  18.072   9.661  0.0337 -0.3217  0.2725
  241loPI   C2A 3848  17.001  18.044   9.237 -0.0568 -0.0232  0.1906
  241loPI   C3A 3849  16.934  17.971   8.746  0.0321 -0.2989  0.0479
  241loPI   C4A 3850  16.962  18.105   8.325 -0.0290  0.1645  0.0321
  241loPI   C5A 3851  16.786  18.302   8.065  0.0045  0.2625 -0.0978
  241loPI   C6A 3852  16.935  18.646   7.828  0.2994 -0.1844  0.1301
  241loPI   C1B 3853  17.583  17.359   9.331  0.2289  0.6093 -0.0991
  241loPI   C2B 3854  17.667  17.370   8.963  0.1994 -0.0864 -0.2006
  241loPI   C3B 3855  17.664  17.399   8.531  0.2029 -0.2892 -0.2079
  241loPI   C4B 3856  17.649  17.389   8.129 -0.3799  0.0947  0.0660
  242loPI    C1 3857   5.139  18.173  10.399  0.2020  0.0961  0.0564
  242loPI    C2 3858   4.982  18.363  10.714 -0.1377 -0.1185  0.0216
  242loPI    C3 3859   5.039  17.967  10.727  0.3186 -0.0593 -0.0043
  242loPI   PO4 3860   5.065  18.286  10.183  0.1029  0.1383  0.0575
  242loPI   GL1 3861   4.996  18.106   9.822 -0.1938 -0.1565 -0.0766
  242loPI   GL2 3862   5.147  17.810   9.697 -0.3804 -0.0856  0.1362
  242loPI   C1A 3863   4.816  18.086   9.356  0.2221 -0.1282  0.0116
  242loPI   C2A 3864   4.922  18.225   9.036  0.0276  0.1782 -0.0197
  242loPI   C3A 3865   4.783  18.420   8.697 -0.0380  0.1256  0.2972
  242loPI   C4A 3866   4.819  18.392   8.210 -0.0929 -0.2117  0.2497
  242loPI   C5A 3867   4.788  18.347   7.743 -0.0448  0.0210 -0.2009
  242loPI   C6A 3868   4.928  18.494   7.351 -0.2868  0.2185  0.1082
  242loPI   C1B 3869   5.364  17.818   9.319 -0.2576  0.3017  0.2480
  242loPI   C2B 3870   5.500  17.768   8.906 -0.3970 -0.0486  0.1611
  242loPI   C3B 3871   5.606  17.922   8.546  0.0578 -0.1070 -0.0057
  242loPI   C4B 3872   5.578  17.889   8.114 -0.1374  0.2039 -0.1248
  243loPI    C1 3873   1.083   4.990  10.509  0.0877 -0.2071  0.0079
  243loPI    C2 3874   0.689   4.919  10.512  0.0361  0.0710  0.1071
  243loPI    C3 3875   0.873   5.043  10.845  0.1438  0.2745 -0.0266
  243loPI   PO4 3876   1.202   4.899  10.293 -0.2115  0.1104 -0.0552
  243loPI   GL1 3877   1.268   5.143   9.953  0.1908 -0.2810  0.1661
  243loPI   GL2 3878   1.514   5.229   9.690 -0.1676  0.0517 -0.2352
  243loPI   C1A 3879   1.017   4.925   9.665 -0.1512 -0.3559 -0.1989
  243loPI   C2A 3880   1.184   4.557   9.482  0.0783 -0.0471 -0.1523
  243loPI   C3A 3881   1.102   4.387   9.154  0.0099 -0.1780 -0.0030
  243loPI   C4A 3882   1.190   4.285   8.762 -0.1822  0.5871 -0.2187
  243loPI   C5A 3883   1.263   4.316   8.385 -0.3668 -0.0709 -0.0557
  243loPI   C6A 3884   1.361   4.461   7.958 -0.0170 -0.3783 -0.0487
  243loPI   C1B 3885   1.439   5.241   9.224  0.0424 -0.1509 -0.2390
  243loPI   C2B 3886   1.268   5.291   8.889  0.0657  0.1014  0.3232
  243loPI   C3B 3887   1.211   5.419   8.390 -0.2098  0.1984 -0.0849
  243loPI   C4B 3888   0.809   5.665   8.257  0.0472 -0.1222 -0.0906
  244loPI    C1 3889   8.747   9.816  10.316  0.0561 -0.0025 -0.0867
  244loPI    C2 3890   8.960   9.616  10.043  0.1760 -0.1218  0.0918
  244loPI    C3 3891   9.102   9.956  10.197 -0.0542  0.1386 -0.2545
  244loPI   PO4 3892   8.492   9.967  10.288  0.0874  0.0278  0.1737
  244loPI   GL1 3893   8.178   9.940  10.054 -0.0814  0.4599 -0.0355
  244loPI   GL2 3894   8.195  10.256   9.895 -0.2250 -0.0936  0.0553
  244loPI   C1A 3895   7.781  10.140   9.712  0.2803 -0.0998  0.0726
  244loPI   C2A 3896   7.777  10.192   9.280 -0.0934  0.1107 -0.1879
  244loPI   C3A 3897   7.553   9.858   8.982 -0.2544 -0.0247  0.0313
  244loPI   C4A 3898   7.638   9.503   8.769  0.3157  0.1202  0.0958
  244loPI   C5A 3899   7.701   9.105   8.498  0.3239 -0.0801  0.3072
  244loPI   C6A 3900   7.389   8.938   8.239 -0.1473  0.1204  0.1551
  244loPI   C1B 3901   8.266  10.208   9.480  0.1918  0.0819  0.0315
  244loPI   C2B 3902   8.253  10.199   9.102 -0.1681 -0.1373  0.0694
  244loPI   C3B 3903   8.080  10.068   8.783  0.0445  0.0997 -0.0414
  244loPI   C4B 3904   8.006  10.121   8.361  0.3121  0.0859 -0.0121
  245loPI    C1 3905   9.201   6.142  10.165  0.0541 -0.0514 -0.1916
  245loPI    C2 3906   8.978   6.353  10.422  0.1856  0.1740 -0.2602
  245loPI    C3 3907   9.308   6.166  10.550 -0.1912 -0.4047 -0.0962
  245loPI   PO4 3908   9.321   6.249   9.950  0.0286 -0.1160 -0.0353
  245loPI   GL1 3909   9.319   6.349   9.595  0.1900  0.0053  0.0828
  245loPI   GL2 3910   9.061   6.238   9.473 -0.1694  0.0556 -0.2476
  245loPI   C1A 3911   9.274   6.738   9.363 -0.1142  0.1486  0.1132
  245loPI   C2A 3912   9.494   6.713   9.001  0.0203  0.0850  0.0452
  245loPI   C3A 3913   9.600   6.738   8.614 -0.0253 -0.1951 -0.2750
  245loPI   C4A 3914   9.675   6.709   8.158 -0.0613  0.1235 -0.0414
  245loPI   C5A 3915   9.696   6.748   7.793 -0.1484  0.0790 -0.1835
  245loPI   C6A 3916   9.913   6.752   7.423 -0.3852  0.0776 -0.2896
  245loPI   C1B 3917   9.132   6.314   9.094 -0.1699 -0.3659  0.1976
  245loPI   C2B 3918   9.257   6.322   8.682  0.0013  0.2525  0.2276
  245loPI   C3B 3919   9.331   6.341   8.221  0.1183  0.0706 -0.0530
  245loPI   C4B 3920   9.350   6.178   7.803 -0.1125 -0.1158 -0.0341
  246loPI    C1 3921   9.359  10.745  10.442  0.0148 -0.2124 -0.0829
  246loPI    C2 3922   9.117  10.607  10.729  0.0786 -0.4319 -0.1326
  246loPI    C3 3923   9.504  10.672  10.807 -0.0692  0.3111  0.0633
  246loPI   PO4 3924   9.295  10.635  10.231 -0.0345  0.0209  0.0832
  246loPI   GL1 3925   9.103  10.603   9.895 -0.1960  0.1869 -0.0626
  246loPI   GL2 3926   9.249  10.227   9.837 -0.4309 -0.0990  0.1459
  246loPI   C1A 3927   8.884  10.811   9.496 -0.4522 -0.1177 -0.1212
  246loPI   C2A 3928   8.984  10.831   9.160  0.0854  0.2267 -0.0220
  246loPI   C3A 3929   9.049  10.895   8.757 -0.0872  0.0711 -0.1361
  246loPI   C4A 3930   9.096  11.088   8.250  0.5011  0.2251 -0.3625
  246loPI   C5A 3931   8.928  11.468   8.058  0.2353 -0.1213  0.0127
  246loPI   C6A 3932   8.991  11.694   7.759  0.2628 -0.0424  0.1760
  246loPI   C1B 3933   9.253  10.457   9.452  0.2467 -0.1611 -0.4012
  246loPI   C2B 3934   9.380  10.448   9.127  0.0241  0.0144  0.3755
  246loPI   C3B 3935   9.307  10.469   8.704 -0.0213  0.1262  0.2754
  246loPI   C4B 3936   9.417  10.422   8.187 -0.3143 -0.0231 -0.2064
  247loPI    C1 3937   2.887  15.928  10.521  0.0465 -0.2136 -0.0345
  247loPI    C2 3938   3.187  16.078  10.739 -0.0866  0.2479 -0.1564
  247loPI    C3 3939   3.019  15.730  10.842  0.0741  0.2928  0.2781
  247loPI   PO4 3940   2.927  15.903  10.354  0.0160 -0.1592 -0.1157
  247loPI   GL1 3941   2.908  15.916   9.913 -0.0840  0.0566 -0.0285
  247loPI   GL2 3942   2.661  16.031   9.639 -0.2393  0.4650 -0.3795
  247loPI   C1A 3943   3.127  16.196   9.565 -0.0098 -0.0087  0.1346
  247loPI   C2A 3944   3.182  16.129   9.152 -0.0982 -0.3985  0.2096
  247loPI   C3A 3945   3.322  15.938   8.803  0.0886 -0.1616 -0.1907
  247loPI   C4A 3946   3.540  15.768   8.454  0.1165 -0.0930 -0.0889
  247loPI   C5A 3947   3.688  15.767   8.077 -0.2298 -0.2763  0.1444
  247loPI   C6A 3948   4.026  16.098   7.917 -0.0070  0.0501 -0.0229
  247loPI   C1B 3949   2.685  15.988   9.214 -0.0871 -0.3247  0.0244
  247loPI   C2B 3950   2.760  15.876   8.839 -0.3213 -0.1947 -0.0204
  247loPI   C3B 3951   2.640  15.806   8.443  0.1159 -0.3556  0.2294
  247loPI   C4B 3952   2.622  15.868   8.034  0.0122  0.0372  0.1976
  248loPI    C1 3953   4.547  17.960  10.024 -0.1836  0.1307 -0.1890
  248loPI    C2 3954   4.652  18.069  10.394 -0.0638 -0.0247 -0.1759
  248loPI    C3 3955   4.596  18.347  10.112 -0.0735  0.0889 -0.0631
  248loPI   PO4 3956   4.372  17.761  10.145  0.3860 -0.1022 -0.1592
  248loPI   GL1 3957   4.047  17.849   9.764 -0.2876  0.3933 -0.1749
  248loPI   GL2 3958   4.176  18.269   9.691 -0.2544  0.3843  0.2222
  248loPI   C1A 3959   4.108  17.712   9.287  0.2698  0.3502  0.3678
  248loPI   C2A 3960   4.105  17.589   8.925  0.2866 -0.0501 -0.1355
  248loPI   C3A 3961   4.119  17.757   8.552 -0.1770 -0.0066 -0.0839
  248loPI   C4A 3962   4.107  17.764   8.184 -0.2150  0.1114  0.1216
  248loPI   C5A 3963   4.111  17.605   7.759  0.0251 -0.2386 -0.2086
  248loPI   C6A 3964   3.862  17.807   7.449 -0.0935  0.1510 -0.1786
  248loPI   C1B 3965   4.322  18.280   9.245  0.1038  0.1169 -0.0018
  248loPI   C2B 3966   4.341  18.525   8.818  0.4269 -0.1399 -0.0455
  248loPI   C3B 3967   4.250  18.302   8.428 -0.0440 -0.1774  0.0692
  248loPI   C4B 3968   4.381  18.388   8.017  0.1412  0.1571 -0.3725
  249loPI    C1 3969   5.596   6.229  10.227  0.1164  0.1971  0.0845
  249loPI    C2 3970   5.620   5.865  10.392  0.1215  0.1788  0.0436
  249loPI    C3 3971   5.363   6.134  10.538 -0.3178 -0.0408 -0.3011
  249loPI   PO4 3972   5.633   6.202   9.961 -0.0411 -0.0637 -0.0176
  249loPI   GL1 3973   5.769   6.037   9.584  0.0116  0.0876  0.0010
  249loPI   GL2 3974   5.557   5.948   9.487  0.3316  0.1807  0.0187
  249loPI   C1A 3975   5.917   6.116   9.198 -0.0060  0.2531 -0.0975
  249loPI   C2A 3976   5.925   6.116   8.799  0.1714  0.0709 -0.0968
  249loPI   C3A 3977   5.944   6.023   8.404 -0.0080  0.0397 -0.0678
  249loPI   C4A 3978   5.837   5.698   8.062 -0.0805 -0.0311 -0.1010
  249loPI   C5A 3979   5.942   5.829   7.655  0.0695 -0.0149  0.0751
  249loPI   C6A 3980   6.440   5.745   7.521  0.0322  0.0602 -0.3142
  249loPI   C1B 3981   5.527   5.878   8.981 -0.0051 -0.0197 -0.1612
  249loPI   C2B 3982   5.531   5.778   8.525 -0.3013 -0.2082  0.1140
  249loPI   C3B 3983   5.370   5.518   8.156 -0.3552  0.2285  0.0710
  249loPI   C4B 3984   5.338   5.231   7.885 -0.0470  0.0060  0.1899
  250loPI    C1 3985   9.637   5.348   9.916  0.0327  0.0082 -0.1340
  250loPI    C2 3986   9.882   5.463  10.211 -0.0013 -0.0563 -0.0803
  250loPI    C3 3987   9.574   5.220  10.290  0.1701 -0.3250 -0.2215
  250loPI   PO4 3988   9.734   5.520   9.668 -0.0596  0.0864 -0.2509
  250loPI   GL1 3989   9.574   5.623   9.298 -0.2441  0.0263  0.1837
  250loPI   GL2 3990   9.487   5.352   9.158 -0.0465  0.3619 -0.3728
  250loPI   C1A 3991   9.789   5.790   8.990  0.0498  0.2159  0.0629
  250loPI   C2A 3992   9.944   5.676   8.658 -0.1671  0.0038  0.0174
  250loPI   C3A 3993   9.987   5.734   8.264  0.0777 -0.1278 -0.0613
  250loPI   C4A 3994  10.209   5.811   7.880  0.2402  0.1011  0.0374
  250loPI   C5A 3995  10.410   6.058   7.642 -0.0736  0.0326  0.3010
  250loPI   C6A 3996  10.759   6.252   7.597  0.2699  0.3979 -0.0846
  250loPI   C1B 3997   9.566   5.350   8.671 -0.1534  0.4583 -0.1432
  250loPI   C2B 3998   9.647   5.332   8.289  0.0983 -0.0593 -0.0823
  250loPI   C3B 3999   9.767   5.093   7.855 -0.0099 -0.0904  0.0879
  250loPI   C4B 4000   9.717   5.085   7.393 -0.1359 -0.0695 -0.1057
  251loPI    C1 4001  17.668   0.156  10.317  0.0355  0.0649 -0.1575
  251loPI    C2 4002  17.375  -0.075  10.170 -0.0611  0.0760  0.0147
  251loPI    C3 4003  17.520  -0.144  10.537 -0.0192  0.2252  0.0273
  251loPI   PO4 4004  17.806   0.153  10.095  0.2500 -0.4223  0.3689
  251loPI   GL1 4005  17.587   0.325   9.819 -0.1789 -0.0074  0.1698
  251loPI   GL2 4006  17.797   0.587   9.809 -0.0204  0.1924 -0.1943
  251loPI   C1A 4007  17.391   0.466   9.537  0.0066  0.2090 -0.1150
  251loPI   C2A 4008  17.469   0.416   9.208 -0.0521 -0.0185 -0.0110
  251loPI   C3A 4009  17.474   0.343   8.747  0.0048 -0.0335  0.1989
  251loPI   C4A 4010  17.458   0.464   8.385 -0.1410 -0.1163  0.0797
  251loPI   C5A 4011  17.456   0.260   8.014 -0.0816 -0.1335 -0.1802
  251loPI   C6A 4012  17.363   0.174   7.568  0.0102 -0.0464 -0.1299
  251loPI   C1B 4013  17.889   0.557   9.359 -0.0231  0.3044  0.0987
  251loPI   C2B 4014  17.925   0.485   8.909  0.1085 -0.0817 -0.1604
  251loPI   C3B 4015  17.951   0.381   8.594  0.0216 -0.3319 -0.1854
  251loPI   C4B 4016  17.928   0.435   8.137 -0.0446 -0.0427  0.0820
  252loPI    C1 4017  10.488  17.023  10.290  0.1861 -0.1071  0.0102
  252loPI    C2 4018  10.496  17.064  10.688  0.0710 -0.0895  0.0111
  252loPI    C3 4019  10.292  16.763  10.522 -0.1616  0.0975 -0.0473
  252loPI   PO4 4020  10.476  17.199  10.196 -0.3079 -0.1426  0.1027
  252loPI   GL1 4021  10.584  17.405   9.882  0.1194  0.0880 -0.1661
  252loPI   GL2 4022  10.299  17.289   9.729  0.0076  0.3401 -0.1596
  252loPI   C1A 4023  10.889  17.530   9.643 -0.0627 -0.1661  0.2775
  252loPI   C2A 4024  11.036  17.587   9.177 -0.1603 -0.0140 -0.2414
  252loPI   C3A 4025  10.999  17.383   8.832  0.1310  0.0728  0.1512
  252loPI   C4A 4026  11.028  17.238   8.372  0.1108 -0.0659 -0.0422
  252loPI   C5A 4027  10.852  16.872   8.052 -0.4117  0.0856  0.1987
  252loPI   C6A 4028  10.782  16.418   7.906  0.1773  0.0004  0.1070
  252loPI   C1B 4029  10.563  17.172   9.377 -0.0657 -0.1112  0.1132
  252loPI   C2B 4030  10.602  17.005   8.954  0.0174 -0.0121 -0.0743
  252loPI   C3B 4031  10.606  16.890   8.558 -0.1988  0.2204 -0.3554
  252loPI   C4B 4032  10.461  16.582   8.258 -0.1549 -0.0457  0.0797
  253loPI    C1 4033   9.245   9.232  10.286 -0.2103  0.1832 -0.1296
  253loPI    C2 4034   9.069   9.102  10.620 -0.1479 -0.1062 -0.2066
  253loPI    C3 4035   9.462   9.175  10.617 -0.1563 -0.0612 -0.2048
  253loPI   PO4 4036   9.248   9.099  10.055 -0.4010 -0.2694 -0.0067
  253loPI   GL1 4037   8.917   9.205   9.799  0.1500  0.1103 -0.1528
  253loPI   GL2 4038   8.628   9.073   9.747  0.5014 -0.1890 -0.0995
  253loPI   C1A 4039   8.995   9.134   9.357 -0.1986  0.2170  0.2123
  253loPI   C2A 4040   9.010   9.017   8.820 -0.1049 -0.1423  0.0592
  253loPI   C3A 4041   9.332   9.085   8.522 -0.3039 -0.0954 -0.1342
  253loPI   C4A 4042   9.614   9.039   8.260 -0.1432  0.1422  0.0476
  253loPI   C5A 4043   9.821   8.984   7.820  0.0533 -0.2850  0.1281
  253loPI   C6A 4044  10.037   9.267   7.621 -0.1407 -0.1364  0.0850
  253loPI   C1B 4045   8.429   9.389   9.454  0.2033 -0.0543 -0.0641
  253loPI   C2B 4046   8.509   9.736   9.172 -0.1357  0.2266  0.1851
  253loPI   C3B 4047   8.652   9.785   8.695 -0.3106  0.2053 -0.0494
  253loPI   C4B 4048   8.463   9.983   8.352  0.1307  0.1420 -0.2017
  254loPI    C1 4049   6.729   9.733  10.519 -0.0845 -0.1604 -0.0438
  254loPI    C2 4050   6.475   9.574  10.784 -0.0443  0.1045  0.1584
  254loPI    C3 4051   6.808   9.755  10.911 -0.0058  0.2024 -0.0763
  254loPI   PO4 4052   6.598   9.871  10.330 -0.0342  0.3464  0.3444
  254loPI   GL1 4053   6.539   9.683  10.020 -0.0285 -0.1099 -0.3426
  254loPI   GL2 4054   6.176   9.690   9.942 -0.0020  0.0049 -0.1371
  254loPI   C1A 4055   6.800   9.806   9.645  0.0007  0.1655  0.1985
  254loPI   C2A 4056   7.104   9.744   9.244  0.0015  0.1475  0.2169
  254loPI   C3A 4057   6.866   9.356   9.060  0.1424 -0.1000  0.3127
  254loPI   C4A 4058   6.758   9.175   8.621 -0.0739 -0.0589 -0.0181
  254loPI   C5A 4059   6.909   9.117   8.254 -0.1895 -0.1099 -0.4084
  254loPI   C6A 4060   7.140   9.181   7.904  0.1336  0.0234 -0.0390
  254loPI   C1B 4061   6.082   9.798   9.536 -0.1327  0.1798 -0.2762
  254loPI   C2B 4062   6.084   9.784   9.110 -0.0690 -0.1432  0.1338
  254loPI   C3B 4063   5.987   9.698   8.761  0.0425 -0.1341  0.1966
  254loPI   C4B 4064   5.783   9.495   8.446  0.0683 -0.0782 -0.1841
  255loPI    C1 4065  13.142  16.479   9.990  0.0702 -0.0811 -0.0349
  255loPI    C2 4066  12.914  16.221   9.787 -0.1196 -0.0282  0.1079
  255loPI    C3 4067  12.873  16.615   9.727 -0.0099 -0.0214  0.0763
  255loPI   PO4 4068  13.417  16.420   9.906  0.2089 -0.2312  0.1892
  255loPI   GL1 4069  13.595  16.228   9.508 -0.0213 -0.0265  0.1943
  255loPI   GL2 4070  13.319  16.081   9.519  0.3315 -0.1178 -0.2046
  255loPI   C1A 4071  13.739  15.851   9.362  0.0114 -0.1869  0.0744
  255loPI   C2A 4072  14.009  15.449   9.133  0.0480  0.3183  0.2082
  255loPI   C3A 4073  14.303  15.483   8.761  0.0465  0.0817  0.1274
  255loPI   C4A 4074  14.121  15.430   8.319  0.0711 -0.0842  0.2880
  255loPI   C5A 4075  14.021  15.216   8.023 -0.2506  0.1081  0.2171
  255loPI   C6A 4076  13.921  14.840   7.936 -0.2404 -0.0249  0.0605
  255loPI   C1B 4077  13.116  16.104   9.067  0.0686 -0.1618 -0.0817
  255loPI   C2B 4078  13.163  16.088   8.633  0.0872 -0.2204  0.0609
  255loPI   C3B 4079  12.907  15.945   8.185 -0.1111 -0.0300 -0.0742
  255loPI   C4B 4080  12.980  15.618   7.885 -0.1431  0.0102  0.0072
  256loPI    C1 4081   5.158   3.382  10.156 -0.0785 -0.0261  0.1938
  256loPI    C2 4082   5.356   3.556  10.456  0.0748  0.2818 -0.0789
  256loPI    C3 4083   5.049   3.746  10.282  0.0489  0.1475 -0.1808
  256loPI   PO4 4084   5.296   3.281  10.021 -0.0434  0.1662  0.2219
  256loPI   GL1 4085   5.256   3.192   9.553  0.0434  0.0792  0.0304
  256loPI   GL2 4086   5.084   3.462   9.436  0.1761  0.1081  0.0834
  256loPI   C1A 4087   5.369   3.146   9.129  0.0588  0.0913  0.0984
  256loPI   C2A 4088   5.307   3.019   8.809 -0.2029  0.1184  0.0206
  256loPI   C3A 4089   5.379   3.071   8.394 -0.3894  0.0606  0.1237
  256loPI   C4A 4090   5.474   2.840   8.019 -0.1169 -0.3544  0.0928
  256loPI   C5A 4091   5.692   2.867   7.631  0.0370 -0.2257  0.1639
  256loPI   C6A 4092   6.073   2.843   7.502  0.2617  0.3273  0.1054
  256loPI   C1B 4093   4.941   3.463   9.035  0.0617 -0.1246  0.1435
  256loPI   C2B 4094   5.017   3.445   8.655 -0.0716  0.0494  0.0596
  256loPI   C3B 4095   4.868   3.467   8.140  0.1376 -0.0015 -0.0226
  256loPI   C4B 4096   4.521   3.141   7.965  0.4439 -0.1829 -0.0906
  257loPI    C1 4097  15.771   9.719  10.602  0.1238  0.0785  0.1972
  257loPI    C2 4098  16.004   9.997  10.433  0.1503 -0.0652 -0.0066
  257loPI    C3 4099  15.642  10.096  10.571  0.1337  0.0577 -0.1355
  257loPI   PO4 4100  15.771   9.509  10.296 -0.0562  0.0428  0.0736
  257loPI   GL1 4101  15.532   9.368   9.928  0.0463  0.4121 -0.3295
  257loPI   GL2 4102  15.956   9.272   9.879 -0.0765 -0.0520 -0.1393
  257loPI   C1A 4103  15.250   9.470   9.499  0.2153 -0.0440 -0.0245
  257loPI   C2A 4104  14.914   9.646   9.392 -0.0632 -0.1808 -0.1754
  257loPI   C3A 4105  14.507   9.810   9.425  0.2132 -0.2094  0.3006
  257loPI   C4A 4106  14.308   9.856   9.031 -0.0405 -0.0360  0.2786
  257loPI   C5A 4107  14.176   9.578   8.686 -0.0873 -0.1682  0.1152
  257loPI   C6A 4108  14.286   9.139   8.608 -0.1181  0.3497 -0.2620
  257loPI   C1B 4109  15.723   9.533   9.551  0.0492  0.2975  0.1605
  257loPI   C2B 4110  15.836   9.787   9.239  0.1049 -0.1447  0.3833
  257loPI   C3B 4111  16.027   9.749   8.760 -0.1971 -0.3342 -0.1866
  257loPI   C4B 4112  16.010   9.766   8.306 -0.0884  0.3913  0.0982
  258loPI    C1 4113   2.160   4.620  10.371  0.1880  0.0270 -0.0854
  258loPI    C2 4114   2.230   4.626  10.765 -0.1621  0.0286 -0.0205
  258loPI    C3 4115   1.945   4.387  10.616  0.0609 -0.0742 -0.2903
  258loPI   PO4 4116   2.190   4.882  10.258 -0.1587  0.0189 -0.0830
  258loPI   GL1 4117   2.408   5.120  10.016  0.1760 -0.1790 -0.1045
  258loPI   GL2 4118   2.054   5.413   9.914 -0.0258  0.1246 -0.0093
  258loPI   C1A 4119   2.384   5.033   9.540 -0.0655 -0.2835 -0.2411
  258loPI   C2A 4120   2.414   5.039   9.096  0.0287 -0.0402 -0.0572
  258loPI   C3A 4121   2.436   4.971   8.698  0.0782 -0.0955 -0.0002
  258loPI   C4A 4122   2.348   4.770   8.242 -0.2419 -0.0381  0.3189
  258loPI   C5A 4123   2.166   4.522   8.027  0.0759 -0.1961 -0.0861
  258loPI   C6A 4124   1.849   4.340   7.813  0.0920  0.2412  0.0192
  258loPI   C1B 4125   1.953   5.246   9.424  0.1627 -0.1782  0.0456
  258loPI   C2B 4126   1.955   5.112   8.937  0.1693  0.2410 -0.0023
  258loPI   C3B 4127   1.624   5.201   8.554  0.0091  0.0342 -0.1389
  258loPI   C4B 4128   1.677   5.343   8.281 -0.0819  0.3337 -0.0077
  259loPI    C1 4129   6.974   2.785  10.271  0.0539 -0.0663 -0.1559
  259loPI    C2 4130   7.237   2.484  10.291  0.1166  0.0019  0.0789
  259loPI    C3 4131   6.934   2.502  10.551 -0.1519 -0.1024 -0.2206
  259loPI   PO4 4132   7.010   2.841  10.002 -0.2163 -0.2962  0.2968
  259loPI   GL1 4133   7.131   2.968   9.669 -0.1169 -0.0670  0.2783
  259loPI   GL2 4134   7.372   3.066   9.662 -0.4090  0.1299  0.0836
  259loPI   C1A 4135   6.882   2.905   9.269 -0.1725 -0.0504 -0.4376
  259loPI   C2A 4136   6.881   2.702   8.943 -0.3172 -0.0816 -0.0759
  259loPI   C3A 4137   6.930   2.718   8.547 -0.1854 -0.0625 -0.1666
  259loPI   C4A 4138   6.904   2.846   8.194  0.2082 -0.2133  0.2024
  259loPI   C5A 4139   6.682   3.013   7.814 -0.2230  0.3154  0.0846
  259loPI   C6A 4140   6.554   2.907   7.434  0.0089 -0.1683  0.1712
  259loPI   C1B 4141   7.391   2.891   9.264  0.0725  0.2404 -0.1452
  259loPI   C2B 4142   7.372   2.953   8.768  0.1798  0.3899  0.2345
  259loPI   C3B 4143   7.448   3.065   8.428  0.1775  0.0902  0.0398
  259loPI   C4B 4144   7.171   3.305   8.151  0.0216  0.0043  0.3082
  260loPI    C1 4145   1.950  17.259  10.273  0.1503  0.0256 -0.0534
  260loPI    C2 4146   2.117  17.349  10.625  0.0857 -0.0120 -0.0129
  260loPI    C3 4147   1.752  17.487  10.536  0.0223 -0.1602  0.0136
  260loPI   PO4 4148   2.079  17.260  10.121  0.0128  0.2333 -0.1347
  260loPI   GL1 4149   1.942  17.248   9.738 -0.2383  0.0908 -0.1269
  260loPI   GL2 4150   1.905  16.993   9.585 -0.2879 -0.1745 -0.0344
  260loPI   C1A 4151   2.193  17.401   9.393 -0.2191  0.1491 -0.1400
  260loPI   C2A 4152   2.329  17.300   9.032 -0.0191 -0.1467  0.1528
  260loPI   C3A 4153   2.172  17.113   8.713  0.1445  0.1060  0.0395
  260loPI   C4A 4154   2.262  16.855   8.308 -0.2799  0.1473  0.0533
  260loPI   C5A 4155   2.577  16.780   8.006 -0.0883 -0.1354 -0.0392
  260loPI   C6A 4156   2.771  17.050   7.648  0.0753  0.2198 -0.2586
  260loPI   C1B 4157   1.991  16.928   9.154 -0.4267  0.0831  0.0059
  260loPI   C2B 4158   1.961  16.601   8.935 -0.5349 -0.1614 -0.0127
  260loPI   C3B 4159   2.030  16.508   8.521 -0.0948 -0.0352 -0.1174
  260loPI   C4B 4160   2.230  16.376   8.085  0.1781  0.0945 -0.0716
  261loPI    C1 4161  11.081   5.818  10.454  0.0423 -0.1994 -0.0772
  261loPI    C2 4162  11.429   5.790  10.649 -0.0291 -0.0848  0.0685
  261loPI    C3 4163  11.120   5.560  10.757 -0.1340  0.1307  0.2329
  261loPI   PO4 4164  11.063   6.126  10.356  0.3625 -0.1718 -0.0606
  261loPI   GL1 4165  10.970   6.240   9.934  0.1286  0.2629 -0.1524
  261loPI   GL2 4166  10.898   6.039   9.655 -0.0117 -0.1422 -0.1528
  261loPI   C1A 4167  11.005   6.548   9.620  0.0411  0.0649  0.0355
  261loPI   C2A 4168  11.059   6.429   9.099  0.0373  0.0430 -0.2087
  261loPI   C3A 4169  11.113   6.347   8.724 -0.0819 -0.0166  0.2402
  261loPI   C4A 4170  11.119   6.234   8.296  0.1887 -0.1861  0.1885
  261loPI   C5A 4171  11.191   6.186   7.839  0.0616  0.1454 -0.1623
  261loPI   C6A 4172  11.176   5.943   7.418 -0.2695  0.0339  0.4338
  261loPI   C1B 4173  11.075   5.933   9.347 -0.2920 -0.0263  0.0822
  261loPI   C2B 4174  11.219   5.958   8.956 -0.1239 -0.0008 -0.1033
  261loPI   C3B 4175  11.293   5.841   8.498 -0.2956 -0.1068  0.0424
  261loPI   C4B 4176  11.250   5.728   8.032 -0.1824 -0.2693  0.1422
  262loPI    C1 4177  14.805   7.033  10.387  0.0413 -0.1232  0.1192
  262loPI    C2 4178  14.886   6.795  10.698 -0.1450 -0.0413  0.2320
  262loPI    C3 4179  14.561   7.028  10.703 -0.1002  0.0287  0.0142
  262loPI   PO4 4180  14.801   6.928  10.182 -0.2222 -0.2179 -0.1315
  262loPI   GL1 4181  14.620   6.991   9.768 -0.2073 -0.1777  0.2191
  262loPI   GL2 4182  14.317   6.771   9.698 -0.0788  0.2416  0.0779
  262loPI   C1A 4183  14.806   6.870   9.365  0.2575 -0.0553  0.2429
  262loPI   C2A 4184  14.800   6.598   8.981  0.2052  0.0198 -0.0534
  262loPI   C3A 4185  14.903   6.368   8.621 -0.0203  0.0641 -0.1065
  262loPI   C4A 4186  15.197   6.152   8.302 -0.2280  0.2402 -0.3161
  262loPI   C5A 4187  15.339   6.393   8.060 -0.1097 -0.1139 -0.0732
  262loPI   C6A 4188  15.288   6.713   7.667 -0.1012 -0.3173  0.0435
  262loPI   C1B 4189  14.328   6.763   9.268 -0.0484  0.0450 -0.0198
  262loPI   C2B 4190  14.480   6.930   8.908 -0.1528 -0.1707 -0.0965
  262loPI   C3B 4191  14.682   6.810   8.532 -0.1019 -0.0853  0.1823
  262loPI   C4B 4192  14.843   6.694   8.093 -0.3277  0.0405 -0.0288
  263loPI    C1 4193  10.691  13.229  10.150 -0.0044  0.0604  0.1632
  263loPI    C2 4194  10.599  12.858  10.031  0.0223  0.0988  0.0211
  263loPI    C3 4195  10.531  12.969  10.409 -0.1581  0.0067  0.0168
  263loPI   PO4 4196  10.651  13.352   9.930  0.4214 -0.0675 -0.2210
  263loPI   GL1 4197  10.316  13.524   9.732 -0.0804 -0.1150 -0.1481
  263loPI   GL2 4198  10.568  13.395   9.463 -0.1307 -0.0080 -0.1708
  263loPI   C1A 4199  10.081  13.799   9.456 -0.0946  0.0504  0.2965
  263loPI   C2A 4200  10.091  13.998   9.147 -0.1882 -0.1603  0.1723
  263loPI   C3A 4201  10.161  14.182   8.756 -0.1426 -0.1304  0.0961
  263loPI   C4A 4202   9.968  14.544   8.446  0.0720  0.1789  0.1490
  263loPI   C5A 4203   9.997  14.822   8.059  0.1567 -0.0179  0.0887
  263loPI   C6A 4204  10.027  14.913   7.577 -0.0973 -0.2205  0.1327
  263loPI   C1B 4205  10.680  13.412   9.008 -0.3555  0.0481  0.0849
  263loPI   C2B 4206  10.934  13.531   8.725 -0.0457  0.0391 -0.3282
  263loPI   C3B 4207  10.927  13.556   8.272 -0.3020  0.0491 -0.0223
  263loPI   C4B 4208  11.051  13.530   7.898 -0.0101 -0.0581  0.1887
  264loPI    C1 4209   5.055   0.726  10.239 -0.0029  0.1414 -0.0448
  264loPI    C2 4210   4.931   1.072  10.397  0.0166  0.0269  0.2252
  264loPI    C3 4211   5.316   1.024  10.299 -0.0172  0.1384  0.0338
  264loPI   PO4 4212   4.845   0.637  10.074  0.2023 -0.1218 -0.1475
  264loPI   GL1 4213   4.815   0.598   9.736 -0.0462 -0.0305  0.0704
  264loPI   GL2 4214   5.211   0.637   9.732  0.2401  0.1315 -0.0213
  264loPI   C1A 4215   4.630   0.681   9.418  0.1674  0.1182  0.0222
  264loPI   C2A 4216   4.522   0.786   9.073  0.2644  0.0704 -0.0450
  264loPI   C3A 4217   4.586   0.914   8.645  0.1205  0.1840  0.0889
  264loPI   C4A 4218   4.542   0.826   8.299 -0.1868  0.0602  0.1758
  264loPI   C5A 4219   4.709   0.897   7.854 -0.0062 -0.0467  0.0942
  264loPI   C6A 4220   5.034   0.795   7.623  0.0505  0.1142  0.1404
  264loPI   C1B 4221   5.144   0.790   9.413  0.1728  0.3056 -0.0542
  264loPI   C2B 4222   5.184   0.756   9.056 -0.0087  0.1943  0.0656
  264loPI   C3B 4223   5.024   0.714   8.584  0.1335 -0.1119 -0.2002
  264loPI   C4B 4224   5.087   0.629   8.100 -0.2287  0.0685 -0.3169
  265loPI    C1 4225   9.503   6.592  10.342  0.1036 -0.2752  0.1697
  265loPI    C2 4226   9.451   6.709  10.721  0.0089 -0.2457  0.1480
  265loPI    C3 4227   9.799   6.779  10.535 -0.1657  0.3311  0.0184
  265loPI   PO4 4228   9.317   6.724  10.203  0.1019 -0.0664  0.1572
  265loPI   GL1 4229   9.345   6.815   9.859  0.1161  0.1023 -0.0535
  265loPI   GL2 4230   9.189   6.964   9.768 -0.1662  0.1769  0.1019
  265loPI   C1A 4231   9.676   7.014   9.620 -0.0774 -0.0404 -0.1013
  265loPI   C2A 4232   9.764   7.081   9.200  0.0057 -0.1138 -0.0676
  265loPI   C3A 4233   9.853   7.102   8.797 -0.1876  0.0096 -0.2875
  265loPI   C4A 4234   9.960   7.069   8.386  0.2281  0.2654 -0.0977
  265loPI   C5A 4235  10.380   7.361   8.188  0.1023  0.0189  0.0223
  265loPI   C6A 4236  10.399   7.581   7.787 -0.2969  0.0593  0.1120
  265loPI   C1B 4237   9.284   7.219   9.449 -0.5618  0.1198  0.2235
  265loPI   C2B 4238   9.359   7.325   8.986 -0.5382 -0.0692  0.1146
  265loPI   C3B 4239   9.477   7.304   8.641  0.4518  0.4179 -0.2368
  265loPI   C4B 4240   9.531   7.184   8.166  0.1365  0.5099 -0.3297
  266loPI    C1 4241  18.175   0.741  10.364 -0.0359  0.1946  0.1443
  266loPI    C2 4242  18.261   0.692  10.751 -0.2077 -0.0638  0.1524
  266loPI    C3 4243  18.082   0.398  10.548 -0.0441  0.0383 -0.1449
  266loPI   PO4 4244  18.325   0.779  10.152  0.1217  0.1394  0.1777
  266loPI   GL1 4245  18.351   0.591   9.733  0.2319 -0.0147 -0.0711
  266loPI   GL2 4246  18.227   0.909   9.603  0.2969  0.4606 -0.0102
  266loPI   C1A 4247  18.743   0.776   9.464 -0.0463 -0.1021 -0.0838
  266loPI   C2A 4248  18.780   0.710   9.005 -0.0430 -0.0741  0.0313
  266loPI   C3A 4249  18.888   0.728   8.700  0.0391  0.0143  0.1691
  266loPI   C4A 4250  19.110   0.890   8.451  0.3172  0.1564  0.3825
  266loPI   C5A 4251  19.041   1.055   8.044 -0.2431 -0.0390  0.2921
  266loPI   C6A 4252  19.134   1.183   7.715 -0.0509  0.0795 -0.2425
  266loPI   C1B 4253  18.234   0.866   9.138  0.0355 -0.0394  0.1555
  266loPI   C2B 4254  18.287   0.875   8.754  0.0604  0.0907  0.1377
  266loPI   C3B 4255  18.203   0.920   8.224 -0.1996 -0.2741 -0.0557
  266loPI   C4B 4256  18.385   1.270   7.904 -0.2053  0.0750  0.2014
  267loPI    C1 4257   2.453   5.668  10.204  0.1367  0.1594  0.0794
  267loPI    C2 4258   2.234   5.418  10.426 -0.0690  0.0691 -0.2203
  267loPI    C3 4259   2.569   5.576  10.576 -0.1869 -0.0139  0.1408
  267loPI   PO4 4260   2.283   5.814  10.180 -0.3003 -0.0334 -0.0148
  267loPI   GL1 4261   2.175   5.983   9.896  0.1860 -0.0908  0.0569
  267loPI   GL2 4262   2.383   6.093   9.760 -0.0498 -0.2700 -0.0459
  267loPI   C1A 4263   1.834   5.770   9.713  0.0546 -0.1685 -0.1690
  267loPI   C2A 4264   1.689   5.635   9.308 -0.2549 -0.0883  0.3526
  267loPI   C3A 4265   1.620   5.623   8.847  0.1142  0.0946  0.0537
  267loPI   C4A 4266   1.757   5.839   8.484 -0.2377 -0.0284 -0.0276
  267loPI   C5A 4267   1.888   5.750   8.082 -0.0927  0.3729  0.0027
  267loPI   C6A 4268   2.158   5.422   7.800 -0.2969  0.0012 -0.1406
  267loPI   C1B 4269   2.550   6.045   9.425  0.0499 -0.1322 -0.0260
  267loPI   C2B 4270   2.488   6.205   9.025  0.2176 -0.1465 -0.0523
  267loPI   C3B 4271   2.495   6.421   8.661  0.2781 -0.1702 -0.0867
  267loPI   C4B 4272   2.509   6.762   8.292 -0.0590  0.0003 -0.1715
  268loPI    C1 4273  10.932   5.653   9.997 -0.0250  0.0882 -0.0184
  268loPI    C2 4274  11.081   5.285   9.950  0.0335  0.1288 -0.1572
  268loPI    C3 4275  10.890   5.381  10.288  0.1301  0.0102 -0.0673
  268loPI   PO4 4276  10.673   5.679   9.872  0.1424 -0.0034  0.0987
  268loPI   GL1 4277  10.548   5.762   9.470  0.2523  0.0490 -0.0880
  268loPI   GL2 4278  10.184   5.667   9.380  0.0777 -0.3252 -0.0022
  268loPI   C1A 4279  10.622   5.972   9.144  0.0419 -0.1021 -0.0074
  268loPI   C2A 4280  10.699   6.043   8.764 -0.2106 -0.1051  0.1089
  268loPI   C3A 4281  10.697   5.870   8.332  0.0114  0.1285  0.0180
  268loPI   C4A 4282  10.757   5.800   7.970 -0.0109  0.1217  0.1659
  268loPI   C5A 4283  10.759   5.689   7.666 -0.1285 -0.1424  0.1265
  268loPI   C6A 4284  10.605   5.492   7.293  0.0317  0.0284  0.2445
  268loPI   C1B 4285  10.410   5.552   8.944  0.1049  0.1980  0.0811
  268loPI   C2B 4286  10.400   5.502   8.496  0.0151 -0.2217 -0.0867
  268loPI   C3B 4287  10.512   5.358   8.081  0.1545 -0.1683 -0.0724
  268loPI   C4B 4288  10.643   5.162   7.611  0.0550  0.0484  0.0093
  269loPI    C1 4289   6.371  15.668  10.434  0.0263 -0.1928  0.0142
  269loPI    C2 4290   6.682  15.631  10.683  0.0970 -0.1288 -0.0637
  269loPI    C3 4291   6.319  15.714  10.828  0.1553  0.0005  0.0103
  269loPI   PO4 4292   6.438  15.850  10.314 -0.2652 -0.0481 -0.0689
  269loPI   GL1 4293   6.326  16.014   9.900 -0.1807  0.0529  0.2162
  269loPI   GL2 4294   6.603  16.225   9.768 -0.0705  0.0588  0.0984
  269loPI   C1A 4295   6.340  15.879   9.485 -0.0121  0.3209 -0.0216
  269loPI   C2A 4296   6.258  15.698   9.111  0.2364  0.1783  0.1013
  269loPI   C3A 4297   6.284  15.600   8.670 -0.2179  0.1809  0.0979
  269loPI   C4A 4298   6.162  15.539   8.326  0.0859  0.1837  0.0717
  269loPI   C5A 4299   5.997  15.704   8.017 -0.1040  0.0057  0.0541
  269loPI   C6A 4300   5.578  15.960   7.978 -0.2283 -0.0078 -0.1668
  269loPI   C1B 4301   6.587  16.375   9.309  0.0008 -0.3788 -0.1129
  269loPI   C2B 4302   6.576  16.479   8.940 -0.0292 -0.4571  0.0710
  269loPI   C3B 4303   6.757  16.366   8.539 -0.0942 -0.0826 -0.2328
  269loPI   C4B 4304   6.789  16.321   8.106 -0.0956 -0.0151 -0.0155
  270loPI    C1 4305   7.277   5.033   9.650  0.0878 -0.1383 -0.1600
  270loPI    C2 4306   7.060   4.971   9.980  0.1446 -0.0146 -0.0988
  270loPI    C3 4307   7.015   4.731   9.663  0.0693 -0.1164 -0.0119
  270loPI   PO4 4308   7.444   5.329   9.689  0.0891  0.3086 -0.2605
  270loPI   GL1 4309   7.336   5.776   9.544  0.1071  0.0853  0.0764
  270loPI   GL2 4310   7.546   5.640   9.363  0.1027  0.0956 -0.1757
  270loPI   C1A 4311   7.287   6.148   9.287 -0.0762 -0.3065  0.0792
  270loPI   C2A 4312   7.309   6.234   8.879 -0.0016  0.0674 -0.0362
  270loPI   C3A 4313   7.344   6.050   8.486 -0.2271  0.0819  0.2524
  270loPI   C4A 4314   7.352   6.357   8.176 -0.3119  0.0643 -0.0633
  270loPI   C5A 4315   7.447   6.666   7.769  0.0600  0.1961  0.1774
  270loPI   C6A 4316   7.826   6.614   7.518  0.0641 -0.3656  0.1631
  270loPI   C1B 4317   7.643   5.798   8.983 -0.0139 -0.2315  0.0737
  270loPI   C2B 4318   7.772   5.920   8.668  0.2029 -0.0805 -0.0663
  270loPI   C3B 4319   7.808   6.052   8.257 -0.1671 -0.0729  0.1596
  270loPI   C4B 4320   7.702   6.186   7.763  0.3366  0.1737 -0.1155
  271loPI    C1 4321   6.086   9.718  10.510  0.2793 -0.2251 -0.1186
  271loPI    C2 4322   6.111  10.116  10.543 -0.1088 -0.2109  0.0629
  271loPI    C3 4323   6.118   9.887  10.871  0.0179 -0.3493 -0.0349
  271loPI   PO4 4324   5.889   9.656  10.329 -0.0894 -0.0819 -0.1315
  271loPI   GL1 4325   5.790   9.344  10.096  0.4817  0.2590  0.0811
  271loPI   GL2 4326   5.518   9.297   9.941 -0.0800 -0.1613  0.1111
  271loPI   C1A 4327   5.968   9.272   9.742 -0.2137  0.2830 -0.0444
  271loPI   C2A 4328   5.965   9.224   9.257 -0.1454  0.2447  0.1072
  271loPI   C3A 4329   5.912   9.094   8.802 -0.2499 -0.2650 -0.5336
  271loPI   C4A 4330   6.054   8.902   8.454  0.1250  0.1342  0.2780
  271loPI   C5A 4331   6.161   8.925   8.040  0.3487  0.0830  0.0639
  271loPI   C6A 4332   6.569   8.914   7.906 -0.0382  0.2115 -0.1260
  271loPI   C1B 4333   5.594   9.516   9.537 -0.0940  0.0057 -0.0071
  271loPI   C2B 4334   5.613   9.629   9.217 -0.0483  0.0785 -0.0354
  271loPI   C3B 4335   5.501   9.681   8.887  0.2234  0.2056  0.2205
  271loPI   C4B 4336   5.354   9.633   8.459  0.2001  0.0366  0.3935
  272loPI    C1 4337  15.735  14.998  10.115 -0.3239 -0.1937 -0.1081
  272loPI    C2 4338  15.654  15.316  10.343 -0.1806 -0.1391 -0.1321
  272loPI    C3 4339  15.773  14.974  10.512 -0.0727 -0.0981 -0.1242
  272loPI   PO4 4340  15.867  15.074   9.959 -0.0876  0.0232 -0.0273
  272loPI   GL1 4341  15.898  14.996   9.499  0.0495 -0.3761  0.1571
  272loPI   GL2 4342  16.209  14.843   9.414  0.4154  0.0059 -0.0852
  272loPI   C1A 4343  15.833  15.196   9.101  0.1845  0.1909  0.0596
  272loPI   C2A 4344  15.649  15.156   8.721  0.0455 -0.0750 -0.3176
  272loPI   C3A 4345  15.529  15.248   8.375  0.0878 -0.0182 -0.1328
  272loPI   C4A 4346  15.217  15.168   8.225  0.3302  0.0255 -0.1029
  272loPI   C5A 4347  15.023  15.500   8.038 -0.1390  0.3537 -0.1478
  272loPI   C6A 4348  14.739  15.824   8.097 -0.1699 -0.2020  0.0132
  272loPI   C1B 4349  16.440  14.597   9.123  0.3079 -0.0874  0.0267
  272loPI   C2B 4350  16.548  14.677   8.672  0.3757  0.1567 -0.1959
  272loPI   C3B 4351  16.657  14.719   8.222  0.1227 -0.0957 -0.0255
  272loPI   C4B 4352  17.053  14.512   8.084  0.1704 -0.0262  0.2264
  273loPI    C1 4353  12.269   6.683  10.278  0.2035 -0.0236 -0.0611
  273loPI    C2 4354  12.610   6.870  10.184  0.1733  0.1036  0.0781
  273loPI    C3 4355  12.473   6.881  10.560  0.0728 -0.0409  0.0465
  273loPI   PO4 4356  12.367   6.448  10.187  0.0084 -0.2327 -0.0095
  273loPI   GL1 4357  12.719   6.492   9.902  0.5357  0.4824  0.1135
  273loPI   GL2 4358  12.797   6.741   9.648  0.0789 -0.0040  0.1104
  273loPI   C1A 4359  12.422   6.348   9.574 -0.0599 -0.4590  0.3259
  273loPI   C2A 4360  12.404   6.372   9.136  0.0991  0.0275 -0.2002
  273loPI   C3A 4361  12.473   6.266   8.664  0.0279 -0.1575 -0.0836
  273loPI   C4A 4362  12.462   6.462   8.296  0.3979 -0.1539  0.0223
  273loPI   C5A 4363  12.316   6.789   8.025  0.0141 -0.0012  0.0781
  273loPI   C6A 4364  11.992   7.046   7.905 -0.1914 -0.1717  0.1071
  273loPI   C1B 4365  12.829   6.662   9.174 -0.0118 -0.1541 -0.1869
  273loPI   C2B 4366  12.784   6.634   8.739  0.0489  0.1673 -0.4449
  273loPI   C3B 4367  12.914   6.498   8.366 -0.3420 -0.2388 -0.1826
  273loPI   C4B 4368  13.239   6.391   8.013  0.0741 -0.2673 -0.0349
  274loPI    C1 4369  17.178  11.951  10.120 -0.1359  0.0603 -0.0701
  274loPI    C2 4370  17.445  12.177  10.315 -0.0933 -0.1002  0.0606
  274loPI    C3 4371  17.282  12.308   9.974  0.2540 -0.0577 -0.0940
  274loPI   PO4 4372  17.313  11.743  10.090  0.4356 -0.1873 -0.1044
  274loPI   GL1 4373  17.452  11.700   9.763  0.0195 -0.0136 -0.0232
  274loPI   GL2 4374  17.318  11.992   9.552 -0.3230  0.1661  0.0417
  274loPI   C1A 4375  17.440  11.558   9.376 -0.1311 -0.1337  0.3070
  274loPI   C2A 4376  17.290  11.462   8.961  0.1215 -0.1395 -0.0734
  274loPI   C3A 4377  17.254  11.304   8.516  0.0035  0.1991  0.1146
  274loPI   C4A 4378  17.065  11.013   8.230 -0.0939 -0.1297  0.1166
  274loPI   C5A 4379  16.853  10.622   8.087 -0.0663  0.0274 -0.0338
  274loPI   C6A 4380  16.722  10.208   8.174  0.2010 -0.0531 -0.3498
  274loPI   C1B 4381  17.268  11.978   9.159  0.2047 -0.1576  0.1196
  274loPI   C2B 4382  17.439  11.901   8.776  0.2235  0.3561 -0.0838
  274loPI   C3B 4383  17.742  12.052   8.598 -0.2477  0.1935  0.0589
  274loPI   C4B 4384  17.626  12.395   8.275  0.2399 -0.0948  0.3133
  275loPI    C1 4385   3.736  18.308  10.359 -0.0232 -0.1239 -0.3475
  275loPI    C2 4386   4.088  18.229  10.186  0.1059  0.1482 -0.2155
  275loPI    C3 4387   4.056  18.224  10.584 -0.1857 -0.4579 -0.2353
  275loPI   PO4 4388   3.607  18.303  10.180 -0.2062  0.0860 -0.0023
  275loPI   GL1 4389   3.496  18.274   9.799 -0.2260 -0.0959  0.1117
  275loPI   GL2 4390   3.586  18.024   9.656  0.1219  0.3293 -0.0065
  275loPI   C1A 4391   3.312  18.265   9.278 -0.0452  0.1849 -0.0709
  275loPI   C2A 4392   3.438  18.118   8.910  0.1492 -0.3660  0.4141
  275loPI   C3A 4393   3.255  18.099   8.506  0.0700  0.0238 -0.0767
  275loPI   C4A 4394   3.376  17.745   8.134 -0.2561 -0.1346 -0.1140
  275loPI   C5A 4395   3.441  17.810   7.766  0.0187  0.1749 -0.1722
  275loPI   C6A 4396   3.447  18.175   7.521  0.3612 -0.4159 -0.1127
  275loPI   C1B 4397   3.797  18.128   9.274 -0.0278  0.1520 -0.0907
  275loPI   C2B 4398   3.997  18.087   8.923  0.1499 -0.1180  0.0698
  275loPI   C3B 4399   3.728  18.092   8.439 -0.0449  0.0228  0.2191
  275loPI   C4B 4400   3.816  18.129   7.984  0.0567  0.0285  0.2155
  276loPI    C1 4401   8.711   6.088  10.073  0.1150  0.0130  0.0401
  276loPI    C2 4402   8.794   5.896  10.414 -0.0540  0.1257  0.1461
  276loPI    C3 4403   8.464   6.120  10.386 -0.0201  0.1495 -0.0791
  276loPI   PO4 4404   8.881   5.903   9.884  0.1919  0.0365  0.0557
  276loPI   GL1 4405   8.853   5.750   9.453  0.0229  0.2137 -0.0199
  276loPI   GL2 4406   8.867   5.409   9.343 -0.1828 -0.1328  0.0499
  276loPI   C1A 4407   9.090   5.828   9.064 -0.0574  0.1172  0.3604
  276loPI   C2A 4408   9.366   5.782   8.782  0.0504  0.0571  0.2937
  276loPI   C3A 4409   9.512   5.891   8.410 -0.0750 -0.0189  0.1706
  276loPI   C4A 4410   9.554   5.718   8.024 -0.1401 -0.1199  0.2059
  276loPI   C5A 4411   9.782   5.662   7.754 -0.1341 -0.1786  0.2163
  276loPI   C6A 4412  10.141   5.380   7.627 -0.1421  0.1180  0.0147
  276loPI   C1B 4413   9.015   5.383   8.840  0.0778  0.3335  0.1079
  276loPI   C2B 4414   9.138   5.443   8.441 -0.1180  0.0386 -0.3038
  276loPI   C3B 4415   9.169   5.275   8.080 -0.0375 -0.1851 -0.0522
  276loPI   C4B 4416   9.253   5.256   7.641  0.0142 -0.0475 -0.1921
  277loPI    C1 4417   6.983  14.488  10.402 -0.1427 -0.1636  0.0810
  277loPI    C2 4418   7.330  14.354  10.550  0.0282  0.0183 -0.1473
  277loPI    C3 4419   7.151  14.671  10.716 -0.1606 -0.2268  0.1276
  277loPI   PO4 4420   6.991  14.370  10.187 -0.1901 -0.0670 -0.0351
  277loPI   GL1 4421   7.248  14.165   9.937  0.0585  0.0357  0.4090
  277loPI   GL2 4422   7.210  13.809   9.896  0.0021 -0.4551  0.0017
  277loPI   C1A 4423   7.178  14.305   9.454  0.0849 -0.3735  0.1583
  277loPI   C2A 4424   7.085  14.426   8.978  0.0256  0.0342  0.1706
  277loPI   C3A 4425   7.224  14.495   8.556 -0.1860 -0.3579  0.0183
  277loPI   C4A 4426   7.448  14.688   8.145  0.0853 -0.0572  0.2269
  277loPI   C5A 4427   7.638  14.506   7.752 -0.0301 -0.3327 -0.1873
  277loPI   C6A 4428   7.681  14.226   7.440 -0.1832 -0.1125  0.0957
  277loPI   C1B 4429   7.340  13.857   9.514 -0.3025  0.1875  0.2652
  277loPI   C2B 4430   7.463  13.826   9.134 -0.1157  0.4653 -0.2498
  277loPI   C3B 4431   7.524  13.740   8.712  0.2902  0.1314  0.0694
  277loPI   C4B 4432   7.440  13.383   8.464 -0.1026  0.1268  0.0015
  278loPI    C1 4433  11.695  17.410  10.599 -0.0036  0.2487 -0.0671
  278loPI    C2 4434  11.376  17.483  10.829 -0.0419  0.0389 -0.0510
  278loPI    C3 4435  11.731  17.641  10.923 -0.0567 -0.0458  0.1529
  278loPI   PO4 4436  11.600  17.360  10.408  0.0792  0.1287 -0.0643
  278loPI   GL1 4437  11.461  17.256   9.982 -0.0687  0.1490 -0.0938
  278loPI   GL2 4438  11.402  17.499   9.776 -0.0467 -0.2933  0.1112
  278loPI   C1A 4439  11.602  16.953   9.716 -0.1336 -0.0154  0.0100
  278loPI   C2A 4440  11.523  16.875   9.241 -0.0932  0.0070 -0.1008
  278loPI   C3A 4441  11.404  16.522   9.066  0.0810 -0.1507 -0.1758
  278loPI   C4A 4442  11.374  16.163   8.791 -0.1184 -0.3302  0.1585
  278loPI   C5A 4443  11.322  15.994   8.375 -0.0658 -0.1154  0.0385
  278loPI   C6A 4444  11.490  15.687   7.965  0.1609  0.3952  0.0847
  278loPI   C1B 4445  11.502  17.344   9.437 -0.0699 -0.0264 -0.3538
  278loPI   C2B 4446  11.511  17.322   8.978 -0.0429  0.0153  0.0235
  278loPI   C3B 4447  11.672  17.187   8.648  0.0980  0.0689 -0.0213
  278loPI   C4B 4448  11.690  17.068   8.236 -0.1181  0.0533 -0.3616
  279loPI    C1 4449   5.165  10.619  10.345 -0.0292 -0.1244  0.0182
  279loPI    C2 4450   5.550  10.652  10.242 -0.0541 -0.0423 -0.0496
  279loPI    C3 4451   5.414  10.840  10.567 -0.0776  0.0843 -0.1319
  279loPI   PO4 4452   5.050  10.688  10.177  0.1027  0.0371 -0.1164
  279loPI   GL1 4453   5.160  10.741   9.833  0.1963  0.0567 -0.2024
  279loPI   GL2 4454   5.417  10.512   9.753  0.0751 -0.2264  0.0019
  279loPI   C1A 4455   5.084  10.733   9.403  0.2063 -0.2768  0.1229
  279loPI   C2A 4456   5.250  10.702   9.011  0.0044  0.1041  0.0779
  279loPI   C3A 4457   5.307  10.633   8.561  0.0580  0.2206  0.1414
  279loPI   C4A 4458   5.097  10.502   8.113 -0.1859  0.0073 -0.5417
  279loPI   C5A 4459   4.664  10.526   7.947 -0.0597 -0.0440  0.0696
  279loPI   C6A 4460   4.439  10.645   7.588  0.1131 -0.1542  0.0407
  279loPI   C1B 4461   5.233  10.206   9.517  0.1176  0.0176 -0.3036
  279loPI   C2B 4462   5.260  10.169   9.189 -0.1909 -0.3460  0.2447
  279loPI   C3B 4463   5.184  10.170   8.877  0.0754  0.3142  0.2186
  279loPI   C4B 4464   5.034  10.141   8.476 -0.0318  0.1012  0.2236
  280loPI    C1 4465   1.078  16.362   9.951  0.1400  0.1559  0.0656
  280loPI    C2 4466   1.121  16.728  10.107  0.0578  0.1386  0.1290
  280loPI    C3 4467   0.934  16.442  10.316  0.2396  0.0227  0.1351
  280loPI   PO4 4468   0.903  16.287   9.783  0.0778 -0.1485 -0.3548
  280loPI   GL1 4469   0.676  16.137   9.445  0.2299 -0.0367 -0.0839
  280loPI   GL2 4470   0.698  16.456   9.281 -0.0133 -0.0530 -0.1276
  280loPI   C1A 4471   0.615  16.026   9.054  0.0522 -0.0391  0.0468
  280loPI   C2A 4472   0.657  16.033   8.626 -0.1863  0.0750  0.0145
  280loPI   C3A 4473   0.691  16.071   8.184 -0.3605 -0.2362  0.3533
  280loPI   C4A 4474   0.806  16.115   7.840  0.0337 -0.0221 -0.1856
  280loPI   C5A 4475   1.143  16.227   7.535  0.1332  0.4626 -0.2275
  280loPI   C6A 4476   1.291  16.187   7.110 -0.2810 -0.4123  0.0162
  280loPI   C1B 4477   0.708  16.483   8.895  0.2060  0.0213 -0.1398
  280loPI   C2B 4478   0.725  16.563   8.496 -0.2075 -0.0207 -0.2243
  280loPI   C3B 4479   0.842  16.588   8.124 -0.2396 -0.1752  0.4525
  280loPI   C4B 4480   0.855  16.732   7.730  0.1253 -0.1759  0.1121
  281loPI    C1 4481  17.064  14.463   9.745 -0.1627 -0.1036 -0.2685
  281loPI    C2 4482  17.056  14.504  10.142 -0.1313 -0.1825 -0.2594
  281loPI    C3 4483  16.867  14.197   9.969 -0.3961  0.0154 -0.3292
  281loPI   PO4 4484  17.256  14.426   9.673  0.0024 -0.1478 -0.0874
  281loPI   GL1 4485  17.483  14.518   9.270  0.0863  0.1234 -0.2526
  281loPI   GL2 4486  17.881  14.470   9.383 -0.2924  0.0746 -0.2082
  281loPI   C1A 4487  17.625  14.111   9.163  0.0203  0.0822 -0.0991
  281loPI   C2A 4488  17.598  13.802   8.841 -0.0015 -0.1726  0.0603
  281loPI   C3A 4489  17.735  13.720   8.372  0.1043 -0.4114  0.0744
  281loPI   C4A 4490  17.810  13.916   7.928  0.0674 -0.1011  0.0733
  281loPI   C5A 4491  17.980  14.317   7.780  0.1037  0.0031 -0.2718
  281loPI   C6A 4492  18.036  14.589   7.527  0.1261 -0.0234  0.2065
  281loPI   C1B 4493  18.148  14.247   9.028 -0.0041  0.1147 -0.1645
  281loPI   C2B 4494  18.478  14.165   8.683  0.1763 -0.1230  0.2386
  281loPI   C3B 4495  18.782  13.903   8.408  0.0548 -0.3224 -0.0689
  281loPI   C4B 4496  18.977  13.730   8.037 -0.3251 -0.0661 -0.0864
  282loPI    C1 4497  16.534  12.080  10.401 -0.3034 -0.0658 -0.1529
  282loPI    C2 4498  16.340  11.821  10.637  0.1563 -0.1849  0.1056
  282loPI    C3 4499  16.538  12.129  10.797 -0.0066  0.0688 -0.1703
  282loPI   PO4 4500  16.669  11.894  10.274 -0.1522  0.0971 -0.1469
  282loPI   GL1 4501  16.795  11.670   9.914  0.2853  0.1292 -0.2529
  282loPI   GL2 4502  16.969  11.571   9.707 -0.1426  0.1560  0.0842
  282loPI   C1A 4503  16.448  11.712   9.606 -0.0698 -0.3435  0.1635
  282loPI   C2A 4504  16.428  11.653   9.202  0.0282  0.1496 -0.0003
  282loPI   C3A 4505  16.403  11.785   8.749 -0.0774 -0.0938 -0.1520
  282loPI   C4A 4506  16.673  11.970   8.290 -0.0450  0.1853 -0.0087
  282loPI   C5A 4507  16.506  12.013   7.921 -0.3409 -0.1117  0.2290
  282loPI   C6A 4508  16.434  12.088   7.526 -0.3844 -0.1574 -0.0458
  282loPI   C1B 4509  16.882  11.435   9.305  0.3202 -0.3467  0.0733
  282loPI   C2B 4510  16.689  11.194   8.976 -0.0464 -0.4833  0.0377
  282loPI   C3B 4511  16.742  11.266   8.562 -0.1494  0.1184 -0.1745
  282loPI   C4B 4512  16.856  11.462   8.158 -0.2217  0.2007 -0.1717
  283loPI    C1 4513  12.234   2.079  10.302  0.1862  0.1823 -0.1667
  283loPI    C2 4514  12.613   2.202  10.268  0.1462  0.3328 -0.0802
  283loPI    C3 4515  12.486   2.039  10.610  0.1443  0.2401 -0.1247
  283loPI   PO4 4516  12.234   1.915  10.045  0.1247 -0.1044 -0.2144
  283loPI   GL1 4517  12.464   1.786   9.609 -0.1091 -0.0235 -0.0610
  283loPI   GL2 4518  12.233   1.690   9.552  0.2093 -0.1841 -0.1315
  283loPI   C1A 4519  12.752   1.977   9.435 -0.2034  0.0721  0.2711
  283loPI   C2A 4520  12.736   2.252   9.112 -0.0866  0.0724 -0.1424
  283loPI   C3A 4521  12.925   2.434   8.715  0.1721 -0.0497 -0.2968
  283loPI   C4A 4522  12.906   2.427   8.290  0.2152  0.0366  0.0730
  283loPI   C5A 4523  12.782   2.678   7.854  0.1197 -0.1307 -0.3354
  283loPI   C6A 4524  12.622   2.843   7.551  0.0734 -0.0306 -0.3193
  283loPI   C1B 4525  12.225   1.914   9.215 -0.0311 -0.0572 -0.2801
  283loPI   C2B 4526  12.365   2.059   8.904  0.2710 -0.2294 -0.1632
  283loPI   C3B 4527  12.511   2.151   8.574  0.0735  0.1684 -0.2556
  283loPI   C4B 4528  12.766   1.994   8.314  0.0975  0.0143 -0.0512
  284loPI    C1 4529   0.418  15.400  10.207  0.2340  0.0339 -0.1015
  284loPI    C2 4530   0.053  15.555  10.262  0.1387 -0.1624 -0.1712
  284loPI    C3 4531   0.373  15.740  10.414  0.0164  0.0404 -0.1562
  284loPI   PO4 4532   0.317  15.192   9.978 -0.0491 -0.1706 -0.1043
  284loPI   GL1 4533   0.314  15.044   9.658 -0.0199 -0.2832  0.2719
  284loPI   GL2 4534   0.302  15.266   9.442  0.0812 -0.0363 -0.0866
  284loPI   C1A 4535   0.082  14.831   9.356 -0.2659 -0.1144 -0.0710
  284loPI   C2A 4536  -0.030  14.619   8.926  0.0655 -0.0721 -0.2117
  284loPI   C3A 4537  -0.229  14.550   8.501  0.0098  0.2059  0.3189
  284loPI   C4A 4538  -0.346  14.174   8.254  0.3249  0.2451  0.2212
  284loPI   C5A 4539  -0.208  13.799   8.273 -0.1079  0.2098  0.3753
  284loPI   C6A 4540  -0.332  13.436   8.331  0.1083  0.1433 -0.0065
  284loPI   C1B 4541   0.288  15.213   9.081 -0.1080 -0.0354 -0.1710
  284loPI   C2B 4542   0.275  15.122   8.611  0.0217  0.0559  0.2208
  284loPI   C3B 4543   0.055  14.913   8.160 -0.2937  0.4428 -0.1092
  284loPI   C4B 4544  -0.366  14.813   8.024  0.5034 -0.1657  0.3081
  285loPI    C1 4545   7.252   3.711   9.745  0.1051  0.1361  0.1006
  285loPI    C2 4546   7.465   3.994   9.931 -0.0194  0.1429  0.2353
  285loPI    C3 4547   7.164   3.813  10.122  0.0460 -0.0668  0.1430
  285loPI   PO4 4548   7.401   3.569   9.625 -0.3004 -0.1907 -0.3952
  285loPI   GL1 4549   7.457   3.374   9.255 -0.0217 -0.3586 -0.1594
  285loPI   GL2 4550   7.728   3.291   9.345  0.0570 -0.2002  0.0977
  285loPI   C1A 4551   7.322   3.375   8.919  0.1989 -0.1899  0.1735
  285loPI   C2A 4552   7.485   3.579   8.456  0.1373 -0.1763 -0.2160
  285loPI   C3A 4553   7.666   3.478   8.136  0.0909  0.1011  0.1908
  285loPI   C4A 4554   7.479   3.260   7.797  0.0081  0.2600  0.1044
  285loPI   C5A 4555   7.302   2.818   7.874 -0.1700 -0.2218  0.1898
  285loPI   C6A 4556   7.425   2.527   7.678 -0.0351  0.1755 -0.1081
  285loPI   C1B 4557   7.784   3.194   8.853 -0.1203  0.0597  0.2037
  285loPI   C2B 4558   8.085   3.340   8.576  0.1342  0.0733 -0.1778
  285loPI   C3B 4559   8.253   3.338   8.224 -0.0828  0.3083 -0.2957
  285loPI   C4B 4560   8.480   3.257   7.814 -0.1465 -0.0387  0.1723
  286loPI    C1 4561   1.201   9.103  10.506  0.1055  0.2231 -0.1720
  286loPI    C2 4562   1.449   9.394  10.620  0.0530  0.1183  0.2224
  286loPI    C3 4563   1.321   9.124  10.886 -0.0010 -0.1909 -0.1099
  286loPI   PO4 4564   1.026   9.248  10.390 -0.1998  0.1769  0.0813
  286loPI   GL1 4565   1.195   9.480  10.083 -0.0461 -0.0025  0.0172
  286loPI   GL2 4566   0.892   9.621  10.050 -0.0808  0.1751  0.1269
  286loPI   C1A 4567   1.091   9.368   9.671  0.0352  0.0073 -0.1937
  286loPI   C2A 4568   1.049   9.503   9.248 -0.3272 -0.2961  0.1268
  286loPI   C3A 4569   0.948   9.372   8.864  0.0521  0.2656 -0.1047
  286loPI   C4A 4570   0.794   9.396   8.455 -0.2685  0.1503  0.1230
  286loPI   C5A 4571   0.437   9.033   8.326 -0.1137 -0.1490  0.1010
  286loPI   C6A 4572   0.051   9.050   8.332 -0.0210  0.0524 -0.0235
  286loPI   C1B 4573   0.906   9.904   9.652 -0.0352  0.2425  0.0919
  286loPI   C2B 4574   0.895  10.008   9.261 -0.0052  0.0422 -0.1486
  286loPI   C3B 4575   0.750  10.018   8.858  0.0299  0.2987  0.1920
  286loPI   C4B 4576   0.526   9.884   8.543  0.1540 -0.2622  0.0021
  287loPI    C1 4577   9.683   7.969  10.534 -0.2891 -0.1372 -0.1501
  287loPI    C2 4578   9.591   8.163  10.872 -0.0074  0.1347 -0.2256
  287loPI    C3 4579   9.627   7.765  10.873 -0.5239  0.0816 -0.0535
  287loPI   PO4 4580   9.857   8.188  10.365  0.2430  0.3772 -0.1375
  287loPI   GL1 4581   9.819   8.466   9.867  0.1253  0.0194  0.1553
  287loPI   GL2 4582  10.165   8.789   9.713  0.0884  0.1824  0.0152
  287loPI   C1A 4583   9.808   8.485   9.489 -0.1399  0.0165 -0.0762
  287loPI   C2A 4584   9.808   8.633   9.046  0.1815 -0.0483  0.1214
  287loPI   C3A 4585   9.794   8.970   8.783 -0.3743  0.1572 -0.2633
  287loPI   C4A 4586  10.086   8.963   8.327 -0.1665 -0.0332  0.1760
  287loPI   C5A 4587  10.295   9.233   8.067 -0.1624 -0.2484  0.0410
  287loPI   C6A 4588  10.372   9.610   7.871  0.0643 -0.0616 -0.2503
  287loPI   C1B 4589  10.001   8.985   9.309 -0.1157  0.0834  0.1870
  287loPI   C2B 4590  10.277   9.041   8.944  0.2409 -0.1025  0.0559
  287loPI   C3B 4591  10.571   9.135   8.813  0.0878  0.0648 -0.1438
  287loPI   C4B 4592  10.718   9.166   8.473  0.2901  0.0383  0.1412
  288loPI    C1 4593  16.109  17.747  10.560 -0.1249  0.0269 -0.3746
  288loPI    C2 4594  16.496  17.794  10.470 -0.0445 -0.0890 -0.1008
  288loPI    C3 4595  16.377  17.474  10.678 -0.2286  0.1479  0.1657
  288loPI   PO4 4596  16.050  17.750  10.249  0.0499  0.1557  0.0347
  288loPI   GL1 4597  16.190  17.974   9.933  0.1490  0.0433  0.0634
  288loPI   GL2 4598  16.432  18.087  10.033  0.1152  0.0090  0.0130
  288loPI   C1A 4599  15.896  17.938   9.582 -0.0496 -0.2297 -0.0801
  288loPI   C2A 4600  15.896  17.921   9.187  0.2403  0.1635 -0.0814
  288loPI   C3A 4601  15.895  18.056   8.820 -0.0742  0.2649 -0.1150
  288loPI   C4A 4602  15.843  17.967   8.343 -0.0236 -0.3145  0.0981
  288loPI   C5A 4603  15.554  18.072   7.960 -0.1841 -0.0724 -0.0230
  288loPI   C6A 4604  15.235  18.190   7.703 -0.2429 -0.1368  0.1880
  288loPI   C1B 4605  16.675  18.347   9.841  0.0868  0.0651  0.1673
  288loPI   C2B 4606  16.715  18.428   9.491  0.1282 -0.1403 -0.0267
  288loPI   C3B 4607  16.674  18.421   9.075  0.1197  0.2216  0.0155
  288loPI   C4B 4608  16.605  18.381   8.618  0.1527  0.1188 -0.2004
  289loPI    C1 4609   0.509   0.325  10.602 -0.0221 -0.0350 -0.0919
  289loPI    C2 4610   0.113   0.358  10.556 -0.0662 -0.0776  0.2307
  289loPI    C3 4611   0.265   0.266  10.914  0.2313 -0.1640  0.0851
  289loPI   PO4 4612   0.581   0.160  10.337 -0.0565 -0.3300 -0.2602
  289loPI   GL1 4613   0.607   0.214   9.843 -0.1917  0.0319 -0.2198
  289loPI   GL2 4614   0.312   0.153   9.897 -0.1571 -0.1027  0.2575
  289loPI   C1A 4615   0.771  -0.029   9.497 -0.2905  0.2178  0.3274
  289loPI   C2A 4616   0.863  -0.071   9.012 -0.2629 -0.1887  0.2538
  289loPI   C3A 4617   0.861   0.005   8.547  0.1846 -0.1208 -0.1309
  289loPI   C4A 4618   0.918  -0.074   8.170 -0.0175  0.1671  0.3109
  289loPI   C5A 4619   0.987  -0.444   7.997 -0.1614 -0.1909 -0.0648
  289loPI   C6A 4620   1.078  -0.733   8.227  0.0098  0.1894 -0.0757
  289loPI   C1B 4621   0.283   0.222   9.482  0.0182 -0.1108  0.2790
  289loPI   C2B 4622   0.492   0.262   9.166 -0.1084 -0.0625  0.0202
  289loPI   C3B 4623   0.504   0.273   8.766  0.0747  0.1379 -0.0080
  289loPI   C4B 4624   0.451   0.300   8.330 -0.0273  0.0984  0.0898
  290loPI    C1 4625  16.944   8.157  10.427 -0.1231  0.2330  0.1556
  290loPI    C2 4626  17.090   7.908  10.704 -0.0552  0.0040 -0.0828
  290loPI    C3 4627  17.143   8.303  10.742 -0.1109 -0.0194  0.2669
  290loPI   PO4 4628  16.832   7.961  10.275  0.1292  0.1159 -0.0241
  290loPI   GL1 4629  16.772   7.618   9.956 -0.2462 -0.3000  0.3939
  290loPI   GL2 4630  16.973   7.406   9.901 -0.2344  0.1737  0.1646
  290loPI   C1A 4631  16.476   7.652   9.621 -0.2048 -0.1334  0.0345
  290loPI   C2A 4632  16.339   7.566   9.251 -0.3777 -0.1969 -0.3292
  290loPI   C3A 4633  16.379   7.605   8.765  0.2193  0.0990 -0.0260
  290loPI   C4A 4634  16.492   7.526   8.347 -0.1094  0.2764 -0.0492
  290loPI   C5A 4635  16.678   7.660   7.920 -0.3559 -0.1612 -0.1574
  290loPI   C6A 4636  16.877   7.865   7.535  0.2826 -0.0114 -0.2068
  290loPI   C1B 4637  17.307   7.372   9.532  0.1885 -0.1600  0.0144
  290loPI   C2B 4638  17.536   7.242   9.285 -0.1773  0.1717  0.0138
  290loPI   C3B 4639  17.601   7.101   8.874 -0.0947 -0.0246 -0.2370
  290loPI   C4B 4640  17.808   7.188   8.409 -0.2175  0.2346 -0.2497
  291loPI    C1 4641   2.682   6.268  10.363 -0.0288 -0.3007 -0.0937
  291loPI    C2 4642   2.405   6.069  10.571  0.0626 -0.2633  0.0658
  291loPI    C3 4643   2.638   6.337  10.754  0.2177 -0.3083 -0.0629
  291loPI   PO4 4644   2.616   6.293  10.121 -0.1441 -0.0800  0.2015
  291loPI   GL1 4645   2.523   6.569   9.878  0.1511  0.2409  0.1911
  291loPI   GL2 4646   2.219   6.674   9.932 -0.1941 -0.1631 -0.0985
  291loPI   C1A 4647   2.439   6.524   9.501 -0.4360 -0.1341  0.2373
  291loPI   C2A 4648   2.246   6.693   9.089 -0.1672  0.3454 -0.0110
  291loPI   C3A 4649   2.081   7.034   9.004  0.0501 -0.1908 -0.2266
  291loPI   C4A 4650   1.955   7.384   8.766 -0.1810  0.1798  0.0188
  291loPI   C5A 4651   1.927   7.663   8.396 -0.1987 -0.0611  0.1717
  291loPI   C6A 4652   2.168   7.642   8.060  0.0549 -0.0221  0.0842
  291loPI   C1B 4653   1.909   6.823   9.809  0.0093  0.0719 -0.0276
  291loPI   C2B 4654   1.868   6.786   9.394 -0.0533  0.0629 -0.1517
  291loPI   C3B 4655   1.780   6.611   8.961  0.0413  0.1449  0.3149
  291loPI   C4B 4656   2.007   6.661   8.667  0.2431 -0.3036 -0.0318
  292loPI    C1 4657   2.835  10.994  10.555  0.0368  0.0545 -0.0814
  292loPI    C2 4658   2.897  10.736  10.854 -0.0096 -0.0434 -0.1555
  292loPI    C3 4659   2.528  10.870  10.779  0.0056 -0.0010 -0.1546
  292loPI   PO4 4660   2.929  10.881  10.341 -0.0789  0.0571 -0.0281
  292loPI   GL1 4661   2.771  10.966   9.868  0.1465 -0.2709 -0.1164
  292loPI   GL2 4662   3.038  10.842   9.623  0.1781  0.0529  0.1957
  292loPI   C1A 4663   2.537  10.878   9.489  0.2981  0.0679 -0.0427
  292loPI   C2A 4664   2.494  10.872   9.167 -0.1451 -0.0889 -0.0378
  292loPI   C3A 4665   2.447  10.915   8.720  0.3766 -0.0281  0.1778
  292loPI   C4A 4666   2.449  10.882   8.289  0.1871  0.1966 -0.1091
  292loPI   C5A 4667   2.791  10.766   8.134  0.1917  0.0483 -0.1509
  292loPI   C6A 4668   3.063  10.583   7.790 -0.2394  0.1444 -0.1877
  292loPI   C1B 4669   3.001  10.833   9.228 -0.1392 -0.3766  0.2396
  292loPI   C2B 4670   2.924  10.932   8.773 -0.1472  0.0685  0.1288
  292loPI   C3B 4671   3.251  10.817   8.393 -0.1237  0.0485  0.0374
  292loPI   C4B 4672   3.586  10.668   8.222  0.0789 -0.0949  0.0178
  293loPI    C1 4673  14.684  16.780  10.325 -0.1767 -0.2368 -0.4883
  293loPI    C2 4674  14.716  16.382  10.302 -0.0036 -0.2544 -0.0421
  293loPI    C3 4675  14.586  16.552  10.639  0.1642  0.0807 -0.1424
  293loPI   PO4 4676  14.634  16.853  10.141  0.2325 -0.0005  0.2808
  293loPI   GL1 4677  14.633  17.120   9.852  0.3597 -0.0918 -0.1967
  293loPI   GL2 4678  14.592  16.803   9.649  0.1749 -0.1047  0.1959
  293loPI   C1A 4679  14.581  17.195   9.377 -0.1605 -0.1836  0.0414
  293loPI   C2A 4680  14.701  17.057   8.987 -0.0543 -0.3751 -0.0567
  293loPI   C3A 4681  14.559  16.988   8.639 -0.1596 -0.0140  0.0623
  293loPI   C4A 4682  14.435  16.825   8.334 -0.1236 -0.3730  0.3557
  293loPI   C5A 4683  14.248  16.415   8.205  0.1527 -0.3078  0.0741
  293loPI   C6A 4684  14.303  16.120   7.829 -0.1879 -0.4750  0.0778
  293loPI   C1B 4685  14.813  16.690   9.325  0.0073 -0.0342  0.0816
  293loPI   C2B 4686  14.961  16.635   9.078 -0.0938 -0.2387  0.2368
  293loPI   C3B 4687  14.968  16.750   8.640 -0.0270 -0.1133 -0.2187
  293loPI   C4B 4688  14.971  16.901   8.192 -0.3905 -0.2548  0.1901
  294loPI    C1 4689   3.977   1.239  10.137 -0.0784 -0.0263  0.0591
  294loPI    C2 4690   3.759   1.569  10.200  0.0156  0.0306  0.0887
  294loPI    C3 4691   3.745   1.266  10.461  0.0379  0.0698  0.1356
  294loPI   PO4 4692   4.132   1.369   9.896 -0.0817 -0.0994  0.3144
  294loPI   GL1 4693   4.045   1.168   9.549  0.1023  0.1064 -0.0945
  294loPI   GL2 4694   4.199   0.935   9.478 -0.0938 -0.0705 -0.2646
  294loPI   C1A 4695   4.305   1.351   9.258 -0.1353 -0.3232  0.0925
  294loPI   C2A 4696   4.219   1.239   8.864  0.0074 -0.0551  0.1150
  294loPI   C3A 4697   4.431   1.391   8.486 -0.0223 -0.0851 -0.1009
  294loPI   C4A 4698   4.522   1.389   8.059  0.0009 -0.0902  0.0487
  294loPI   C5A 4699   4.466   1.571   7.733 -0.2670  0.3752 -0.1680
  294loPI   C6A 4700   4.274   1.629   7.354 -0.0500  0.0562  0.2426
  294loPI   C1B 4701   4.008   0.847   9.114 -0.0434  0.0916 -0.1324
  294loPI   C2B 4702   3.635   0.982   8.819 -0.1898 -0.1398 -0.0109
  294loPI   C3B 4703   3.594   1.003   8.425 -0.0494 -0.0970  0.1817
  294loPI   C4B 4704   3.610   1.047   7.982  0.0377 -0.0259 -0.0717
  295loPI    C1 4705  17.926   1.554  10.352  0.2749  0.1810 -0.0815
  295loPI    C2 4706  18.156   1.235  10.424 -0.1786 -0.2063 -0.2922
  295loPI    C3 4707  18.039   1.471  10.726  0.0400 -0.3218 -0.1147
  295loPI   PO4 4708  17.761   1.474  10.220 -0.1061 -0.0929  0.1435
  295loPI   GL1 4709  17.504   1.568   9.953 -0.0276  0.1592 -0.0464
  295loPI   GL2 4710  17.423   1.374   9.701 -0.0130  0.0275 -0.3636
  295loPI   C1A 4711  17.471   1.899   9.687  0.1564 -0.0134  0.4549
  295loPI   C2A 4712  17.532   1.777   9.218  0.1342 -0.0967  0.1984
  295loPI   C3A 4713  17.627   1.802   8.786 -0.0349 -0.0003 -0.0201
  295loPI   C4A 4714  17.603   1.802   8.381 -0.1802  0.1899  0.1820
  295loPI   C5A 4715  17.870   1.864   8.080  0.0193  0.0259 -0.1074
  295loPI   C6A 4716  18.018   1.775   7.764  0.2825 -0.1895 -0.0933
  295loPI   C1B 4717  17.302   1.309   9.183  0.5925 -0.1783 -0.3155
  295loPI   C2B 4718  17.409   1.297   8.830  0.2635  0.0758  0.1226
  295loPI   C3B 4719  17.559   1.336   8.426  0.5110 -0.1341  0.0658
  295loPI   C4B 4720  17.758   1.330   8.019 -0.3860 -0.0337  0.2416
  296loPI    C1 4721  11.392   2.959  10.405  0.1711  0.0944  0.1031
  296loPI    C2 4722  11.575   2.603  10.407  0.1694  0.0933  0.0718
  296loPI    C3 4723  11.673   2.880  10.679  0.1364  0.0514  0.1266
  296loPI   PO4 4724  11.348   3.079  10.226 -0.0924 -0.1527 -0.1976
  296loPI   GL1 4725  11.110   3.150   9.917 -0.1686 -0.0764 -0.0064
  296loPI   GL2 4726  11.106   3.426   9.779  0.0312  0.0898 -0.0830
  296loPI   C1A 4727  10.897   2.974   9.564 -0.1421  0.1810  0.1168
  296loPI   C2A 4728  11.009   2.956   9.163  0.1777 -0.0305  0.2129
  296loPI   C3A 4729  11.089   2.932   8.772 -0.0629  0.1736 -0.0358
  296loPI   C4A 4730  11.174   2.673   8.462  0.0284  0.0791  0.3240
  296loPI   C5A 4731  11.357   2.436   7.965  0.1785 -0.0475 -0.0498
  296loPI   C6A 4732  11.708   2.413   7.622  0.0332  0.1855  0.1525
  296loPI   C1B 4733  10.999   3.448   9.350  0.1775  0.1710  0.0210
  296loPI   C2B 4734  10.924   3.474   8.933  0.2837  0.1049 -0.0385
  296loPI   C3B 4735  11.005   3.534   8.472 -0.1609  0.1535 -0.0622
  296loPI   C4B 4736  10.889   3.456   8.072  0.1274  0.0135  0.1275
  297loPI    C1 4737  11.507   5.324  10.137  0.0489  0.1304 -0.3159
  297loPI    C2 4738  11.794   5.106  10.309 -0.2063  0.0412  0.0072
  297loPI    C3 4739  11.540   4.934  10.053 -0.0831  0.0803 -0.1423
  297loPI   PO4 4740  11.461   5.494  10.258  0.2022  0.2254 -0.1284
  297loPI   GL1 4741  11.416   5.925  10.054 -0.0674 -0.0002 -0.2248
  297loPI   GL2 4742  11.389   5.636   9.798  0.1692  0.0509  0.0393
  297loPI   C1A 4743  11.497   6.163   9.696  0.1399  0.0595 -0.0116
  297loPI   C2A 4744  11.502   6.389   9.323  0.0858  0.1094  0.1061
  297loPI   C3A 4745  11.570   6.283   8.898  0.0060  0.2470 -0.0477
  297loPI   C4A 4746  11.597   6.236   8.497 -0.2675  0.1200  0.3182
  297loPI   C5A 4747  11.602   6.208   8.070 -0.0167 -0.0143  0.3977
  297loPI   C6A 4748  11.585   5.941   7.728 -0.1933  0.1059  0.0251
  297loPI   C1B 4749  11.592   5.703   9.315  0.1279  0.1217 -0.6076
  297loPI   C2B 4750  11.655   5.739   8.858  0.2240  0.2935  0.7223
  297loPI   C3B 4751  11.780   5.716   8.488 -0.1164 -0.4778 -0.1756
  297loPI   C4B 4752  11.933   5.609   8.071  0.0535 -0.0714 -0.1032
  298loPI    C1 4753   2.532  11.914  10.293  0.1169  0.2021 -0.0085
  298loPI    C2 4754   2.634  11.842   9.913 -0.1142  0.2559 -0.0826
  298loPI    C3 4755   2.915  11.846  10.198 -0.0228 -0.4667 -0.1426
  298loPI   PO4 4756   2.416  12.172  10.247 -0.0342 -0.0149 -0.2910
  298loPI   GL1 4757   2.312  12.194   9.794 -0.4508  0.3071 -0.2214
  298loPI   GL2 4758   2.078  12.306   9.891 -0.1367  0.1739 -0.0175
  298loPI   C1A 4759   2.438  11.894   9.447  0.2223  0.1313 -0.1348
  298loPI   C2A 4760   2.209  11.811   9.120 -0.4923 -0.4103 -0.0768
  298loPI   C3A 4761   2.156  11.921   8.649 -0.0469 -0.0578 -0.2932
  298loPI   C4A 4762   2.320  11.951   8.246  0.0122 -0.3294 -0.0857
  298loPI   C5A 4763   2.367  12.110   7.803  0.0581  0.2799  0.0691
  298loPI   C6A 4764   2.676  12.182   7.457  0.1935  0.1512 -0.2057
  298loPI   C1B 4765   1.947  12.487   9.527  0.2700 -0.4828  0.1159
  298loPI   C2B 4766   1.929  12.686   9.061  0.1893 -0.2109  0.0962
  298loPI   C3B 4767   2.109  12.818   8.770  0.0170 -0.3442 -0.2334
  298loPI   C4B 4768   2.439  12.828   8.518 -0.0302  0.0819  0.2381
  299loPI    C1 4769  12.338   4.810  10.320  0.0231 -0.0878  0.2837
  299loPI    C2 4770  12.709   4.671  10.375  0.0910 -0.0615 -0.0802
  299loPI    C3 4771  12.415   4.421  10.267  0.0137 -0.0713  0.1457
  299loPI   PO4 4772  12.441   5.078  10.060  0.0788  0.0745 -0.1867
  299loPI   GL1 4773  12.538   5.264   9.591 -0.2765  0.2853 -0.3006
  299loPI   GL2 4774  12.409   5.539   9.644  0.0601  0.1087 -0.0714
  299loPI   C1A 4775  12.431   5.238   9.115 -0.0161  0.1465 -0.0559
  299loPI   C2A 4776  12.411   5.308   8.649 -0.1102 -0.2381 -0.1465
  299loPI   C3A 4777  12.399   5.377   8.142  0.3999 -0.0301  0.3033
  299loPI   C4A 4778  12.197   5.303   7.742 -0.2720 -0.2119  0.1557
  299loPI   C5A 4779  11.901   5.120   7.454 -0.2127  0.1235  0.0062
  299loPI   C6A 4780  11.468   5.152   7.339 -0.1017 -0.2605 -0.1351
  299loPI   C1B 4781  12.118   5.534   9.348  0.0487  0.0958 -0.2255
  299loPI   C2B 4782  12.187   5.675   8.928 -0.0387  0.0963  0.1199
  299loPI   C3B 4783  12.369   5.763   8.575  0.0873 -0.4295  0.1940
  299loPI   C4B 4784  12.559   5.936   8.201 -0.0560  0.3747 -0.0439
  300loPI    C1 4785   9.888  13.921  10.463 -0.2913 -0.0038 -0.0057
  300loPI    C2 4786   9.969  13.581  10.658  0.3041  0.1066 -0.0411
  300loPI    C3 4787  10.247  13.867  10.631 -0.1964  0.6161  0.0120
  300loPI   PO4 4788   9.774  13.823  10.249  0.1080  0.0772  0.2243
  300loPI   GL1 4789   9.508  13.715   9.937  0.1480 -0.1025 -0.1625
  300loPI   GL2 4790   9.830  13.585   9.829 -0.0300  0.0825  0.1500
  300loPI   C1A 4791   9.510  13.824   9.496 -0.2101 -0.2856  0.1294
  300loPI   C2A 4792   9.632  13.816   9.118  0.1989 -0.2431  0.3018
  300loPI   C3A 4793   9.763  13.830   8.708  0.0769 -0.1143  0.1106
  300loPI   C4A 4794   9.820  14.083   8.391 -0.0934 -0.0706  0.1731
  300loPI   C5A 4795   9.737  14.334   8.058 -0.3617  0.1610 -0.0333
  300loPI   C6A 4796   9.619  14.530   7.708 -0.0769 -0.1398 -0.2212
  300loPI   C1B 4797   9.772  13.441   9.397 -0.1682  0.1198  0.1593
  300loPI   C2B 4798   9.993  13.415   9.051 -0.0556 -0.0895 -0.0439
  300loPI   C3B 4799  10.246  13.552   8.722  0.3045  0.0810 -0.0967
  300loPI   C4B 4800  10.510  13.364   8.481  0.2239  0.1258  0.0788
  301loPI    C1 4801  13.950   2.022  10.512 -0.0120 -0.0045  0.1525
  301loPI    C2 4802  13.802   2.091  10.147  0.0690  0.2556  0.1666
  301loPI    C3 4803  13.575   1.917  10.426 -0.0014  0.0794  0.0006
  301loPI   PO4 4804  14.203   1.971  10.388 -0.1719 -0.1403  0.0607
  301loPI   GL1 4805  14.319   2.064   9.974 -0.1846  0.1482 -0.2270
  301loPI   GL2 4806  14.478   1.910   9.770 -0.2942 -0.1107  0.0337
  301loPI   C1A 4807  13.980   2.018   9.655  0.2789  0.1006 -0.0395
  301loPI   C2A 4808  13.878   1.730   9.234 -0.3280  0.4634 -0.0746
  301loPI   C3A 4809  13.547   1.589   8.998 -0.0480 -0.1220  0.0841
  301loPI   C4A 4810  13.324   1.315   8.682 -0.1973  0.3666  0.3824
  301loPI   C5A 4811  13.204   1.605   8.271  0.1851 -0.2041  0.2840
  301loPI   C6A 4812  13.247   1.994   8.123  0.1195 -0.3399  0.0169
  301loPI   C1B 4813  14.451   1.903   9.391  0.1050  0.1531 -0.0817
  301loPI   C2B 4814  14.237   1.991   9.074 -0.2855 -0.0838 -0.1594
  301loPI   C3B 4815  14.206   2.034   8.582  0.1929  0.1396 -0.0290
  301loPI   C4B 4816  14.192   2.287   8.177 -0.1487  0.0171  0.1040
  302loPI    C1 4817  17.046  15.741  10.028  0.1013  0.1651  0.1642
  302loPI    C2 4818  17.202  16.001  10.288  0.1191  0.1454  0.1734
  302loPI    C3 4819  16.919  15.744  10.407  0.1864  0.0804  0.1938
  302loPI   PO4 4820  17.089  15.841   9.803 -0.2541 -0.0336 -0.2246
  302loPI   GL1 4821  16.835  15.822   9.537 -0.0726 -0.0422 -0.0817
  302loPI   GL2 4822  16.479  15.700   9.660  0.0548 -0.1685 -0.2367
  302loPI   C1A 4823  16.809  15.754   9.087 -0.2310 -0.1888 -0.3018
  302loPI   C2A 4824  17.061  15.698   8.647 -0.0376 -0.2133 -0.2586
  302loPI   C3A 4825  17.178  15.832   8.123 -0.0268 -0.0599  0.2255
  302loPI   C4A 4826  16.992  16.103   7.851 -0.0013 -0.2832  0.0097
  302loPI   C5A 4827  16.863  16.541   7.696  0.0108  0.0892  0.1306
  302loPI   C6A 4828  17.005  16.940   7.652  0.0249 -0.0368  0.2024
  302loPI   C1B 4829  16.354  15.879   9.224  0.2638 -0.0478 -0.0052
  302loPI   C2B 4830  16.194  16.074   8.824  0.1493 -0.0428 -0.0911
  302loPI   C3B 4831  16.277  16.060   8.306  0.0522  0.0412  0.1237
  302loPI   C4B 4832  16.421  16.060   7.898  0.0317  0.1897  0.0543
  303loPI    C1 4833   1.925   8.858  10.886  0.1525  0.2670  0.0021
  303loPI    C2 4834   2.236   8.707  11.087  0.0508 -0.0721 -0.0906
  303loPI    C3 4835   1.979   8.952  11.271  0.2179 -0.0097  0.0620
  303loPI   PO4 4836   1.896   8.700  10.719  0.0084 -0.1592 -0.1393
  303loPI   GL1 4837   1.713   8.846  10.380 -0.1304 -0.1274  0.0301
  303loPI   GL2 4838   1.656   8.527  10.234  0.1780 -0.0455  0.0477
  303loPI   C1A 4839   1.533   9.146  10.026  0.3181 -0.1758  0.0594
  303loPI   C2A 4840   1.553   9.351   9.692 -0.1528  0.1560  0.1134
  303loPI   C3A 4841   1.566   9.344   9.311 -0.2283 -0.0686 -0.3731
  303loPI   C4A 4842   1.462   9.335   8.853  0.1356 -0.0320 -0.0204
  303loPI   C5A 4843   1.377   9.253   8.516 -0.2576  0.0470 -0.1166
  303loPI   C6A 4844   1.189   9.334   8.109 -0.0027 -0.0169 -0.0460
  303loPI   C1B 4845   1.232   8.685  10.127  0.0458  0.0044  0.2471
  303loPI   C2B 4846   1.167   8.830   9.676  0.0588  0.0331 -0.0468
  303loPI   C3B 4847   1.186   8.974   9.169 -0.0460 -0.0170 -0.2101
  303loPI   C4B 4848   1.219   8.751   8.837 -0.1364  0.3021 -0.4086
  304loPI    C1 4849   7.718  10.239  10.860 -0.0588  0.0368  0.2650
  304loPI    C2 4850   8.088  10.388  10.891 -0.0093 -0.0846  0.2613
  304loPI    C3 4851   7.814  10.473  11.170  0.0251 -0.0059  0.2715
  304loPI   PO4 4852   7.658  10.203  10.514 -0.1764  0.1524  0.0703
  304loPI   GL1 4853   7.623  10.407  10.141 -0.1819 -0.2059 -0.0060
  304loPI   GL2 4854   7.360  10.178  10.072 -0.0962  0.1899  0.0955
  304loPI   C1A 4855   7.997  10.633   9.997  0.0786 -0.1545 -0.0965
  304loPI   C2A 4856   8.004  10.681   9.534 -0.0334 -0.0917  0.1620
  304loPI   C3A 4857   7.972  10.614   9.070  0.1276 -0.1734  0.0161
  304loPI   C4A 4858   7.983  10.531   8.712 -0.1328 -0.1989  0.1974
  304loPI   C5A 4859   8.296  10.450   8.535  0.1644 -0.2259  0.0826
  304loPI   C6A 4860   8.336  10.457   8.119  0.0216 -0.2825 -0.0277
  304loPI   C1B 4861   7.346   9.945   9.704 -0.0109 -0.1092  0.0117
  304loPI   C2B 4862   7.601   9.703   9.533  0.0681  0.1679  0.4743
  304loPI   C3B 4863   7.553   9.241   9.173  0.1382  0.0686 -0.0161
  304loPI   C4B 4864   7.247   9.124   8.741 -0.4685 -0.2191  0.1261
  305loPI    C1 4865  13.350  17.379   9.692  0.1988  0.0239  0.0336
  305loPI    C2 4866  13.157  17.527  10.010 -0.2337 -0.2326 -0.0999
  305loPI    C3 4867  13.399  17.762   9.795 -0.2673  0.0540  0.1682
  305loPI   PO4 4868  13.311  17.055   9.757 -0.0839  0.1955  0.0582
  305loPI   GL1 4869  13.335  16.760   9.522  0.1269  0.1645 -0.0376
  305loPI   GL2 4870  13.212  16.600   9.332 -0.1287  0.0482 -0.0842
  305loPI   C1A 4871  13.527  16.951   9.166 -0.2738 -0.0810  0.1088
  305loPI   C2A 4872  13.654  16.993   8.879 -0.2729  0.0449 -0.1801
  305loPI   C3A 4873  13.638  17.112   8.376  0.3227 -0.1483  0.1206
  305loPI   C4A 4874  13.725  17.412   8.113  0.0098 -0.1511 -0.2257
  305loPI   C5A 4875  13.904  17.741   7.855  0.2591  0.1320  0.1668
  305loPI   C6A 4876  14.218  17.968   7.580  0.1551 -0.2216 -0.1399
  305loPI   C1B 4877  13.274  16.597   8.903 -0.0849  0.0610 -0.0759
  305loPI   C2B 4878  13.552  16.638   8.525  0.1009 -0.3650  0.0383
  305loPI   C3B 4879  13.913  16.740   8.141  0.3289 -0.1272  0.1089
  305loPI   C4B 4880  14.005  16.758   7.739 -0.0137  0.2397  0.1554
  306loPI    C1 4881  14.613   4.551  10.540  0.0628 -0.0103  0.2916
  306loPI    C2 4882  14.298   4.306  10.515  0.2722 -0.2812  0.2644
  306loPI    C3 4883  14.271   4.646  10.724 -0.1893 -0.0570 -0.1413
  306loPI   PO4 4884  14.678   4.631  10.307  0.2268  0.2545 -0.0852
  306loPI   GL1 4885  14.632   4.654   9.857  0.0074  0.2641  0.0386
  306loPI   GL2 4886  14.681   4.944   9.903 -0.0308 -0.4807  0.0926
  306loPI   C1A 4887  14.561   4.599   9.456  0.1864 -0.0496 -0.0630
  306loPI   C2A 4888  14.538   4.597   9.011 -0.2461  0.0966 -0.0695
  306loPI   C3A 4889  14.476   4.313   8.754  0.0200 -0.2817 -0.1632
  306loPI   C4A 4890  14.495   4.175   8.303 -0.1210 -0.1799  0.2090
  306loPI   C5A 4891  14.607   3.985   7.852  0.0101  0.2004  0.0242
  306loPI   C6A 4892  14.907   3.600   7.784  0.3239  0.0851  0.0638
  306loPI   C1B 4893  14.494   5.128   9.528 -0.1548 -0.1902  0.4907
  306loPI   C2B 4894  14.244   5.052   9.285  0.0092  0.0110 -0.3331
  306loPI   C3B 4895  13.989   5.281   9.038  0.1930 -0.0981 -0.3310
  306loPI   C4B 4896  13.751   5.622   8.951  0.0491 -0.1990 -0.4187
  307loPI    C1 4897  15.531  11.106  10.604 -0.0718 -0.0360  0.2666
  307loPI    C2 4898  15.203  10.902  10.500 -0.0593  0.0828 -0.0162
  307loPI    C3 4899  15.171  11.274  10.643 -0.0549  0.0436  0.0881
  307loPI   PO4 4900  15.700  11.079  10.419 -0.2135  0.2024 -0.1134
  307loPI   GL1 4901  15.628  10.994   9.962  0.0960 -0.1492  0.0079
  307loPI   GL2 4902  15.638  10.770   9.721  0.0958 -0.1280  0.2135
  307loPI   C1A 4903  15.379  11.261   9.700 -0.1688  0.1174 -0.0606
  307loPI   C2A 4904  15.339  11.245   9.221 -0.1008  0.1711  0.1210
  307loPI   C3A 4905  15.682  11.159   8.936 -0.0663 -0.1741  0.0936
  307loPI   C4A 4906  15.719  11.219   8.532 -0.0931  0.3465  0.3281
  307loPI   C5A 4907  15.584  11.008   8.094  0.1312 -0.0206 -0.1494
  307loPI   C6A 4908  15.392  10.680   7.887  0.0469  0.0134  0.1021
  307loPI   C1B 4909  15.723  10.872   9.350 -0.1075  0.2554 -0.0127
  307loPI   C2B 4910  15.835  10.716   9.031 -0.0381 -0.1276 -0.0713
  307loPI   C3B 4911  15.837  10.720   8.699 -0.4721 -0.0385  0.2865
  307loPI   C4B 4912  16.088  10.570   8.350 -0.1689  0.1315  0.0743
  308loPI    C1 4913   3.090  17.120  10.306  0.2235  0.0867  0.0716
  308loPI    C2 4914   2.862  16.927  10.572  0.1014  0.0334 -0.0702
  308loPI    C3 4915   2.955  17.312  10.630 -0.0521  0.0646 -0.0280
  308loPI   PO4 4916   3.070  17.038   9.980  0.2712  0.0640 -0.2287
  308loPI   GL1 4917   2.687  17.172   9.749 -0.2040 -0.1930  0.4426
  308loPI   GL2 4918   2.424  17.069   9.804 -0.0650  0.1279  0.0439
  308loPI   C1A 4919   2.739  17.211   9.277  0.0377 -0.2562  0.1136
  308loPI   C2A 4920   2.799  17.271   8.862  0.0125  0.3216  0.1094
  308loPI   C3A 4921   2.607  17.256   8.400  0.0194 -0.2596 -0.1271
  308loPI   C4A 4922   2.425  17.335   7.985  0.1719 -0.1394  0.3198
  308loPI   C5A 4923   1.960  17.487   7.806 -0.0479 -0.0363  0.1060
  308loPI   C6A 4924   1.470  17.792   7.810  0.1831  0.0481 -0.0849
  308loPI   C1B 4925   2.409  16.820   9.380 -0.1327  0.1034 -0.2025
  308loPI   C2B 4926   2.472  16.721   8.891  0.1165 -0.0215  0.2572
  308loPI   C3B 4927   2.795  16.821   8.502  0.0361 -0.0647 -0.0731
  308loPI   C4B 4928   3.159  16.654   8.195  0.1164 -0.1481  0.0412
  309loPI    C1 4929   6.613  13.553  10.380  0.0823  0.1668  0.0322
  309loPI    C2 4930   6.293  13.764  10.267  0.0350  0.0403 -0.0722
  309loPI    C3 4931   6.249  13.445  10.505  0.0845  0.0288 -0.0785
  309loPI   PO4 4932   6.764  13.602  10.118 -0.0896  0.2828 -0.2311
  309loPI   GL1 4933   6.798  13.509   9.783  0.0332  0.2110 -0.1762
  309loPI   GL2 4934   6.713  13.114   9.869 -0.3165 -0.0973  0.3661
  309loPI   C1A 4935   6.866  13.662   9.392 -0.1173 -0.0439  0.1694
  309loPI   C2A 4936   6.950  13.980   9.180 -0.1080  0.2521  0.1195
  309loPI   C3A 4937   7.106  13.993   8.770 -0.3469  0.0825  0.0008
  309loPI   C4A 4938   7.231  14.035   8.292 -0.2206 -0.0902  0.0817
  309loPI   C5A 4939   7.479  14.047   7.927 -0.0706  0.2137  0.1614
  309loPI   C6A 4940   7.742  13.735   7.654 -0.1040 -0.2303 -0.1700
  309loPI   C1B 4941   6.769  13.112   9.477 -0.1909 -0.0680 -0.1973
  309loPI   C2B 4942   6.709  13.084   9.101  0.0819 -0.1611 -0.0700
  309loPI   C3B 4943   6.555  13.213   8.730  0.0986 -0.1006 -0.3842
  309loPI   C4B 4944   6.151  13.389   8.702 -0.0166  0.0524  0.0335
  310loPI    C1 4945  15.867   3.754  10.172  0.1377 -0.0447  0.0367
  310loPI    C2 4946  15.699   3.489   9.924  0.0847  0.0935 -0.0768
  310loPI    C3 4947  15.847   3.368  10.276 -0.1370 -0.0506 -0.0311
  310loPI   PO4 4948  16.055   3.964   9.981 -0.1811 -0.1117  0.0593
  310loPI   GL1 4949  16.049   3.743   9.617 -0.0217 -0.4050 -0.2616
  310loPI   GL2 4950  16.053   3.394   9.508 -0.0867  0.0518 -0.1521
  310loPI   C1A 4951  15.846   3.986   9.303  0.2114 -0.1133 -0.2464
  310loPI   C2A 4952  15.655   4.345   9.205  0.0165  0.0631 -0.2600
  310loPI   C3A 4953  15.600   4.606   9.032 -0.1237 -0.2187 -0.0649
  310loPI   C4A 4954  15.635   4.700   8.582  0.0865 -0.0399  0.0075
  310loPI   C5A 4955  15.431   4.534   8.299  0.0765 -0.2115 -0.1634
  310loPI   C6A 4956  15.295   4.673   7.988  0.2610  0.0177 -0.1556
  310loPI   C1B 4957  16.205   3.606   9.131 -0.0308 -0.0722 -0.1518
  310loPI   C2B 4958  16.229   3.650   8.761 -0.2391 -0.0218 -0.0699
  310loPI   C3B 4959  16.185   3.818   8.310  0.2354 -0.1945  0.2301
  310loPI   C4B 4960  16.109   4.032   8.008  0.2738 -0.1956  0.0402
  311loPI    C1 4961   9.252   3.829  10.344 -0.1997  0.0274 -0.1911
  311loPI    C2 4962   8.987   3.627  10.564  0.0449  0.0705  0.1510
  311loPI    C3 4963   9.026   4.022  10.611  0.2099  0.0556  0.1444
  311loPI   PO4 4964   9.267   3.746  10.064  0.2262 -0.1235 -0.1049
  311loPI   GL1 4965   9.332   3.811   9.667  0.0359 -0.2851 -0.3103
  311loPI   GL2 4966   9.151   3.516   9.614  0.1512  0.5920  0.1950
  311loPI   C1A 4967   9.368   3.928   9.299  0.1727  0.0719 -0.1152
  311loPI   C2A 4968   9.340   3.933   8.868  0.0452 -0.0181  0.0089
  311loPI   C3A 4969   9.488   3.867   8.510 -0.0342 -0.3194 -0.3672
  311loPI   C4A 4970   9.596   3.742   8.051  0.0905 -0.1228  0.2059
  311loPI   C5A 4971   9.683   3.618   7.676  0.0317  0.0819 -0.0314
  311loPI   C6A 4972   9.704   3.615   7.226  0.1626 -0.2499 -0.3949
  311loPI   C1B 4973   9.315   3.451   9.249 -0.2773  0.1299 -0.3516
  311loPI   C2B 4974   9.166   3.478   8.848 -0.1252  0.0121 -0.1062
  311loPI   C3B 4975   9.118   3.364   8.451  0.5341 -0.1377 -0.2807
  311loPI   C4B 4976   9.167   3.472   8.089  0.0590  0.0259 -0.0575
  312loPI    C1 4977  18.361   7.906  10.551  0.0075  0.2519 -0.2011
  312loPI    C2 4978  17.983   7.935  10.422 -0.0456 -0.2082 -0.1674
  312loPI    C3 4979  18.058   7.876  10.810  0.0640 -0.0894 -0.1697
  312loPI   PO4 4980  18.516   8.056  10.455  0.0445 -0.1701 -0.1852
  312loPI   GL1 4981  18.760   7.967  10.118 -0.3242 -0.4841  0.0898
  312loPI   GL2 4982  18.964   7.719  10.167  0.0595  0.2254  0.2011
  312loPI   C1A 4983  18.744   7.726   9.689 -0.3983 -0.1762  0.3451
  312loPI   C2A 4984  18.814   7.645   9.306  0.0522  0.1887  0.1121
  312loPI   C3A 4985  18.734   7.771   8.893 -0.0356  0.1057 -0.0657
  312loPI   C4A 4986  18.963   7.888   8.469  0.0632  0.0698  0.0530
  312loPI   C5A 4987  19.073   8.288   8.313 -0.5606  0.1264  0.3695
  312loPI   C6A 4988  19.369   8.411   8.017  0.0749  0.0916 -0.1506
  312loPI   C1B 4989  19.048   7.383   9.859  0.0615 -0.1462 -0.2455
  312loPI   C2B 4990  19.250   7.443   9.473 -0.1931 -0.1300  0.1279
  312loPI   C3B 4991  19.608   7.524   9.255 -0.2107 -0.0531  0.2324
  312loPI   C4B 4992  20.002   7.566   8.826 -0.0206  0.0664  0.3579
  313loPI    C1 4993  17.741  13.711  10.076 -0.2420 -0.0022 -0.1781
  313loPI    C2 4994  17.635  13.837  10.441  0.2451 -0.0111 -0.0268
  313loPI    C3 4995  17.669  13.446  10.366 -0.2903 -0.0299 -0.2153
  313loPI   PO4 4996  17.970  13.864  10.004 -0.1627 -0.1685  0.1621
  313loPI   GL1 4997  18.132  13.779   9.657  0.0758 -0.1866 -0.3289
  313loPI   GL2 4998  18.123  13.986   9.473 -0.0415 -0.1050  0.1812
  313loPI   C1A 4999  17.897  13.614   9.224  0.1386 -0.0653  0.3165
  313loPI   C2A 5000  17.882  13.381   8.888  0.2232  0.4292 -0.5348
  313loPI   C3A 5001  17.604  13.190   8.567 -0.3690 -0.0498  0.5202
  313loPI   C4A 5002  17.545  13.271   8.193 -0.1731  0.0313  0.1600
  313loPI   C5A 5003  17.674  13.170   7.806  0.1955 -0.5501  0.0109
  313loPI   C6A 5004  17.766  12.956   7.466  0.0342  0.1242 -0.2950
  313loPI   C1B 5005  18.483  13.774   9.297  0.1246 -0.2762  0.0717
  313loPI   C2B 5006  18.659  13.736   8.897  0.0232  0.2256  0.0605
  313loPI   C3B 5007  18.616  13.435   8.587 -0.1833  0.1281  0.0105
  313loPI   C4B 5008  18.575  13.475   8.145 -0.1979  0.3037  0.0333
  314loPI    C1 5009   9.215  13.229  10.197 -0.1395  0.1402 -0.1416
  314loPI    C2 5010   9.013  12.910  10.331  0.0230  0.0188 -0.1823
  314loPI    C3 5011   8.842  13.272  10.336  0.0648  0.0416  0.4706
  314loPI   PO4 5012   9.432  13.097  10.140 -0.1283  0.2239 -0.1616
  314loPI   GL1 5013   9.608  13.092   9.738 -0.1869  0.0918  0.1716
  314loPI   GL2 5014   9.742  12.730   9.797 -0.0310 -0.1596  0.0842
  314loPI   C1A 5015   9.464  13.072   9.336 -0.1193 -0.2129  0.0388
  314loPI   C2A 5016   9.511  13.398   8.951 -0.0301  0.1226  0.0638
  314loPI   C3A 5017   9.806  13.348   8.563  0.2817  0.1505 -0.0023
  314loPI   C4A 5018   9.715  13.202   8.147  0.0986 -0.1252 -0.1178
  314loPI   C5A 5019   9.780  12.901   7.811  0.3602 -0.4564  0.0628
  314loPI   C6A 5020  10.028  12.599   7.609 -0.0799  0.1438  0.0204
  314loPI   C1B 5021   9.767  12.553   9.350 -0.0398  0.2645  0.1167
  314loPI   C2B 5022   9.678  12.766   8.868  0.1748 -0.1439 -0.0461
  314loPI   C3B 5023   9.856  12.885   8.436  0.2882  0.2131 -0.0322
  314loPI   C4B 5024  10.189  13.150   8.175 -0.0366  0.0924  0.0436
  315loPI    C1 5025   2.699  11.356  10.218 -0.2033  0.1243  0.1605
  315loPI    C2 5026   2.500  11.426  10.558  0.0593 -0.0195  0.3471
  315loPI    C3 5027   2.891  11.509  10.534  0.0768 -0.1561  0.1313
  315loPI   PO4 5028   2.474  11.395  10.001 -0.2449 -0.1877  0.1437
  315loPI   GL1 5029   2.191  11.463   9.650  0.2805  0.0259  0.0151
  315loPI   GL2 5030   2.005  11.146   9.739  0.2873 -0.0569 -0.0131
  315loPI   C1A 5031   1.891  11.482   9.341  0.0136  0.1267 -0.1422
  315loPI   C2A 5032   1.835  11.518   8.940 -0.0560  0.0885 -0.1406
  315loPI   C3A 5033   1.866  11.533   8.484  0.0461 -0.0127 -0.3101
  315loPI   C4A 5034   1.853  11.717   8.107 -0.0473 -0.0453  0.0342
  315loPI   C5A 5035   2.151  11.680   7.761 -0.1162  0.1637 -0.1425
  315loPI   C6A 5036   2.227  11.937   7.374  0.0569  0.1498 -0.0954
  315loPI   C1B 5037   2.031  10.993   9.317  0.1837  0.1255  0.1476
  315loPI   C2B 5038   1.967  11.025   8.861  0.0132  0.0720 -0.1299
  315loPI   C3B 5039   1.947  10.919   8.396  0.1383 -0.1255  0.1209
  315loPI   C4B 5040   1.989  10.827   8.034 -0.4062 -0.0698 -0.0835
  316loPI    C1 5041   0.828   1.927  10.139  0.0414  0.0560 -0.1958
  316loPI    C2 5042   0.870   1.585  10.341 -0.3076  0.0242 -0.1702
  316loPI    C3 5043   0.909   1.935  10.530 -0.3725 -0.0042 -0.1035
  316loPI   PO4 5044   0.862   1.825   9.895  0.1435  0.0567 -0.3104
  316loPI   GL1 5045   0.659   1.996   9.536  0.0507  0.1216  0.2097
  316loPI   GL2 5046   0.459   2.202   9.383 -0.0211 -0.1115 -0.1224
  316loPI   C1A 5047   0.989   2.186   9.250 -0.3014 -0.1048 -0.4776
  316loPI   C2A 5048   1.017   2.513   9.062 -0.1065  0.3883 -0.2685
  316loPI   C3A 5049   0.934   2.768   8.725 -0.0516  0.3265  0.3366
  316loPI   C4A 5050   0.731   3.065   8.449  0.1829  0.4554 -0.1077
  316loPI   C5A 5051   0.643   3.041   8.070 -0.0092  0.0309 -0.1138
  316loPI   C6A 5052   0.774   3.129   7.725 -0.1227 -0.1661 -0.3190
  316loPI   C1B 5053   0.495   2.501   9.003 -0.2136 -0.5975 -0.3115
  316loPI   C2B 5054   0.269   2.668   8.592  0.3003 -0.2774 -0.1634
  316loPI   C3B 5055   0.157   2.781   8.128 -0.3780  0.0116  0.2435
  316loPI   C4B 5056   0.026   2.577   7.660  0.1459  0.0469 -0.0451
  317loPI    C1 5057  15.393   8.527  10.561 -0.1062  0.3396  0.0992
  317loPI    C2 5058  15.282   8.149  10.629  0.2472  0.2537  0.2186
  317loPI    C3 5059  15.029   8.449  10.707 -0.0686  0.0400  0.0379
  317loPI   PO4 5060  15.504   8.454  10.349 -0.3310  0.4609 -0.1045
  317loPI   GL1 5061  15.453   8.506   9.892 -0.1745 -0.2605  0.2012
  317loPI   GL2 5062  15.428   8.209   9.713  0.0258 -0.1311 -0.3235
  317loPI   C1A 5063  15.827   8.446   9.618 -0.4805  0.1621 -0.0839
  317loPI   C2A 5064  15.882   8.363   9.225  0.2385 -0.0121 -0.1403
  317loPI   C3A 5065  15.983   8.408   8.838  0.1156 -0.2263 -0.3337
  317loPI   C4A 5066  16.246   8.517   8.504 -0.2985 -0.2456  0.1599
  317loPI   C5A 5067  16.332   8.394   8.135 -0.1663  0.1896  0.2148
  317loPI   C6A 5068  16.776   8.287   7.932 -0.0405  0.2738  0.0775
  317loPI   C1B 5069  15.381   8.482   9.314  0.1799  0.2921 -0.2322
  317loPI   C2B 5070  15.230   8.366   8.923 -0.0266 -0.0319 -0.2145
  317loPI   C3B 5071  15.529   8.531   8.595  0.1865  0.4377  0.0962
  317loPI   C4B 5072  15.727   8.498   8.321  0.0834 -0.0832  0.2326
  318loPI    C1 5073   6.196  11.897  10.502 -0.0232 -0.0382 -0.0566
  318loPI    C2 5074   6.254  11.501  10.494  0.1145 -0.0170 -0.1240
  318loPI    C3 5075   6.564  11.749  10.547  0.0105  0.0774  0.0524
  318loPI   PO4 5076   6.042  11.926  10.264 -0.2346 -0.3576 -0.1395
  318loPI   GL1 5077   6.069  11.967   9.830  0.1434  0.4312  0.2002
  318loPI   GL2 5078   5.698  12.106   9.799 -0.0403 -0.3668 -0.0621
  318loPI   C1A 5079   6.271  11.638   9.607  0.1030  0.0136 -0.0803
  318loPI   C2A 5080   6.389  11.592   9.208  0.0823  0.1846  0.1510
  318loPI   C3A 5081   6.586  11.615   8.896  0.0386 -0.2189 -0.2333
  318loPI   C4A 5082   6.757  11.402   8.532  0.2022 -0.0839 -0.0802
  318loPI   C5A 5083   6.997  11.644   8.410 -0.0597  0.1200  0.0011
  318loPI   C6A 5084   7.285  11.778   8.055  0.0359 -0.2840  0.3876
  318loPI   C1B 5085   5.544  12.219   9.354 -0.2053 -0.4854 -0.0455
  318loPI   C2B 5086   5.585  12.239   8.995  0.0218  0.1942  0.0547
  318loPI   C3B 5087   5.687  12.175   8.584  0.2250 -0.0575  0.2808
  318loPI   C4B 5088   5.898  12.322   8.315  0.0125  0.2509  0.1094
  319loPI    C1 5089  10.916  15.257  10.584  0.0393 -0.0528 -0.0786
  319loPI    C2 5090  11.173  15.179  10.880 -0.1222 -0.1966  0.0260
  319loPI    C3 5091  10.820  14.993  10.869 -0.2052 -0.0324 -0.1401
  319loPI   PO4 5092  11.024  15.199  10.370 -0.2768  0.0263  0.0044
  319loPI   GL1 5093  11.189  15.477  10.114 -0.0255 -0.1360 -0.0196
  319loPI   GL2 5094  11.119  15.762   9.977 -0.0996 -0.2517  0.1543
  319loPI   C1A 5095  11.556  15.637   9.732 -0.0217 -0.1027  0.2165
  319loPI   C2A 5096  11.589  15.755   9.359 -0.1653 -0.2763  0.1271
  319loPI   C3A 5097  11.696  15.762   8.951  0.1157 -0.0328 -0.2358
  319loPI   C4A 5098  12.031  15.684   8.750 -0.0925 -0.3385  0.0447
  319loPI   C5A 5099  12.369  15.499   8.628  0.3475  0.1001  0.2733
  319loPI   C6A 5100  12.606  15.586   8.316 -0.3757  0.1810 -0.1604
  319loPI   C1B 5101  11.063  15.604   9.533 -0.0463 -0.2385 -0.0923
  319loPI   C2B 5102  11.270  15.370   9.289 -0.0176  0.1061 -0.0621
  319loPI   C3B 5103  11.161  15.110   8.853  0.0778 -0.2255  0.0266
  319loPI   C4B 5104  11.255  15.062   8.449 -0.2479  0.0497 -0.0440
  320loPI    C1 5105  13.132   6.568  10.196  0.0015 -0.1004  0.1464
  320loPI    C2 5106  12.890   6.585  10.514 -0.0113 -0.0563  0.1345
  320loPI    C3 5107  13.242   6.397  10.540 -0.0652 -0.1576  0.1396
  320loPI   PO4 5108  13.151   6.873  10.054 -0.0884  0.1004  0.3234
  320loPI   GL1 5109  13.268   6.884   9.568  0.2224 -0.0983 -0.0216
  320loPI   GL2 5110  13.312   7.204   9.751  0.1863 -0.0421 -0.0263
  320loPI   C1A 5111  13.156   7.000   9.183 -0.0339  0.1476  0.1683
  320loPI   C2A 5112  13.254   7.037   8.672 -0.3220 -0.1700 -0.0992
  320loPI   C3A 5113  13.222   6.868   8.252  0.0040 -0.1982  0.0580
  320loPI   C4A 5114  13.543   6.825   7.913  0.1488 -0.0394 -0.1730
  320loPI   C5A 5115  13.666   6.716   7.572 -0.1431  0.1054  0.2548
  320loPI   C6A 5116  13.876   6.628   7.138  0.3434 -0.1844  0.0013
  320loPI   C1B 5117  13.473   7.307   9.371  0.0266  0.2791  0.3478
  320loPI   C2B 5118  13.435   7.443   9.026 -0.0399  0.2719 -0.0396
  320loPI   C3B 5119  13.619   7.533   8.609  0.0375  0.1046  0.3741
  320loPI   C4B 5120  13.588   7.687   8.130  0.3148 -0.3124  0.1346
  321loPI    C1 5121   7.112   1.860  10.270  0.1135 -0.1201  0.0807
  321loPI    C2 5122   7.234   2.034  10.609  0.1666  0.0272 -0.0130
  321loPI    C3 5123   6.843   2.013  10.523  0.1561  0.0355  0.0330
  321loPI   PO4 5124   7.273   1.882  10.064  0.0645  0.0671  0.1935
  321loPI   GL1 5125   7.636   1.998   9.901 -0.0179  0.1052  0.0322
  321loPI   GL2 5126   7.840   2.229   9.740 -0.1575 -0.3363  0.0876
  321loPI   C1A 5127   7.468   1.778   9.436  0.2028  0.0605 -0.0338
  321loPI   C2A 5128   7.501   1.883   8.985  0.0926  0.2035  0.0070
  321loPI   C3A 5129   7.413   1.971   8.654  0.0321  0.0689  0.0995
  321loPI   C4A 5130   7.250   1.952   8.200  0.0518 -0.2374 -0.2408
  321loPI   C5A 5131   7.161   2.142   7.855 -0.3621  0.1741  0.3517
  321loPI   C6A 5132   6.907   2.517   7.780 -0.0332 -0.0156 -0.2723
  321loPI   C1B 5133   7.925   2.272   9.297 -0.0566 -0.1074  0.1017
  321loPI   C2B 5134   7.873   2.210   8.864  0.2787  0.0796  0.1044
  321loPI   C3B 5135   7.865   2.154   8.449  0.1744  0.2537  0.0583
  321loPI   C4B 5136   7.711   2.272   8.070  0.0183  0.0030  0.2502
  322loPI    C1 5137   7.111   6.429  10.410 -0.0602  0.0892 -0.0096
  322loPI    C2 5138   6.766   6.543  10.575 -0.1551 -0.2838  0.0584
  322loPI    C3 5139   7.003   6.285  10.767  0.0770 -0.1685 -0.0699
  322loPI   PO4 5140   7.037   6.467  10.096 -0.1912 -0.1371  0.2045
  322loPI   GL1 5141   7.317   6.459   9.694  0.0013  0.1617  0.0271
  322loPI   GL2 5142   7.213   6.836   9.632  0.0818 -0.2412  0.1032
  322loPI   C1A 5143   7.523   6.607   9.346  0.2365 -0.2161  0.2105
  322loPI   C2A 5144   7.434   6.779   8.976  0.1196  0.2378 -0.2396
  322loPI   C3A 5145   7.099   6.621   8.673 -0.1193  0.0652 -0.3699
  322loPI   C4A 5146   6.873   6.424   8.348  0.2403 -0.0582  0.2111
  322loPI   C5A 5147   6.805   6.232   7.956  0.3753 -0.0867  0.1286
  322loPI   C6A 5148   7.095   6.198   7.564 -0.2371 -0.0893 -0.4014
  322loPI   C1B 5149   7.061   6.580   9.247  0.1671 -0.0638 -0.0480
  322loPI   C2B 5150   6.677   6.549   9.135  0.1254 -0.0703 -0.0734
  322loPI   C3B 5151   6.433   6.361   8.759  0.0917 -0.1235 -0.1314
  322loPI   C4B 5152   6.382   6.333   8.346  0.0757  0.3001  0.3723
  323loPI    C1 5153   3.438   9.818  10.790 -0.3868 -0.0833  0.0835
  323loPI    C2 5154   3.378  10.047  11.112 -0.0675  0.0459  0.0543
  323loPI    C3 5155   3.230   9.675  11.100  0.0404 -0.0121  0.4108
  323loPI   PO4 5156   3.503   9.951  10.610  0.3086 -0.0473 -0.2954
  323loPI   GL1 5157   3.526   9.683  10.262 -0.0118 -0.0473  0.0535
  323loPI   GL2 5158   3.830   9.757  10.185  0.1262 -0.0626  0.2330
  323loPI   C1A 5159   3.482   9.698   9.726 -0.0975  0.0733 -0.0970
  323loPI   C2A 5160   3.331   9.837   9.256 -0.1026  0.1721  0.1794
  323loPI   C3A 5161   3.238   9.878   8.842  0.3095 -0.2739  0.1974
  323loPI   C4A 5162   3.264   9.847   8.333 -0.0042  0.3574  0.2327
  323loPI   C5A 5163   3.186   9.466   8.096  0.2074  0.2508 -0.3955
  323loPI   C6A 5164   3.487   9.042   8.018 -0.1972 -0.0357  0.1436
  323loPI   C1B 5165   3.719  10.071   9.863 -0.1066 -0.2329 -0.0912
  323loPI   C2B 5166   3.747  10.246   9.370 -0.1170  0.0091 -0.0399
  323loPI   C3B 5167   3.685  10.107   8.972  0.1494 -0.0861 -0.4337
  323loPI   C4B 5168   3.660  10.249   8.545 -0.0494  0.1338 -0.0526
  324loPI    C1 5169  17.877   2.110  10.444 -0.0004 -0.0438 -0.0189
  324loPI    C2 5170  17.615   2.220  10.726 -0.0043  0.2567 -0.1373
  324loPI    C3 5171  17.932   1.997  10.824 -0.1394  0.1490  0.0599
  324loPI   PO4 5172  17.915   2.406  10.239  0.0886  0.3033 -0.2766
  324loPI   GL1 5173  17.653   2.551   9.971 -0.0734 -0.3142 -0.0770
  324loPI   GL2 5174  17.463   2.750   9.836 -0.3075  0.0710  0.1581
  324loPI   C1A 5175  17.778   2.454   9.602  0.0667  0.0779 -0.1467
  324loPI   C2A 5176  18.049   2.474   9.224  0.0951  0.1347 -0.0701
  324loPI   C3A 5177  18.147   2.443   8.827 -0.1316 -0.1804  0.2526
  324loPI   C4A 5178  18.305   2.405   8.420  0.0650  0.0068  0.1017
  324loPI   C5A 5179  18.235   2.259   7.937 -0.2101 -0.1829  0.1134
  324loPI   C6A 5180  18.219   2.116   7.459 -0.1825  0.1251 -0.0911
  324loPI   C1B 5181  17.432   2.775   9.377 -0.2744  0.0017  0.1539
  324loPI   C2B 5182  17.289   2.595   8.907  0.1460  0.2066  0.3214
  324loPI   C3B 5183  17.357   2.591   8.470  0.3691 -0.0652  0.1379
  324loPI   C4B 5184  17.367   2.682   8.061  0.0318 -0.0303  0.3448
  325loPI    C1 5185  10.981   2.191  10.364  0.0331  0.0658  0.0953
  325loPI    C2 5186  11.373   2.141  10.430  0.0938  0.3344 -0.0516
  325loPI    C3 5187  11.110   2.057  10.719  0.2578  0.1389  0.0431
  325loPI   PO4 5188  10.872   2.039  10.213  0.0934  0.0334  0.0066
  325loPI   GL1 5189  10.949   2.006   9.793 -0.1392  0.0531  0.0680
  325loPI   GL2 5190  11.251   2.202   9.889 -0.1432  0.2124  0.0281
  325loPI   C1A 5191  10.911   1.884   9.393  0.1509  0.0636  0.0940
  325loPI   C2A 5192  10.969   1.831   8.886 -0.2171 -0.2472  0.2421
  325loPI   C3A 5193  10.994   1.620   8.478 -0.0387  0.0688  0.1732
  325loPI   C4A 5194  10.636   1.777   8.190 -0.1858 -0.1563 -0.0167
  325loPI   C5A 5195  10.373   1.875   7.776  0.2786 -0.0388 -0.1217
  325loPI   C6A 5196   9.981   1.699   7.632 -0.0796  0.0635 -0.0841
  325loPI   C1B 5197  11.318   2.115   9.465  0.0139 -0.2108 -0.2368
  325loPI   C2B 5198  11.452   2.128   9.005  0.1028  0.0406 -0.3104
  325loPI   C3B 5199  11.595   2.316   8.574  0.2217  0.0812  0.5237
  325loPI   C4B 5200  11.589   2.035   8.139  0.1265 -0.1521 -0.1727
  326loPI    C1 5201   6.984  17.757  10.083  0.4169  0.3399  0.1744
  326loPI    C2 5202   6.771  17.827  10.415 -0.1284 -0.1412 -0.0571
  326loPI    C3 5203   6.722  18.059  10.093  0.0768  0.0568  0.0522
  326loPI   PO4 5204   6.992  17.414  10.155  0.3047 -0.0318  0.1489
  326loPI   GL1 5205   7.038  17.182   9.856  0.1904 -0.2410  0.0848
  326loPI   GL2 5206   7.105  17.470   9.656 -0.1669  0.0194 -0.3307
  326loPI   C1A 5207   7.109  16.919   9.464 -0.0530 -0.2516 -0.0977
  326loPI   C2A 5208   7.207  16.929   9.019  0.1385 -0.0558  0.0016
  326loPI   C3A 5209   7.291  16.944   8.552  0.0972 -0.1499  0.2155
  326loPI   C4A 5210   7.338  16.831   8.042 -0.1258 -0.2019 -0.0252
  326loPI   C5A 5211   7.083  16.592   7.769 -0.2089  0.0713  0.0523
  326loPI   C6A 5212   6.835  16.334   7.408 -0.0470 -0.0695 -0.0998
  326loPI   C1B 5213   7.265  17.662   9.244  0.2454  0.0468  0.1770
  326loPI   C2B 5214   7.375  17.690   8.820 -0.0915 -0.0915 -0.0039
  326loPI   C3B 5215   7.406  17.454   8.431 -0.2005 -0.0499 -0.1249
  326loPI   C4B 5216   7.497  17.320   8.013 -0.1374  0.1537  0.0887
  327loPI    C1 5217   7.796   8.396  10.364 -0.1493 -0.0890  0.0273
  327loPI    C2 5218   8.085   8.495  10.106 -0.0890 -0.1672  0.0647
  327loPI    C3 5219   8.056   8.686  10.456 -0.1229 -0.1146  0.0333
  327loPI   PO4 5220   7.730   8.175  10.318  0.1402  0.2263  0.3258
  327loPI   GL1 5221   7.598   7.970  10.026 -0.1122  0.0051 -0.2135
  327loPI   GL2 5222   7.870   8.173   9.812 -0.0091  0.1562  0.0061
  327loPI   C1A 5223   7.630   7.716   9.661  0.0013 -0.2913  0.1506
  327loPI   C2A 5224   7.786   7.531   9.263  0.0837 -0.1513 -0.0843
  327loPI   C3A 5225   8.055   7.374   8.932 -0.2435  0.2520  0.4056
  327loPI   C4A 5226   8.320   7.563   8.584 -0.2354  0.2546  0.0099
  327loPI   C5A 5227   8.437   7.773   8.230 -0.0806 -0.2442 -0.1023
  327loPI   C6A 5228   8.356   7.745   7.851 -0.1940 -0.1403 -0.0806
  327loPI   C1B 5229   7.890   8.259   9.324 -0.0342  0.1037  0.0736
  327loPI   C2B 5230   7.842   8.389   8.936  0.0975  0.0291  0.2331
  327loPI   C3B 5231   8.034   8.609   8.484  0.2461  0.0292  0.1696
  327loPI   C4B 5232   7.925   8.885   8.100 -0.2063 -0.1992  0.0421
  328loPI    C1 5233  17.647   4.084  10.405 -0.3360  0.1832  0.1338
  328loPI    C2 5234  17.706   4.193  10.785  0.0356  0.0608  0.1145
  328loPI    C3 5235  17.704   3.805  10.686  0.2276  0.1003 -0.0502
  328loPI   PO4 5236  17.675   4.397  10.281  0.3549 -0.1276  0.0683
  328loPI   GL1 5237  17.565   4.558   9.906 -0.1940 -0.0041 -0.0723
  328loPI   GL2 5238  17.944   4.415   9.801  0.1734 -0.0311  0.2324
  328loPI   C1A 5239  17.431   4.418   9.505 -0.1816  0.2660  0.4293
  328loPI   C2A 5240  17.484   4.235   9.103  0.0873  0.0045  0.2447
  328loPI   C3A 5241  17.269   4.083   8.667 -0.1145  0.0351  0.0430
  328loPI   C4A 5242  17.067   4.270   8.299 -0.2085  0.1432  0.1626
  328loPI   C5A 5243  16.942   4.241   7.883  0.0032  0.0379  0.3005
  328loPI   C6A 5244  16.905   4.033   7.345  0.0712 -0.2106 -0.1768
  328loPI   C1B 5245  18.021   4.489   9.368 -0.0890 -0.2076  0.0296
  328loPI   C2B 5246  17.887   4.638   9.024  0.0710  0.1360  0.0259
  328loPI   C3B 5247  17.715   4.541   8.605 -0.3055 -0.0074  0.0722
  328loPI   C4B 5248  17.576   4.434   8.207 -0.0268 -0.3014 -0.0885
  329loPI    C1 5249   4.250   2.257  10.336 -0.0838 -0.3564 -0.1360
  329loPI    C2 5250   3.942   2.064  10.502 -0.0703 -0.3447 -0.0974
  329loPI    C3 5251   4.317   1.946  10.578 -0.0550 -0.1914  0.0711
  329loPI   PO4 5252   4.224   2.318   9.986 -0.0154 -0.2061  0.1672
  329loPI   GL1 5253   3.888   2.004   9.745 -0.2601 -0.2507  0.4276
  329loPI   GL2 5254   3.583   2.083   9.518  0.2430  0.1414  0.2619
  329loPI   C1A 5255   4.002   1.814   9.412 -0.1241  0.1683 -0.1268
  329loPI   C2A 5256   4.060   1.812   9.002  0.0791  0.3644  0.1295
  329loPI   C3A 5257   4.181   1.810   8.597 -0.0335  0.1628 -0.1926
  329loPI   C4A 5258   4.140   1.712   8.188  0.0497  0.1357 -0.1884
  329loPI   C5A 5259   4.001   1.506   7.831  0.1642 -0.2121  0.2061
  329loPI   C6A 5260   4.206   1.149   7.670  0.3466 -0.1037  0.0495
  329loPI   C1B 5261   3.572   1.929   9.057 -0.0491  0.0496 -0.0598
  329loPI   C2B 5262   3.560   1.879   8.573 -0.0235  0.4113  0.0845
  329loPI   C3B 5263   3.561   1.911   8.147  0.0231 -0.2333  0.0063
  329loPI   C4B 5264   3.614   1.812   7.669 -0.0857 -0.1468  0.1473
  330loPI    C1 5265   3.591   6.416  10.331 -0.2118  0.1713 -0.1348
  330loPI    C2 5266   3.654   6.426  10.726 -0.1183 -0.1552 -0.1389
  330loPI    C3 5267   3.351   6.633  10.566 -0.0455  0.1256  0.0800
  330loPI   PO4 5268   3.866   6.454  10.225  0.2673  0.0707  0.1078
  330loPI   GL1 5269   4.013   6.635   9.867  0.0635 -0.0679  0.0378
  330loPI   GL2 5270   4.271   6.605   9.755 -0.0773 -0.1239 -0.1405
  330loPI   C1A 5271   3.926   6.418   9.443  0.0128 -0.0161 -0.0107
  330loPI   C2A 5272   3.689   6.504   9.068 -0.0819 -0.1512  0.1376
  330loPI   C3A 5273   3.537   6.431   8.693  0.2850  0.1840  0.0038
  330loPI   C4A 5274   3.654   6.456   8.265 -0.0850 -0.2303  0.0634
  330loPI   C5A 5275   3.527   6.711   7.903 -0.3174 -0.2138 -0.2190
  330loPI   C6A 5276   3.371   6.923   7.516  0.0166  0.2056 -0.0684
  330loPI   C1B 5277   4.231   6.828   9.472  0.1832 -0.0668 -0.1041
  330loPI   C2B 5278   4.206   6.656   9.059  0.1412 -0.0809 -0.0664
  330loPI   C3B 5279   4.081   6.536   8.736  0.5359  0.1811  0.2341
  330loPI   C4B 5280   4.135   6.347   8.378  0.1606  0.0384 -0.3351
  331loPI    C1 5281   7.149  11.959  10.387  0.2962 -0.0459 -0.1908
  331loPI    C2 5282   7.019  11.893  10.759  0.1294  0.0405 -0.2331
  331loPI    C3 5283   7.405  11.839  10.670  0.2357  0.3338  0.0314
  331loPI   PO4 5284   6.985  11.786  10.237  0.0272  0.0768 -0.0653
  331loPI   GL1 5285   6.943  11.478   9.921  0.2328 -0.0662  0.0445
  331loPI   GL2 5286   6.689  11.258   9.791  0.1351  0.4256  0.0646
  331loPI   C1A 5287   6.764  11.782   9.603 -0.1534  0.1659  0.0590
  331loPI   C2A 5288   6.878  11.904   9.233  0.1914  0.0625  0.0826
  331loPI   C3A 5289   7.023  11.928   8.842  0.0422  0.0446 -0.0149
  331loPI   C4A 5290   7.131  12.105   8.531 -0.1847 -0.0000  0.0278
  331loPI   C5A 5291   7.341  12.253   8.208 -0.0314  0.0859 -0.0808
  331loPI   C6A 5292   7.490  12.184   7.867  0.0320 -0.2175  0.0476
  331loPI   C1B 5293   6.709  11.278   9.333  0.0997  0.4903  0.0884
  331loPI   C2B 5294   6.617  11.055   8.911 -0.2549 -0.1097  0.0490
  331loPI   C3B 5295   6.646  10.917   8.526 -0.0068 -0.2934  0.0320
  331loPI   C4B 5296   6.937  10.853   8.209  0.0733  0.1421  0.1840
  332loPI    C1 5297   2.554   1.359  10.395 -0.0711  0.0538 -0.0987
  332loPI    C2 5298   2.761   1.029  10.485 -0.2451 -0.0340 -0.0143
  332loPI    C3 5299   2.822   1.367  10.692 -0.2897 -0.0993  0.1062
  332loPI   PO4 5300   2.515   1.348  10.124  0.2079  0.2303  0.2315
  332loPI   GL1 5301   2.663   1.269   9.707  0.1662  0.1651 -0.2576
  332loPI   GL2 5302   2.548   1.023   9.754  0.1845  0.0317  0.2043
  332loPI   C1A 5303   2.826   1.481   9.435  0.2181  0.0468  0.0912
  332loPI   C2A 5304   2.814   1.384   9.058 -0.1432  0.4518 -0.0963
  332loPI   C3A 5305   2.746   1.478   8.635  0.1180  0.0293 -0.0417
  332loPI   C4A 5306   2.857   1.393   8.178  0.0137  0.1315 -0.1700
  332loPI   C5A 5307   2.568   1.394   7.840 -0.1762  0.0225  0.0249
  332loPI   C6A 5308   2.150   1.584   7.678  0.0112  0.0170  0.0226
  332loPI   C1B 5309   2.348   0.809   9.443 -0.4706  0.0625  0.0565
  332loPI   C2B 5310   2.367   0.893   9.101 -0.0316 -0.0649  0.0438
  332loPI   C3B 5311   2.567   1.009   8.726  0.0843  0.2668  0.1414
  332loPI   C4B 5312   2.365   1.188   8.280 -0.0675  0.3828 -0.0119
  333loPI    C1 5313  15.969  18.263  10.358 -0.0043  0.3543 -0.0955
  333loPI    C2 5314  16.044  18.548  10.629 -0.1312  0.1083  0.2038
  333loPI    C3 5315  16.329  18.285  10.531  0.0592  0.4662 -0.2392
  333loPI   PO4 5316  15.761  18.447  10.222 -0.2632  0.4120  0.1915
  333loPI   GL1 5317  15.645  18.402   9.804  0.2297 -0.2615  0.0701
  333loPI   GL2 5318  15.397  18.175   9.653 -0.2788 -0.4000  0.0710
  333loPI   C1A 5319  15.502  18.716   9.430  0.1329  0.2299 -0.2369
  333loPI   C2A 5320  15.430  18.852   8.996  0.2519  0.0649 -0.1590
  333loPI   C3A 5321  15.300  18.885   8.616  0.1887  0.2752  0.0817
  333loPI   C4A 5322  15.390  19.011   8.234 -0.0930  0.0867 -0.2002
  333loPI   C5A 5323  15.675  19.093   7.838 -0.1367 -0.1391  0.0478
  333loPI   C6A 5324  15.869  19.019   7.434 -0.0582 -0.3945  0.2021
  333loPI   C1B 5325  15.410  18.313   9.161  0.1527  0.2659 -0.0353
  333loPI   C2B 5326  15.558  18.403   8.826  0.0130 -0.1667 -0.1999
  333loPI   C3B 5327  15.554  18.543   8.440 -0.0750 -0.1520  0.2779
  333loPI   C4B 5328  15.219  18.470   8.167 -0.1666 -0.2681 -0.0535
  334loPI    C1 5329   8.170   2.865  10.144 -0.4144 -0.1399 -0.0360
  334loPI    C2 5330   8.235   3.119  10.446 -0.3187 -0.1311 -0.0639
  334loPI    C3 5331   8.311   2.729  10.493 -0.0688 -0.0957 -0.1544
  334loPI   PO4 5332   8.351   3.027   9.952  0.3610 -0.1738 -0.0128
  334loPI   GL1 5333   8.604   2.954   9.474  0.2661  0.4228 -0.2293
  334loPI   GL2 5334   8.812   3.041   9.757  0.1381  0.0024 -0.1076
  334loPI   C1A 5335   8.745   2.766   9.083 -0.0088 -0.0887  0.1792
  334loPI   C2A 5336   8.804   2.660   8.601 -0.1111  0.1496  0.0214
  334loPI   C3A 5337   8.844   2.537   8.221  0.1644 -0.1558  0.0234
  334loPI   C4A 5338   8.798   2.702   7.748  0.1284 -0.0156  0.1122
  334loPI   C5A 5339   8.687   2.982   7.388  0.2199 -0.0019  0.1859
  334loPI   C6A 5340   8.533   3.413   7.264  0.0591 -0.2207  0.0668
  334loPI   C1B 5341   9.075   3.018   9.409 -0.0600 -0.0315 -0.3969
  334loPI   C2B 5342   9.157   2.981   8.998 -0.0103  0.0768  0.1607
  334loPI   C3B 5343   9.373   2.862   8.632  0.2719 -0.0010 -0.0789
  334loPI   C4B 5344   9.223   2.862   8.220 -0.0747  0.2201 -0.1023
  335loPI    C1 5345   1.537  11.670  10.392 -0.1456 -0.1813  0.0311
  335loPI    C2 5346   1.653  11.327  10.562 -0.1687 -0.1607  0.0888
  335loPI    C3 5347   1.868  11.659  10.616 -0.1682 -0.1572  0.0658
  335loPI   PO4 5348   1.317  11.723  10.433 -0.1087  0.2800  0.0118
  335loPI   GL1 5349   0.906  11.585  10.318 -0.1527 -0.1371  0.1926
  335loPI   GL2 5350   0.988  11.870  10.064  0.0760  0.1034  0.1014
  335loPI   C1A 5351   0.659  11.521   9.996 -0.0799  0.0317 -0.0221
  335loPI   C2A 5352   0.601  11.734   9.594 -0.2828 -0.0450 -0.0427
  335loPI   C3A 5353   0.534  11.530   9.252  0.1150 -0.3193  0.0603
  335loPI   C4A 5354   0.588  11.596   8.892  0.0972  0.0603  0.0132
  335loPI   C5A 5355   0.812  11.782   8.475 -0.2818 -0.1765 -0.1248
  335loPI   C6A 5356   0.841  11.776   7.986 -0.2801  0.3778  0.1179
  335loPI   C1B 5357   0.945  12.062   9.617  0.1322 -0.1342 -0.2760
  335loPI   C2B 5358   0.877  12.002   9.180 -0.1277 -0.1095  0.2658
  335loPI   C3B 5359   1.054  11.967   8.901 -0.1224  0.2583 -0.2708
  335loPI   C4B 5360   1.155  12.159   8.555  0.0250 -0.1996 -0.2092
  336loPI    C1 5361   6.538  13.066  10.325  0.1583 -0.4584  0.1188
  336loPI    C2 5362   6.625  13.164  10.703  0.0526  0.0470  0.0201
  336loPI    C3 5363   6.918  13.125  10.434  0.0994  0.0633  0.0686
  336loPI   PO4 5364   6.341  12.924  10.366 -0.2929 -0.2972 -0.1351
  336loPI   GL1 5365   6.053  12.915  10.032 -0.0552 -0.0332  0.0146
  336loPI   GL2 5366   6.206  12.792   9.790  0.0401  0.0954 -0.1329
  336loPI   C1A 5367   5.804  13.051   9.589  0.2238  0.0874  0.0239
  336loPI   C2A 5368   5.856  13.219   9.197 -0.1485  0.2859  0.0969
  336loPI   C3A 5369   5.695  13.197   8.834 -0.1435  0.0279  0.0259
  336loPI   C4A 5370   5.756  13.306   8.379  0.2271 -0.0841 -0.0628
  336loPI   C5A 5371   6.039  13.247   8.128 -0.0350  0.1398 -0.1116
  336loPI   C6A 5372   6.399  13.318   8.246  0.2285 -0.2645  0.0059
  336loPI   C1B 5373   6.270  12.932   9.328 -0.1032 -0.1495 -0.0423
  336loPI   C2B 5374   6.127  12.924   8.889 -0.0990  0.2132  0.0717
  336loPI   C3B 5375   6.296  12.896   8.430  0.3560 -0.0167 -0.2464
  336loPI   C4B 5376   6.131  12.691   8.066  0.1874  0.0278  0.1749
  337loPI    C1 5377   9.048   5.378   9.813 -0.0710 -0.0906 -0.0933
  337loPI    C2 5378   9.073   5.153  10.143 -0.1415  0.1052  0.0474
  337loPI    C3 5379   8.792   5.436  10.115 -0.0857  0.1428 -0.1488
  337loPI   PO4 5380   9.256   5.221   9.638  0.2252  0.1893 -0.3737
  337loPI   GL1 5381   9.556   4.969   9.489 -0.0879  0.3504  0.1087
  337loPI   GL2 5382   9.865   5.131   9.400  0.2539 -0.1360 -0.0958
  337loPI   C1A 5383   9.676   4.880   9.023  0.2820 -0.1124  0.1039
  337loPI   C2A 5384   9.667   4.819   8.691 -0.3015  0.2036 -0.1224
  337loPI   C3A 5385   9.678   4.803   8.289  0.0305 -0.0498  0.0588
  337loPI   C4A 5386   9.411   4.726   7.996 -0.3016 -0.3369  0.1074
  337loPI   C5A 5387   9.433   4.723   7.543 -0.1763  0.4679  0.0411
  337loPI   C6A 5388   9.179   4.935   7.219  0.2666 -0.0186  0.2071
  337loPI   C1B 5389   9.995   5.285   9.025  0.0781 -0.2460 -0.1046
  337loPI   C2B 5390  10.044   5.162   8.622 -0.4263 -0.0327  0.0256
  337loPI   C3B 5391  10.100   5.134   8.177 -0.0876 -0.0217 -0.0288
  337loPI   C4B 5392  10.222   4.943   7.869 -0.1847 -0.0915  0.3810
  338loPI    C1 5393  11.944   4.418  10.411  0.0961 -0.3037 -0.0854
  338loPI    C2 5394  11.653   4.315  10.666  0.0117 -0.1440 -0.1158
  338loPI    C3 5395  11.983   4.497  10.801 -0.0525 -0.0195 -0.1255
  338loPI   PO4 5396  11.863   4.546  10.196  0.1339  0.2360 -0.2686
  338loPI   GL1 5397  11.988   4.771   9.872  0.0414  0.0424 -0.0216
  338loPI   GL2 5398  12.244   4.712   9.819  0.0662 -0.1187 -0.0812
  338loPI   C1A 5399  11.690   4.733   9.581 -0.2196  0.3262 -0.1395
  338loPI   C2A 5400  11.428   4.694   9.201  0.0447  0.2640 -0.2882
  338loPI   C3A 5401  11.510   4.673   8.808 -0.0572  0.2700  0.0837
  338loPI   C4A 5402  11.662   4.733   8.361  0.1303 -0.0782  0.1039
  338loPI   C5A 5403  11.806   4.995   7.978  0.0368  0.2386  0.2853
  338loPI   C6A 5404  11.541   5.343   7.787 -0.2618 -0.4743  0.2007
  338loPI   C1B 5405  12.124   4.925   9.445 -0.2072 -0.2231 -0.2397
  338loPI   C2B 5406  11.869   4.969   9.169 -0.0802 -0.1857 -0.1097
  338loPI   C3B 5407  11.843   5.277   8.861  0.0585  0.2323  0.0160
  338loPI   C4B 5408  11.971   5.180   8.503 -0.2609  0.1018  0.0191
  339loPI    C1 5409   7.785  11.436  10.685 -0.3086  0.0187  0.0947
  339loPI    C2 5410   7.993  11.312  10.367 -0.2024 -0.4051  0.3224
  339loPI    C3 5411   8.162  11.560  10.630 -0.2869 -0.0617  0.0600
  339loPI   PO4 5412   7.627  11.265  10.687  0.1511 -0.2669  0.1074
  339loPI   GL1 5413   7.566  10.991  10.259  0.0298  0.0483  0.0087
  339loPI   GL2 5414   7.686  11.146  10.002 -0.0001  0.3609  0.0883
  339loPI   C1A 5415   7.507  10.726   9.814 -0.1199 -0.1128 -0.0759
  339loPI   C2A 5416   7.535  10.562   9.442 -0.1253 -0.0925  0.3175
  339loPI   C3A 5417   7.494  10.487   8.992 -0.2998 -0.0064  0.1519
  339loPI   C4A 5418   7.585  10.194   8.643  0.1179 -0.0864  0.0717
  339loPI   C5A 5419   7.507   9.924   8.367 -0.2747  0.0639 -0.1860
  339loPI   C6A 5420   7.411   9.485   8.244  0.0117  0.2481  0.0747
  339loPI   C1B 5421   7.678  11.131   9.561 -0.1365 -0.1540 -0.2907
  339loPI   C2B 5422   7.706  11.008   9.217  0.1608  0.3589  0.2085
  339loPI   C3B 5423   7.543  10.935   8.847  0.0500  0.0848  0.2037
  339loPI   C4B 5424   7.572  10.735   8.470  0.1959  0.1177 -0.1739
  340loPI    C1 5425   4.004   9.910  10.656  0.3690  0.0197  0.2967
  340loPI    C2 5426   3.897  10.249  10.472  0.1799 -0.1626  0.0632
  340loPI    C3 5427   3.874  10.222  10.870  0.2774  0.1253  0.0908
  340loPI   PO4 5428   4.229   9.819  10.544  0.0915  0.0085  0.0024
  340loPI   GL1 5429   4.386  10.043  10.312 -0.4161  0.2820 -0.0284
  340loPI   GL2 5430   4.213  10.188  10.033 -0.1943  0.1858 -0.3894
  340loPI   C1A 5431   4.580   9.822   9.969 -0.0761 -0.2069  0.2246
  340loPI   C2A 5432   4.663   9.434   9.706  0.3519 -0.0904  0.1553
  340loPI   C3A 5433   4.704   9.226   9.331 -0.0717  0.0369  0.0348
  340loPI   C4A 5434   4.858   9.159   8.869 -0.0656  0.0958 -0.1306
  340loPI   C5A 5435   4.932   9.178   8.457 -0.0321 -0.0608  0.1807
  340loPI   C6A 5436   4.932   9.164   7.919  0.2939  0.0306 -0.3290
  340loPI   C1B 5437   4.289  10.073   9.645  0.1033 -0.2191  0.1337
  340loPI   C2B 5438   4.198   9.986   9.067 -0.2628  0.0203  0.1114
  340loPI   C3B 5439   4.109  10.052   8.603 -0.0266  0.2076 -0.1091
  340loPI   C4B 5440   4.141   9.767   8.199  0.2778 -0.3088  0.0402
  341loPI    C1 5441  16.648  14.683   9.911 -0.0276  0.1940 -0.1397
  341loPI    C2 5442  16.653  14.989  10.168 -0.2684  0.2146 -0.1571
  341loPI    C3 5443  16.319  14.775  10.119 -0.0998 -0.0580 -0.1392
  341loPI   PO4 5444  16.668  14.755   9.701 -0.0286 -0.0026 -0.0948
  341loPI   GL1 5445  16.920  14.821   9.382 -0.2810 -0.0029 -0.2941
  341loPI   GL2 5446  17.190  15.004   9.406  0.0828  0.3160  0.1374
  341loPI   C1A 5447  16.928  14.676   8.958  0.1784 -0.1485 -0.0038
  341loPI   C2A 5448  17.033  14.538   8.563  0.1750 -0.0627 -0.3788
  341loPI   C3A 5449  17.201  14.861   8.342  0.1501 -0.1222 -0.3703
  341loPI   C4A 5450  17.207  15.034   7.958 -0.0050 -0.1346 -0.0315
  341loPI   C5A 5451  17.603  15.102   7.697  0.0575  0.3721  0.0489
  341loPI   C6A 5452  17.815  14.949   7.358  0.1659 -0.1969  0.2901
  341loPI   C1B 5453  17.268  15.045   9.087 -0.1463 -0.2036  0.1178
  341loPI   C2B 5454  17.417  14.764   8.798  0.0059 -0.3325 -0.0888
  341loPI   C3B 5455  17.651  14.417   8.852  0.2291 -0.2643 -0.0399
  341loPI   C4B 5456  17.787  14.203   8.634  0.0271 -0.0749 -0.2269
  342loPI    C1 5457   9.097  13.816  10.444  0.1425  0.0241  0.1268
  342loPI    C2 5458   9.396  13.599  10.597  0.0827 -0.1826 -0.0453
  342loPI    C3 5459   9.050  13.631  10.795  0.2023  0.0228  0.1341
  342loPI   PO4 5460   9.012  13.772  10.203 -0.2906 -0.4436 -0.1026
  342loPI   GL1 5461   8.873  13.506   9.905 -0.0918  0.1305  0.0385
  342loPI   GL2 5462   9.183  13.430   9.739  0.0227 -0.1684 -0.0357
  342loPI   C1A 5463   8.658  13.394   9.551  0.0399 -0.1624  0.0170
  342loPI   C2A 5464   8.694  13.390   9.138  0.1539 -0.0685  0.1516
  342loPI   C3A 5465   8.814  13.367   8.732 -0.5633 -0.0823  0.0463
  342loPI   C4A 5466   8.811  13.460   8.317 -0.3823 -0.0042 -0.4179
  342loPI   C5A 5467   8.881  13.246   7.869 -0.0278 -0.1334 -0.0364
  342loPI   C6A 5468   8.817  13.217   7.456 -0.3119  0.2169 -0.4836
  342loPI   C1B 5469   9.017  13.749   9.443  0.2485 -0.1416  0.0859
  342loPI   C2B 5470   9.116  13.692   9.008  0.1923 -0.1503 -0.0099
  342loPI   C3B 5471   9.301  13.590   8.544  0.1339 -0.1498 -0.0097
  342loPI   C4B 5472   9.237  13.295   8.192 -0.2985  0.3766 -0.2888
  343loPI    C1 5473  17.481  16.439  10.028 -0.1671 -0.1089 -0.0126
  343loPI    C2 5474  17.636  16.693  10.296 -0.1309 -0.0267 -0.1108
  343loPI    C3 5475  17.321  16.466  10.394 -0.0697 -0.0534  0.0263
  343loPI   PO4 5476  17.447  16.579   9.817 -0.0372 -0.1082 -0.1049
  343loPI   GL1 5477  17.495  16.600   9.439  0.0373 -0.0963  0.0239
  343loPI   GL2 5478  17.683  16.892   9.542 -0.0965  0.0042  0.1399
  343loPI   C1A 5479  17.642  16.560   9.010 -0.2486 -0.0347 -0.0014
  343loPI   C2A 5480  17.700  16.204   8.963 -0.0724 -0.2532  0.0742
  343loPI   C3A 5481  17.980  15.967   8.757 -0.0469  0.3081 -0.1426
  343loPI   C4A 5482  18.373  16.110   8.562 -0.0728  0.1357  0.0646
  343loPI   C5A 5483  18.654  15.988   8.356  0.4393  0.0436 -0.0783
  343loPI   C6A 5484  18.851  15.690   7.943  0.3212 -0.1443 -0.2024
  343loPI   C1B 5485  17.918  16.956   9.173  0.1374  0.1785 -0.0838
  343loPI   C2B 5486  17.984  17.027   8.736 -0.1320  0.4479 -0.3202
  343loPI   C3B 5487  18.023  17.087   8.346  0.2012  0.1714  0.3118
  343loPI   C4B 5488  18.049  17.099   7.846 -0.1306  0.1627  0.0292
  344loPI    C1 5489   3.944  11.234  10.024 -0.1218  0.0485  0.0739
  344loPI    C2 5490   4.239  10.966   9.998 -0.1729  0.0069 -0.0900
  344loPI    C3 5491   4.153  11.135  10.350 -0.0160 -0.0504 -0.0231
  344loPI   PO4 5492   3.707  11.126   9.922  0.0145 -0.0603  0.0163
  344loPI   GL1 5493   3.508  11.164   9.583 -0.1821  0.3137 -0.3910
  344loPI   GL2 5494   3.381  11.073   9.441  0.2132  0.3072 -0.1690
  344loPI   C1A 5495   3.772  11.312   9.249 -0.1773 -0.2735  0.2814
  344loPI   C2A 5496   3.763  11.336   8.770  0.0015  0.2373  0.2487
  344loPI   C3A 5497   3.631  11.275   8.456  0.1693  0.0757  0.1677
  344loPI   C4A 5498   3.505  11.239   8.120 -0.0658  0.0377 -0.0927
  344loPI   C5A 5499   3.473  11.002   7.813  0.2979  0.2756  0.3715
  344loPI   C6A 5500   3.574  10.667   7.629 -0.0372  0.0150  0.0564
  344loPI   C1B 5501   3.430  10.938   8.991 -0.0502 -0.0317 -0.0794
  344loPI   C2B 5502   3.723  10.797   8.736 -0.1293 -0.3509 -0.0533
  344loPI   C3B 5503   4.014  10.659   8.528  0.1344  0.0433  0.2880
  344loPI   C4B 5504   4.477  10.582   8.441 -0.2622 -0.1622 -0.0585
  345loPI    C1 5505  16.153   2.301  10.328 -0.1675  0.0065 -0.0106
  345loPI    C2 5506  16.304   2.060  10.608 -0.0485  0.0592 -0.0290
  345loPI    C3 5507  15.926   2.187  10.637 -0.0373  0.0629  0.1065
  345loPI   PO4 5508  16.373   2.334  10.146  0.1122  0.3632 -0.3338
  345loPI   GL1 5509  16.686   2.359   9.891 -0.1127 -0.0248 -0.0576
  345loPI   GL2 5510  16.488   2.519   9.709  0.3064 -0.1373 -0.1803
  345loPI   C1A 5511  17.168   2.355   9.720 -0.1855 -0.3837 -0.0396
  345loPI   C2A 5512  17.364   2.270   9.355 -0.1508  0.2315  0.1830
  345loPI   C3A 5513  17.609   2.270   8.970 -0.0433  0.0106 -0.2966
  345loPI   C4A 5514  17.711   2.264   8.561 -0.2672  0.2834  0.0172
  345loPI   C5A 5515  17.778   2.348   8.136  0.0983  0.0611 -0.0253
  345loPI   C6A 5516  17.748   2.680   7.752 -0.0885  0.3098  0.1039
  345loPI   C1B 5517  16.760   2.335   9.366 -0.1348  0.0391 -0.1434
  345loPI   C2B 5518  16.861   2.198   8.998  0.0383 -0.1238 -0.1216
  345loPI   C3B 5519  17.135   2.151   8.645  0.3405  0.2498  0.3528
  345loPI   C4B 5520  17.244   2.206   8.175 -0.2068  0.2140 -0.0354
  346loPI    C1 5521   3.769  11.960  10.586  0.2921  0.0405 -0.1272
  346loPI    C2 5522   3.708  11.698  10.882 -0.0584  0.1221 -0.1230
  346loPI    C3 5523   3.973  11.994  10.929 -0.2955  0.2878  0.2130
  346loPI   PO4 5524   3.867  11.771  10.322  0.1777 -0.2376 -0.1340
  346loPI   GL1 5525   4.051  11.732   9.983 -0.0276 -0.0466  0.1955
  346loPI   GL2 5526   3.750  11.886   9.832 -0.0872  0.0346  0.0360
  346loPI   C1A 5527   4.080  11.603   9.513 -0.0913 -0.1351  0.2762
  346loPI   C2A 5528   4.178  11.602   9.085  0.0109 -0.1397  0.3588
  346loPI   C3A 5529   4.299  11.549   8.623 -0.0644  0.0276  0.0673
  346loPI   C4A 5530   4.067  11.450   8.291  0.1146 -0.0170 -0.0469
  346loPI   C5A 5531   3.953  11.006   8.134 -0.2857 -0.0826 -0.1758
  346loPI   C6A 5532   4.053  10.780   7.886  0.0149  0.3010  0.0371
  346loPI   C1B 5533   3.720  11.947   9.399 -0.1003  0.0678 -0.0714
  346loPI   C2B 5534   3.733  11.905   9.010  0.1831 -0.1338  0.4016
  346loPI   C3B 5535   3.789  11.862   8.536  0.0723 -0.1771  0.0978
  346loPI   C4B 5536   3.579  11.729   8.094  0.2396 -0.1233  0.1737
  347loPI    C1 5537   4.350   3.283  10.090  0.1054 -0.1131 -0.0241
  347loPI    C2 5538   4.010   3.146  10.251 -0.0131  0.0733 -0.1110
  347loPI    C3 5539   4.269   3.352  10.476 -0.1535  0.2877 -0.1434
  347loPI   PO4 5540   4.290   3.229   9.830 -0.1958 -0.2823  0.0007
  347loPI   GL1 5541   4.027   3.066   9.583 -0.0872  0.1057 -0.0352
  347loPI   GL2 5542   3.913   3.315   9.411 -0.0721  0.0353 -0.2577
  347loPI   C1A 5543   4.224   2.960   9.168  0.1003  0.2296  0.0930
  347loPI   C2A 5544   4.276   2.741   8.818 -0.0534 -0.3367 -0.1979
  347loPI   C3A 5545   4.478   2.743   8.385 -0.0741 -0.1923 -0.0811
  347loPI   C4A 5546   4.505   2.625   8.007 -0.2330  0.0619 -0.2578
  347loPI   C5A 5547   4.335   2.428   7.725 -0.0428 -0.2598  0.2296
  347loPI   C6A 5548   4.128   1.944   7.708  0.2364 -0.1123  0.1937
  347loPI   C1B 5549   3.834   3.180   8.997  0.2812 -0.1120  0.0136
  347loPI   C2B 5550   3.848   3.030   8.598 -0.0603  0.0922  0.1706
  347loPI   C3B 5551   3.989   2.745   8.276 -0.1193 -0.4655  0.2326
  347loPI   C4B 5552   4.000   2.830   7.839  0.1624  0.2221  0.1040
  348loPI    C1 5553   1.462   4.224  10.361 -0.0415 -0.2108  0.1074
  348loPI    C2 5554   1.151   4.131  10.595 -0.0529 -0.0883  0.1414
  348loPI    C3 5555   1.525   4.089  10.732 -0.0562 -0.1561  0.1299
  348loPI   PO4 5556   1.361   4.296  10.159 -0.2097  0.0115  0.1944
  348loPI   GL1 5557   1.506   4.687   9.890 -0.0022 -0.0949 -0.0155
  348loPI   GL2 5558   1.866   4.474   9.935  0.2140 -0.1734  0.0859
  348loPI   C1A 5559   1.601   4.762   9.422 -0.1050 -0.2311 -0.0762
  348loPI   C2A 5560   1.515   4.775   9.042 -0.0892  0.0231 -0.1883
  348loPI   C3A 5561   1.283   4.841   8.587 -0.0012  0.0082 -0.0850
  348loPI   C4A 5562   1.436   4.912   8.179  0.2213  0.1280 -0.1782
  348loPI   C5A 5563   1.227   5.245   7.962  0.1757  0.2316 -0.2425
  348loPI   C6A 5564   0.786   5.168   7.856 -0.2219 -0.2864 -0.1283
  348loPI   C1B 5565   1.619   4.272   9.594  0.0293  0.0731 -0.0378
  348loPI   C2B 5566   1.646   4.300   9.181 -0.0581  0.1691  0.2397
  348loPI   C3B 5567   1.639   4.418   8.722 -0.0882  0.1528  0.1941
  348loPI   C4B 5568   1.730   4.493   8.297  0.1639  0.1323  0.0522
  349loPI    C1 5569   5.959   8.533  10.563 -0.0675 -0.0977  0.1113
  349loPI    C2 5570   5.598   8.363  10.590 -0.1373  0.0343  0.0210
  349loPI    C3 5571   5.633   8.761  10.598  0.0073  0.0220  0.0350
  349loPI   PO4 5572   6.031   8.424  10.276 -0.2074  0.0190  0.2115
  349loPI   GL1 5573   5.816   8.342   9.844  0.2219 -0.2505  0.1142
  349loPI   GL2 5574   5.543   8.489   9.600  0.4302 -0.1471 -0.3077
  349loPI   C1A 5575   5.991   8.574   9.442 -0.3423 -0.1917 -0.0319
  349loPI   C2A 5576   6.001   8.441   9.066 -0.1234 -0.0911  0.1750
  349loPI   C3A 5577   6.116   8.451   8.629 -0.3946 -0.0320  0.0181
  349loPI   C4A 5578   6.190   8.435   8.226  0.2250 -0.1587 -0.2310
  349loPI   C5A 5579   6.574   8.403   7.962  0.0741  0.2131  0.2051
  349loPI   C6A 5580   6.719   8.415   7.501 -0.1911  0.0995  0.1893
  349loPI   C1B 5581   5.563   8.293   9.253 -0.3009  0.0391  0.2112
  349loPI   C2B 5582   5.467   8.152   8.862 -0.1266  0.1961  0.2959
  349loPI   C3B 5583   5.727   8.198   8.464 -0.1994 -0.0555  0.4114
  349loPI   C4B 5584   5.837   8.149   8.007 -0.0601  0.2898  0.0800
  350loPI    C1 5585  11.647   8.095  10.451 -0.2920  0.0831 -0.2056
  350loPI    C2 5586  11.596   8.492  10.447  0.1253  0.1473  0.1219
  350loPI    C3 5587  11.964   8.338  10.484 -0.0372 -0.2724  0.0430
  350loPI   PO4 5588  11.479   8.060  10.214 -0.1988  0.1522  0.2833
  350loPI   GL1 5589  11.447   8.238   9.802 -0.4029  0.0060 -0.2165
  350loPI   GL2 5590  11.345   8.582   9.688  0.1364  0.3251  0.1152
  350loPI   C1A 5591  11.636   8.252   9.469  0.1230  0.0652 -0.1646
  350loPI   C2A 5592  11.468   8.042   9.061  0.1072  0.0427 -0.0063
  350loPI   C3A 5593  11.380   8.271   8.648 -0.3018 -0.2355  0.0427
  350loPI   C4A 5594  11.252   8.337   8.251  0.1080 -0.0026  0.0045
  350loPI   C5A 5595  10.941   8.483   7.953 -0.0381  0.3640 -0.3478
  350loPI   C6A 5596  10.573   8.465   7.734 -0.4292  0.0189  0.0433
  350loPI   C1B 5597  11.693   8.769   9.460 -0.1227 -0.0567  0.2146
  350loPI   C2B 5598  11.773   8.993   9.022  0.1490 -0.0049 -0.0420
  350loPI   C3B 5599  11.718   9.113   8.455 -0.0965  0.1402 -0.2158
  350loPI   C4B 5600  11.563   9.244   8.120 -0.4050  0.2639  0.2105
  351loPI    C1 5601  13.462  12.106  10.225  0.0170 -0.0711  0.1716
  351loPI    C2 5602  13.565  11.720  10.243  0.0668 -0.0594  0.1405
  351loPI    C3 5603  13.660  11.966  10.543  0.0614 -0.0650  0.1468
  351loPI   PO4 5604  13.176  12.106  10.155 -0.3242 -0.0628 -0.0242
  351loPI   GL1 5605  12.817  11.934  10.056  0.0297  0.0329 -0.1844
  351loPI   GL2 5606  12.552  11.965  10.031 -0.1580 -0.1738 -0.2137
  351loPI   C1A 5607  12.809  12.148   9.596 -0.0930 -0.2520 -0.0266
  351loPI   C2A 5608  12.790  12.202   9.205  0.1115  0.0572 -0.0276
  351loPI   C3A 5609  12.767  12.316   8.819 -0.1194  0.0867  0.1253
  351loPI   C4A 5610  12.761  12.281   8.366  0.1617 -0.7113  0.1321
  351loPI   C5A 5611  12.664  12.202   8.002  0.0404 -0.3536 -0.0697
  351loPI   C6A 5612  12.872  11.945   7.698  0.3221  0.1423 -0.1028
  351loPI   C1B 5613  12.289  11.882   9.679 -0.0973 -0.1525  0.0324
  351loPI   C2B 5614  12.402  11.864   9.257  0.1116  0.1337 -0.0488
  351loPI   C3B 5615  12.389  11.751   8.853 -0.2584  0.0706  0.1675
  351loPI   C4B 5616  12.540  11.859   8.490  0.4473 -0.3137 -0.2545
  352loPI    C1 5617   0.900  15.381  10.134 -0.0676  0.3362 -0.0682
  352loPI    C2 5618   0.866  15.505  10.513  0.0035  0.0572  0.0313
  352loPI    C3 5619   0.777  15.127  10.417  0.0344  0.1127 -0.2227
  352loPI   PO4 5620   1.129  15.530  10.012  0.0112  0.0856 -0.1508
  352loPI   GL1 5621   1.399  15.429   9.684  0.1463  0.0281  0.0237
  352loPI   GL2 5622   1.568  15.701   9.558  0.1782  0.1172 -0.2011
  352loPI   C1A 5623   1.449  15.242   9.365 -0.3376 -0.2156  0.1333
  352loPI   C2A 5624   1.266  15.086   9.047 -0.0302  0.0591  0.0497
  352loPI   C3A 5625   1.093  14.779   8.684 -0.4403  0.1139 -0.0198
  352loPI   C4A 5626   0.650  14.775   8.523 -0.2021 -0.1104 -0.1625
  352loPI   C5A 5627   0.371  14.578   8.443 -0.2165  0.4174 -0.4407
  352loPI   C6A 5628   0.103  14.260   8.148  0.1765 -0.2073 -0.2134
  352loPI   C1B 5629   1.625  15.583   9.049  0.0836  0.0346  0.1398
  352loPI   C2B 5630   1.710  15.617   8.589 -0.2753 -0.1548  0.1486
  352loPI   C3B 5631   1.460  15.767   8.270 -0.0527  0.1304 -0.0559
  352loPI   C4B 5632   1.521  15.917   7.985 -0.0523  0.0790 -0.1790
  353loPI    C1 5633   2.554  17.931  10.304  0.1112 -0.1756 -0.0103
  353loPI    C2 5634   2.852  17.808  10.540  0.0238 -0.4578 -0.0430
  353loPI    C3 5635   2.480  17.677  10.603 -0.0511 -0.3045 -0.1575
  353loPI   PO4 5636   2.708  17.972  10.058 -0.0961  0.0335 -0.1409
  353loPI   GL1 5637   2.704  17.822   9.690 -0.1445  0.3207  0.2713
  353loPI   GL2 5638   2.600  17.623   9.537 -0.2698  0.1224 -0.1250
  353loPI   C1A 5639   2.757  18.109   9.304  0.2112  0.1617 -0.2297
  353loPI   C2A 5640   2.758  18.131   8.855  0.1702  0.1422  0.4030
  353loPI   C3A 5641   2.615  18.142   8.399 -0.2719  0.0470 -0.2824
  353loPI   C4A 5642   2.476  18.232   8.043  0.0815  0.3779 -0.2743
  353loPI   C5A 5643   2.313  18.193   7.579 -0.1831  0.0006  0.1105
  353loPI   C6A 5644   2.094  18.539   7.334 -0.0772 -0.1560 -0.2525
  353loPI   C1B 5645   2.629  17.687   9.116 -0.4375  0.1848  0.0344
  353loPI   C2B 5646   2.463  17.645   8.710  0.2741 -0.0222 -0.1592
  353loPI   C3B 5647   2.314  17.688   8.320  0.0913 -0.0341  0.0520
  353loPI   C4B 5648   2.211  17.858   7.903 -0.1072 -0.1291 -0.1990
  354loPI    C1 5649   2.962  12.340  10.140 -0.3116 -0.3014  0.0811
  354loPI    C2 5650   3.185  12.525  10.415 -0.1451  0.0224 -0.2617
  354loPI    C3 5651   2.797  12.458  10.484 -0.1286  0.1907  0.0088
  354loPI   PO4 5652   3.009  12.431   9.955 -0.2784  0.0104  0.1072
  354loPI   GL1 5653   2.763  12.263   9.631  0.3021  0.2769  0.0296
  354loPI   GL2 5654   2.898  12.399   9.429 -0.0099 -0.0931  0.0116
  354loPI   C1A 5655   2.432  12.358   9.313 -0.0995 -0.0611  0.3049
  354loPI   C2A 5656   2.238  12.369   8.905  0.3047  0.1988 -0.4156
  354loPI   C3A 5657   2.076  12.377   8.476  0.2089 -0.0701  0.2152
  354loPI   C4A 5658   2.321  12.482   8.145 -0.0733  0.2043  0.2068
  354loPI   C5A 5659   2.687  12.444   7.892  0.1012 -0.3044 -0.3042
  354loPI   C6A 5660   3.076  12.387   7.661  0.1050 -0.0391 -0.0914
  354loPI   C1B 5661   3.167  12.675   9.147 -0.1869 -0.2695 -0.0622
  354loPI   C2B 5662   3.193  12.685   8.752 -0.0253  0.2000  0.1045
  354loPI   C3B 5663   3.312  12.586   8.370 -0.0564 -0.1812 -0.0832
  354loPI   C4B 5664   3.167  12.700   8.096  0.0637 -0.0581 -0.1563
  355loPI    C1 5665   1.187  14.277  10.403 -0.0724 -0.2828 -0.0703
  355loPI    C2 5666   1.195  13.879  10.361  0.1680 -0.3019  0.1334
  355loPI    C3 5667   1.364  14.050  10.681 -0.0431 -0.0432  0.1097
  355loPI   PO4 5668   1.299  14.368  10.238  0.0205  0.0327  0.1598
  355loPI   GL1 5669   1.544  14.212   9.951 -0.1166  0.0894  0.2326
  355loPI   GL2 5670   1.463  13.837   9.899  0.2746  0.1225  0.1227
  355loPI   C1A 5671   1.549  14.280   9.492 -0.1327  0.1718  0.1911
  355loPI   C2A 5672   1.414  14.323   9.070 -0.0252  0.1736 -0.2853
  355loPI   C3A 5673   1.228  14.294   8.648  0.2270 -0.1717  0.1083
  355loPI   C4A 5674   1.177  14.227   8.150 -0.0106 -0.2888 -0.0835
  355loPI   C5A 5675   1.413  14.068   7.885  0.0806  0.0329 -0.0265
  355loPI   C6A 5676   1.866  14.007   7.914  0.3409  0.1351 -0.2177
  355loPI   C1B 5677   1.430  13.775   9.529 -0.1439 -0.0868 -0.0991
  355loPI   C2B 5678   1.764  13.774   9.138  0.1805  0.1771 -0.2957
  355loPI   C3B 5679   1.945  13.758   8.774 -0.2741  0.1253  0.0943
  355loPI   C4B 5680   2.130  13.673   8.314 -0.3087  0.0651 -0.1739
  356loPI    C1 5681   1.947   1.112  10.041 -0.1211 -0.2813 -0.0111
  356loPI    C2 5682   1.679   1.394  10.134  0.0684 -0.1044  0.0052
  356loPI    C3 5683   1.636   1.023  10.276 -0.1337 -0.0624  0.0570
  356loPI   PO4 5684   2.096   1.254   9.817 -0.1660 -0.1670  0.2155
  356loPI   GL1 5685   1.956   1.377   9.384 -0.0776  0.0435  0.0274
  356loPI   GL2 5686   2.289   1.359   9.382  0.0325  0.2930  0.0805
  356loPI   C1A 5687   1.749   1.522   9.075 -0.4798 -0.1322  0.4170
  356loPI   C2A 5688   1.618   1.714   8.776  0.0131 -0.1824  0.2383
  356loPI   C3A 5689   1.542   1.668   8.321  0.0841 -0.2000  0.0722
  356loPI   C4A 5690   1.565   1.626   7.848  0.0893  0.1334 -0.0326
  356loPI   C5A 5691   1.653   1.439   7.567 -0.0930  0.2581  0.4662
  356loPI   C6A 5692   1.501   1.502   7.158  0.3700 -0.1606 -0.1513
  356loPI   C1B 5693   2.336   1.383   8.908  0.0443  0.1917  0.0028
  356loPI   C2B 5694   2.137   1.506   8.614  0.0259  0.1728 -0.3078
  356loPI   C3B 5695   2.426   1.746   8.259  0.1976  0.1217  0.0412
  356loPI   C4B 5696   2.491   1.942   7.880 -0.0706  0.1248 -0.1971
  357loPI    C1 5697   2.401  14.232  10.110  0.2786  0.0275 -0.1281
  357loPI    C2 5698   2.265  14.063  10.446  0.1108  0.1197 -0.1488
  357loPI    C3 5699   2.603  13.931  10.279  0.1673  0.0389  0.0273
  357loPI   PO4 5700   2.137  14.377  10.006 -0.1785  0.0787 -0.1002
  357loPI   GL1 5701   1.963  14.615   9.687 -0.1595  0.1003  0.1376
  357loPI   GL2 5702   2.081  14.846   9.525 -0.2014  0.1488  0.1125
  357loPI   C1A 5703   1.629  14.751   9.278 -0.2186  0.1927  0.0557
  357loPI   C2A 5704   1.612  14.749   8.960 -0.2190 -0.1184  0.3007
  357loPI   C3A 5705   1.672  15.134   8.725 -0.0786  0.0549  0.1486
  357loPI   C4A 5706   1.381  15.307   8.457  0.0746 -0.0190  0.0495
  357loPI   C5A 5707   1.232  15.276   7.992  0.0736  0.1542 -0.0178
  357loPI   C6A 5708   1.144  15.049   7.665 -0.0357  0.2139 -0.0521
  357loPI   C1B 5709   2.133  14.726   9.078 -0.0212 -0.2801  0.0605
  357loPI   C2B 5710   2.140  14.632   8.681  0.0447 -0.0469 -0.0321
  357loPI   C3B 5711   2.108  15.070   8.425 -0.2978  0.0135 -0.2298
  357loPI   C4B 5712   1.784  15.099   8.177  0.1330 -0.0002 -0.0231
  358loPI    C1 5713  10.524   4.918  10.178 -0.0842 -0.0208 -0.1161
  358loPI    C2 5714  10.389   5.126  10.492 -0.1599 -0.2071 -0.0238
  358loPI    C3 5715  10.264   4.751  10.432 -0.0077 -0.2346 -0.1763
  358loPI   PO4 5716  10.590   5.146   9.970 -0.1463  0.1537  0.1236
  358loPI   GL1 5717  10.589   5.085   9.619 -0.2136  0.2298 -0.1227
  358loPI   GL2 5718  10.307   4.891   9.618  0.0544 -0.2326  0.0240
  358loPI   C1A 5719  10.500   5.102   9.202 -0.0334  0.1134 -0.0865
  358loPI   C2A 5720  10.564   5.031   8.804  0.1231 -0.1585 -0.1320
  358loPI   C3A 5721  10.651   4.980   8.426  0.0076 -0.4207 -0.2404
  358loPI   C4A 5722  10.688   4.889   8.059 -0.1339  0.4973  0.0846
  358loPI   C5A 5723  10.914   4.695   7.693  0.2347 -0.1116 -0.0064
  358loPI   C6A 5724  11.364   4.761   7.667 -0.3684 -0.1341 -0.1986
  358loPI   C1B 5725  10.215   4.728   9.270  0.2196 -0.1404 -0.1707
  358loPI   C2B 5726  10.150   4.646   8.778 -0.0924  0.2724 -0.1628
  358loPI   C3B 5727  10.211   4.657   8.314 -0.3530 -0.1901 -0.3784
  358loPI   C4B 5728  10.417   4.489   7.968  0.0057  0.2693  0.1015
  359loPI    C1 5729  14.311  12.747   9.996  0.0341  0.0934  0.0740
  359loPI    C2 5730  14.197  13.045  10.237  0.1151  0.0417  0.1766
  359loPI    C3 5731  14.277  12.684  10.389  0.2509  0.0320  0.0840
  359loPI   PO4 5732  14.525  12.818   9.857  0.1042 -0.4177  0.1141
  359loPI   GL1 5733  14.547  12.994   9.466 -0.0540  0.1033  0.3882
  359loPI   GL2 5734  14.884  12.920   9.405 -0.1896  0.1134 -0.2738
  359loPI   C1A 5735  14.444  12.834   9.044  0.0443  0.1164  0.0690
  359loPI   C2A 5736  14.333  12.622   8.672 -0.0793 -0.2918 -0.0276
  359loPI   C3A 5737  14.301  12.497   8.315 -0.0272  0.0136 -0.1289
  359loPI   C4A 5738  14.442  12.628   7.952 -0.3070  0.1908 -0.2450
  359loPI   C5A 5739  14.355  12.582   7.493  0.1117 -0.2706  0.0512
  359loPI   C6A 5740  14.366  12.462   7.206 -0.3177 -0.0368 -0.0451
  359loPI   C1B 5741  14.889  12.957   8.955 -0.1435  0.2222 -0.3585
  359loPI   C2B 5742  14.567  13.083   8.648 -0.0262  0.1392 -0.0657
  359loPI   C3B 5743  14.522  13.026   8.248  0.0583  0.0850  0.0820
  359loPI   C4B 5744  14.481  13.050   7.744 -0.1742  0.2576  0.1972
  360loPI    C1 5745   7.244  18.185  10.288  0.3237  0.0730 -0.0259
  360loPI    C2 5746   7.280  18.513  10.514 -0.2220  0.1654 -0.0604
  360loPI    C3 5747   7.056  18.207  10.641 -0.1770  0.0393 -0.2820
  360loPI   PO4 5748   7.421  18.242  10.164 -0.0975  0.2607  0.1387
  360loPI   GL1 5749   7.773  18.269   9.805  0.4998 -0.1976 -0.0155
  360loPI   GL2 5750   7.845  18.037   9.648 -0.1009  0.0827  0.0210
  360loPI   C1A 5751   7.721  18.568   9.467 -0.1598  0.0499 -0.0857
  360loPI   C2A 5752   7.808  18.606   9.030 -0.1982 -0.0003 -0.0477
  360loPI   C3A 5753   7.842  18.506   8.602 -0.0846 -0.4541  0.0130
  360loPI   C4A 5754   7.894  18.433   8.164 -0.2254 -0.1061 -0.1030
  360loPI   C5A 5755   8.031  18.757   7.872 -0.1042 -0.1353 -0.0430
  360loPI   C6A 5756   7.758  19.193   7.795 -0.0206  0.1682 -0.0831
  360loPI   C1B 5757   8.015  18.147   9.264  0.1457 -0.1509  0.0477
  360loPI   C2B 5758   8.022  18.102   8.793 -0.1173 -0.1690  0.0476
  360loPI   C3B 5759   8.208  18.147   8.428 -0.0049  0.0002 -0.0481
  360loPI   C4B 5760   8.342  18.413   8.024 -0.0278  0.0271 -0.0745
  361loPI    C1 5761  13.241   9.491  10.494  0.0741  0.1708  0.0143
  361loPI    C2 5762  13.172   9.736  10.802  0.1412  0.2039  0.0032
  361loPI    C3 5763  13.547   9.669  10.680  0.1272  0.0520  0.0419
  361loPI   PO4 5764  13.021   9.605  10.193  0.0859  0.1068  0.0437
  361loPI   GL1 5765  13.110   9.830   9.847 -0.1939  0.0059 -0.0441
  361loPI   GL2 5766  12.916  10.147   9.825  0.0995 -0.0231  0.2222
  361loPI   C1A 5767  12.957   9.909   9.365 -0.3348  0.0875 -0.1271
  361loPI   C2A 5768  12.809   9.773   8.998 -0.0371  0.1648  0.3140
  361loPI   C3A 5769  12.794   9.542   8.762  0.0829  0.2116  0.0397
  361loPI   C4A 5770  12.867   9.522   8.328  0.0393 -0.1180  0.0951
  361loPI   C5A 5771  12.680   9.610   7.929 -0.1372 -0.2402  0.1026
  361loPI   C6A 5772  12.650   9.938   8.019 -0.0124  0.0048  0.4524
  361loPI   C1B 5773  13.105  10.347   9.641  0.2770 -0.0145 -0.1056
  361loPI   C2B 5774  13.240  10.349   9.262  0.0408 -0.0771  0.1163
  361loPI   C3B 5775  13.313  10.535   8.886 -0.2548 -0.0204  0.0899
  361loPI   C4B 5776  13.249  10.319   8.569  0.0239  0.0328 -0.0480
  362loPI    C1 5777   8.955  17.089  10.463  0.0682  0.1741 -0.0746
  362loPI    C2 5778   8.883  17.217  10.835 -0.0030  0.0421 -0.0422
  362loPI    C3 5779   9.024  16.848  10.774 -0.1294  0.0114 -0.1544
  362loPI   PO4 5780   9.106  17.261  10.300  0.1399 -0.3501 -0.1087
  362loPI   GL1 5781   8.946  17.201   9.803 -0.3400 -0.1602 -0.2129
  362loPI   GL2 5782   9.023  16.953   9.919  0.0962  0.2510 -0.0308
  362loPI   C1A 5783   9.019  17.167   9.410  0.3850  0.1351 -0.3454
  362loPI   C2A 5784   9.094  17.173   8.957  0.1343 -0.0602  0.1051
  362loPI   C3A 5785   9.409  17.358   8.519  0.0835  0.4184  0.0390
  362loPI   C4A 5786   9.582  17.280   8.159 -0.1559  0.0485  0.0484
  362loPI   C5A 5787   9.683  17.199   7.672 -0.1429 -0.3090 -0.1699
  362loPI   C6A 5788   9.711  17.079   7.213 -0.0807 -0.0549  0.1726
  362loPI   C1B 5789   9.216  16.771   9.611  0.1375  0.1758  0.2419
  362loPI   C2B 5790   9.114  16.737   9.215 -0.3392 -0.3329  0.0334
  362loPI   C3B 5791   9.056  16.685   8.755 -0.1434 -0.3142  0.0697
  362loPI   C4B 5792   9.068  16.989   8.383  0.1364 -0.0382  0.0368
  363loPI    C1 5793   9.752   9.364  10.303 -0.1056 -0.2162  0.0414
  363loPI    C2 5794   9.938   9.564  10.594  0.0694 -0.0126 -0.2058
  363loPI    C3 5795   9.559   9.652  10.502  0.1280  0.1699 -0.2768
  363loPI   PO4 5796   9.875   9.308  10.169  0.0685 -0.4384 -0.1517
  363loPI   GL1 5797   9.843   9.324   9.694  0.1066 -0.0734 -0.3667
  363loPI   GL2 5798   9.715   9.024   9.688  0.2511 -0.1769  0.0053
  363loPI   C1A 5799   9.959   9.760   9.717  0.0368  0.1748 -0.0636
  363loPI   C2A 5800  10.393   9.878   9.459 -0.0465 -0.1145  0.1547
  363loPI   C3A 5801  10.404   9.781   8.969 -0.4023  0.1613 -0.0107
  363loPI   C4A 5802  10.123   9.875   8.622  0.2133  0.2431 -0.2489
  363loPI   C5A 5803   9.962   9.670   8.264  0.0079 -0.1546  0.5131
  363loPI   C6A 5804   9.740   9.483   7.944  0.1054  0.0021  0.0104
  363loPI   C1B 5805   9.472   8.990   9.281 -0.1737 -0.0513  0.2160
  363loPI   C2B 5806   9.377   9.267   9.044  0.0444  0.1110  0.2421
  363loPI   C3B 5807   9.646   9.467   8.748  0.0236 -0.0671 -0.0518
  363loPI   C4B 5808  10.072   9.389   8.626 -0.2089 -0.4352 -0.2269
  364loPI    C1 5809   8.901  16.303  10.507 -0.0678  0.1140 -0.0356
  364loPI    C2 5810   8.689  15.964  10.516  0.0898  0.0177  0.1251
  364loPI    C3 5811   8.539  16.290  10.339  0.0870 -0.2360 -0.3582
  364loPI   PO4 5812   9.118  16.208  10.382  0.2712 -0.0755 -0.0505
  364loPI   GL1 5813   9.197  16.377   9.959 -0.0803  0.2219 -0.1944
  364loPI   GL2 5814   9.501  16.400   9.950 -0.0873 -0.2423 -0.0798
  364loPI   C1A 5815   9.339  16.214   9.555 -0.1701 -0.0339  0.0472
  364loPI   C2A 5816   9.272  16.317   9.135  0.1754  0.3644  0.0447
  364loPI   C3A 5817   9.385  16.322   8.826  0.0258  0.0677 -0.1956
  364loPI   C4A 5818   9.420  16.363   8.441  0.0878  0.1905  0.1394
  364loPI   C5A 5819   9.043  16.336   8.174 -0.0452 -0.3839 -0.2177
  364loPI   C6A 5820   8.924  16.210   7.846 -0.1064  0.0632 -0.0678
  364loPI   C1B 5821   9.685  16.483   9.584 -0.1470 -0.0237  0.1458
  364loPI   C2B 5822   9.823  16.389   9.204 -0.0244  0.1394  0.2960
  364loPI   C3B 5823   9.890  16.469   8.710 -0.1223 -0.1133  0.0037
  364loPI   C4B 5824   9.940  16.341   8.337  0.5413 -0.0615 -0.0225
  365loPI    C1 5825  18.447   2.070  10.506  0.4755  0.0309 -0.0384
  365loPI    C2 5826  18.446   1.674  10.564  0.0410  0.0042 -0.1917
  365loPI    C3 5827  18.413   1.922  10.876  0.2361 -0.0792 -0.1028
  365loPI   PO4 5828  18.345   2.102  10.273 -0.1350  0.1933  0.1055
  365loPI   GL1 5829  18.228   2.124   9.849 -0.2396  0.3783 -0.2067
  365loPI   GL2 5830  17.931   1.913   9.938 -0.0741 -0.0953  0.1320
  365loPI   C1A 5831  18.404   2.260   9.460  0.2960 -0.1323 -0.0701
  365loPI   C2A 5832  18.538   2.140   9.007 -0.0233 -0.5633  0.1315
  365loPI   C3A 5833  18.740   2.215   8.577 -0.1244 -0.2614  0.3794
  365loPI   C4A 5834  18.675   2.218   8.139 -0.0554 -0.1201  0.2063
  365loPI   C5A 5835  18.723   2.082   7.734  0.3177  0.2200  0.0691
  365loPI   C6A 5836  18.520   1.704   7.546 -0.4093 -0.1713  0.1455
  365loPI   C1B 5837  17.944   1.884   9.505  0.2890 -0.0828 -0.1196
  365loPI   C2B 5838  18.004   1.967   9.204 -0.1135 -0.0917  0.0934
  365loPI   C3B 5839  18.106   1.937   8.850  0.0912 -0.3677 -0.0659
  365loPI   C4B 5840  18.223   1.887   8.471  0.0378 -0.2037 -0.1228
  366loPI    C1 5841  11.353  11.217   9.986 -0.0807  0.1527  0.0545
  366loPI    C2 5842  11.558  11.272  10.325  0.0826 -0.0458 -0.0097
  366loPI    C3 5843  11.682  11.000  10.059 -0.2359 -0.1316 -0.0741
  366loPI   PO4 5844  11.092  11.221  10.117  0.1483  0.0651  0.0366
  366loPI   GL1 5845  10.684  11.020   9.942 -0.1691  0.0953  0.2004
  366loPI   GL2 5846  10.287  10.994   9.921 -0.0112 -0.0248 -0.0396
  366loPI   C1A 5847  10.805  10.815   9.553  0.0011 -0.0298 -0.1933
  366loPI   C2A 5848  10.932  10.707   9.159  0.1126  0.1786  0.0639
  366loPI   C3A 5849  10.899  10.670   8.777 -0.2618 -0.2361 -0.0739
  366loPI   C4A 5850  10.732  10.507   8.408  0.2305 -0.0514  0.1034
  366loPI   C5A 5851  10.899  10.412   7.936  0.1394 -0.3226 -0.2285
  366loPI   C6A 5852  11.038  10.188   7.592  0.1056 -0.0889  0.1534
  366loPI   C1B 5853  10.323  10.676   9.711  0.2297  0.0027 -0.0008
  366loPI   C2B 5854  10.426  10.701   9.280 -0.1576 -0.0001  0.2563
  366loPI   C3B 5855  10.427  10.640   8.782 -0.3142  0.0479 -0.1041
  366loPI   C4B 5856  10.200  10.610   8.388 -0.4196 -0.1916 -0.1231
  367loPI    C1 5857   0.571   2.289  10.368 -0.0660 -0.0353 -0.0662
  367loPI    C2 5858   0.787   2.443  10.068 -0.0082 -0.2970 -0.1622
  367loPI    C3 5859   0.865   2.549  10.446 -0.0192 -0.0375 -0.2305
  367loPI   PO4 5860   0.360   2.329  10.296 -0.2549 -0.3355 -0.1053
  367loPI   GL1 5861   0.336   2.253   9.858 -0.0188  0.1491 -0.0556
  367loPI   GL2 5862   0.348   2.572   9.857 -0.0024  0.1248 -0.2580
  367loPI   C1A 5863   0.134   1.874   9.640  0.5331  0.0099 -0.0407
  367loPI   C2A 5864   0.009   1.694   9.281 -0.2772  0.0484  0.0903
  367loPI   C3A 5865   0.079   1.675   8.883 -0.0310  0.2159 -0.0554
  367loPI   C4A 5866   0.248   1.668   8.511 -0.1271 -0.2138 -0.2782
  367loPI   C5A 5867   0.589   1.868   8.333  0.1475  0.0807 -0.3096
  367loPI   C6A 5868   0.710   2.153   7.959 -0.0765  0.1978 -0.1370
  367loPI   C1B 5869   0.220   2.689   9.381 -0.2881 -0.1501 -0.1977
  367loPI   C2B 5870  -0.023   2.799   9.034  0.1938  0.0927 -0.0663
  367loPI   C3B 5871  -0.200   2.909   8.637 -0.0433  0.1840 -0.0064
  367loPI   C4B 5872  -0.202   3.138   8.262  0.1619  0.1404 -0.1004
  368loPI    C1 5873  15.675   7.823  10.285 -0.0553  0.0178  0.0499
  368loPI    C2 5874  15.759   8.040  10.610 -0.2199  0.0611  0.0647
  368loPI    C3 5875  15.791   7.641  10.621 -0.2916  0.0575  0.1554
  368loPI   PO4 5876  15.569   7.977  10.122  0.1505  0.2427  0.2686
  368loPI   GL1 5877  15.102   7.812   9.882  0.3939 -0.0478 -0.0103
  368loPI   GL2 5878  14.862   7.933   9.735  0.1395  0.0625 -0.4087
  368loPI   C1A 5879  15.275   7.928   9.349 -0.0120 -0.2162  0.3224
  368loPI   C2A 5880  15.501   7.874   8.976  0.0628  0.2551 -0.0431
  368loPI   C3A 5881  15.512   8.053   8.565  0.3218 -0.1536 -0.0240
  368loPI   C4A 5882  15.544   8.030   8.178 -0.0982  0.1425 -0.0310
  368loPI   C5A 5883  15.293   8.164   7.778 -0.0968 -0.2582 -0.0697
  368loPI   C6A 5884  15.463   8.193   7.358  0.1883 -0.1746 -0.1527
  368loPI   C1B 5885  14.782   8.156   9.335 -0.0644 -0.5021  0.4664
  368loPI   C2B 5886  14.684   8.299   8.938  0.2724 -0.1836 -0.0472
  368loPI   C3B 5887  14.848   8.357   8.487  0.0250 -0.1197 -0.0315
  368loPI   C4B 5888  15.178   8.383   8.253  0.0894  0.2819  0.0057
  369loPI    C1 5889  12.393  10.217  10.517 -0.2139  0.2567 -0.0257
  369loPI    C2 5890  11.997  10.197  10.573 -0.2309  0.1522 -0.1781
  369loPI    C3 5891  12.245  10.160  10.885 -0.3284 -0.2496 -0.1423
  369loPI   PO4 5892  12.532  10.347  10.273  0.1933 -0.0744  0.3560
  369loPI   GL1 5893  12.481  10.437   9.920  0.2826  0.0849  0.2481
  369loPI   GL2 5894  12.733  10.688   9.866  0.0125  0.0435 -0.1813
  369loPI   C1A 5895  12.457  10.700   9.451 -0.0612 -0.0281  0.2036
  369loPI   C2A 5896  12.480  10.834   9.016  0.2814 -0.0374  0.1247
  369loPI   C3A 5897  12.530  10.912   8.626  0.0968  0.1564 -0.1357
  369loPI   C4A 5898  12.628  10.874   8.177 -0.1773 -0.2250 -0.0226
  369loPI   C5A 5899  12.213  10.718   7.959  0.3838 -0.3325 -0.1418
  369loPI   C6A 5900  11.856  10.684   7.754 -0.1104  0.0676  0.1202
  369loPI   C1B 5901  13.000  10.791   9.455  0.0708 -0.1054 -0.0170
  369loPI   C2B 5902  12.977  10.893   8.942  0.1640 -0.4125 -0.0246
  369loPI   C3B 5903  13.031  10.925   8.462  0.0905  0.0722 -0.1654
  369loPI   C4B 5904  13.002  11.100   7.963  0.0768 -0.1680  0.1779
  370loPI    C1 5905   3.646   5.950  10.352 -0.0670  0.0309  0.1652
  370loPI    C2 5906   3.375   5.679  10.468 -0.0660 -0.1121 -0.1560
  370loPI    C3 5907   3.760   5.632  10.566 -0.1362  0.0340  0.2071
  370loPI   PO4 5908   3.709   5.961  10.153  0.1367 -0.1432  0.1491
  370loPI   GL1 5909   3.682   6.191   9.815  0.0909  0.2775  0.2110
  370loPI   GL2 5910   3.428   6.064   9.704 -0.1173  0.1706 -0.1560
  370loPI   C1A 5911   3.543   6.641   9.629 -0.0314 -0.0771  0.2562
  370loPI   C2A 5912   3.716   6.946   9.328  0.1787 -0.1738  0.1277
  370loPI   C3A 5913   3.767   6.944   8.904  0.0933 -0.1135 -0.1030
  370loPI   C4A 5914   4.060   7.136   8.607  0.0399 -0.4767 -0.0088
  370loPI   C5A 5915   4.411   7.485   8.359  0.2100 -0.1582  0.2042
  370loPI   C6A 5916   4.628   7.611   8.052  0.1196  0.0777 -0.0412
  370loPI   C1B 5917   3.309   6.222   9.300 -0.2085  0.0764  0.0667
  370loPI   C2B 5918   3.002   6.272   8.871  0.0693 -0.0360 -0.1051
  370loPI   C3B 5919   3.073   6.236   8.364  0.1759 -0.0949 -0.1821
  370loPI   C4B 5920   2.918   5.847   8.097  0.1799 -0.1281 -0.1801
  371loPI    C1 5921  13.192  15.605  10.343  0.0338  0.1646  0.0078
  371loPI    C2 5922  12.854  15.680  10.544  0.0369  0.2272 -0.0103
  371loPI    C3 5923  13.206  15.804  10.690  0.0804 -0.0646  0.1396
  371loPI   PO4 5924  13.151  15.413  10.233  0.0352 -0.1558 -0.1723
  371loPI   GL1 5925  13.255  15.108   9.867 -0.1746  0.0687 -0.4256
  371loPI   GL2 5926  13.079  15.229   9.552 -0.0968 -0.1187 -0.0873
  371loPI   C1A 5927  13.401  14.816   9.469 -0.1367 -0.0532 -0.1096
  371loPI   C2A 5928  13.149  14.901   9.206  0.2447 -0.0342 -0.1492
  371loPI   C3A 5929  12.915  14.765   8.905 -0.0433 -0.2269 -0.1561
  371loPI   C4A 5930  12.960  14.332   8.691  0.1489 -0.2544  0.0478
  371loPI   C5A 5931  13.261  14.297   8.328  0.1767  0.2177 -0.0821
  371loPI   C6A 5932  13.558  14.405   8.051 -0.0036  0.2628 -0.2478
  371loPI   C1B 5933  12.909  15.289   9.140  0.0835 -0.1714  0.3567
  371loPI   C2B 5934  12.941  15.471   8.742 -0.0797  0.0015  0.1270
  371loPI   C3B 5935  13.273  15.676   8.422  0.0197  0.1716  0.1307
  371loPI   C4B 5936  13.396  15.848   8.074  0.0709  0.1743  0.1533
  372loPI    C1 5937   3.648   0.369   9.943  0.2060 -0.1298  0.0981
  372loPI    C2 5938   3.617   0.383  10.341  0.0184  0.1992  0.0753
  372loPI    C3 5939   3.287   0.374  10.115  0.1206  0.3387 -0.0808
  372loPI   PO4 5940   3.840   0.164   9.916  0.0309  0.0234  0.0135
  372loPI   GL1 5941   3.797   0.144   9.440  0.0397 -0.1363  0.1161
  372loPI   GL2 5942   3.717   0.506   9.428 -0.0351 -0.1254  0.0075
  372loPI   C1A 5943   3.820   0.096   8.998  0.0130  0.3091 -0.0431
  372loPI   C2A 5944   3.861   0.050   8.610  0.1692  0.1364 -0.1359
  372loPI   C3A 5945   3.912   0.171   8.202 -0.1284 -0.2809  0.2801
  372loPI   C4A 5946   4.080   0.225   7.784  0.1969  0.0851 -0.2109
  372loPI   C5A 5947   4.371   0.139   7.524  0.2110 -0.1899  0.0270
  372loPI   C6A 5948   4.675   0.464   7.358  0.0247 -0.3455 -0.0605
  372loPI   C1B 5949   3.668   0.541   8.955  0.0664 -0.1062 -0.1083
  372loPI   C2B 5950   3.674   0.497   8.540 -0.0064 -0.3455 -0.0915
  372loPI   C3B 5951   3.920   0.648   8.181  0.0704  0.0172 -0.1714
  372loPI   C4B 5952   4.222   0.666   7.955 -0.1204 -0.0789 -0.1261
  373loPI    C1 5953   3.362  12.046  10.246 -0.1837 -0.0867  0.1561
  373loPI    C2 5954   3.266  12.088  10.632 -0.0147 -0.0793  0.1982
  373loPI    C3 5955   3.369  11.729  10.489  0.1930 -0.0311  0.2239
  373loPI   PO4 5956   3.497  12.269  10.195  0.2284  0.2842  0.0358
  373loPI   GL1 5957   3.974  12.325  10.123  0.0979  0.0261 -0.1634
  373loPI   GL2 5958   4.120  12.529  10.023  0.1425 -0.3236 -0.0848
  373loPI   C1A 5959   4.062  12.210   9.658  0.1005  0.1257  0.2587
  373loPI   C2A 5960   4.160  12.118   9.174  0.4598 -0.1255 -0.0759
  373loPI   C3A 5961   4.175  12.028   8.756  0.2119 -0.1216  0.1029
  373loPI   C4A 5962   4.241  12.125   8.485 -0.1258 -0.1836  0.0165
  373loPI   C5A 5963   4.063  11.854   8.049  0.1904  0.1419  0.0810
  373loPI   C6A 5964   3.917  11.469   7.838  0.3727 -0.2731  0.0947
  373loPI   C1B 5965   4.103  12.706   9.617 -0.0138 -0.0362 -0.4148
  373loPI   C2B 5966   4.154  12.747   9.169 -0.0291  0.0160 -0.0338
  373loPI   C3B 5967   4.275  12.580   8.753 -0.0957  0.0374 -0.0615
  373loPI   C4B 5968   4.234  12.577   8.330  0.4815 -0.0957 -0.0671
  374loPI    C1 5969   1.418  15.914  10.183  0.0463  0.3343  0.0177
  374loPI    C2 5970   1.269  16.123  10.490  0.3291  0.4638  0.0690
  374loPI    C3 5971   1.295  15.725  10.514 -0.0200  0.4373  0.0525
  374loPI   PO4 5972   1.362  15.970   9.993 -0.0242  0.0465 -0.1718
  374loPI   GL1 5973   1.385  16.131   9.616 -0.1487 -0.2956 -0.1697
  374loPI   GL2 5974   1.612  16.313   9.671 -0.1501  0.0279  0.1297
  374loPI   C1A 5975   1.110  16.276   9.135  0.1773  0.2076  0.3017
  374loPI   C2A 5976   1.066  16.206   8.710 -0.1614 -0.2991  0.3411
  374loPI   C3A 5977   1.148  16.186   8.337 -0.0210  0.1093  0.0038
  374loPI   C4A 5978   1.264  16.431   7.927  0.2780 -0.4049 -0.1748
  374loPI   C5A 5979   1.340  16.870   7.815  0.0723  0.0955 -0.1510
  374loPI   C6A 5980   1.435  17.259   7.576  0.0431  0.0038  0.2466
  374loPI   C1B 5981   1.779  16.502   9.382  0.2077 -0.2294 -0.0658
  374loPI   C2B 5982   1.454  16.615   8.992 -0.2528 -0.3872 -0.2372
  374loPI   C3B 5983   1.369  16.629   8.616 -0.1834 -0.0669 -0.0035
  374loPI   C4B 5984   1.289  16.846   8.336  0.3026 -0.1230  0.0062
  375loPI    C1 5985  12.905  10.718  10.308 -0.0495 -0.0384 -0.1966
  375loPI    C2 5986  13.259  10.663  10.487 -0.0758  0.0869 -0.1047
  375loPI    C3 5987  13.122  10.392  10.226 -0.0524 -0.1152  0.0903
  375loPI   PO4 5988  12.947  10.932  10.210  0.1218 -0.1146  0.0260
  375loPI   GL1 5989  13.132  10.997   9.895 -0.0635  0.2301 -0.0401
  375loPI   GL2 5990  13.360  10.753  10.006  0.3432  0.1456  0.1646
  375loPI   C1A 5991  13.159  11.261   9.560 -0.0908 -0.2634 -0.1683
  375loPI   C2A 5992  13.155  11.342   9.098 -0.0956  0.2220 -0.0314
  375loPI   C3A 5993  13.186  11.405   8.629 -0.0012  0.3233 -0.2080
  375loPI   C4A 5994  13.261  11.374   8.267  0.0251 -0.1765  0.0261
  375loPI   C5A 5995  13.506  11.092   8.001 -0.0650  0.5505  0.0179
  375loPI   C6A 5996  13.758  10.694   7.954  0.0638  0.1436 -0.0680
  375loPI   C1B 5997  13.648  10.512   9.823  0.0111  0.0451 -0.3692
  375loPI   C2B 5998  13.721  10.351   9.385  0.0878 -0.2320  0.1547
  375loPI   C3B 5999  13.935  10.169   9.028 -0.0142 -0.1734 -0.0072
  375loPI   C4B 6000  13.727  10.260   8.622 -0.1089 -0.0089  0.0487
  376loPI    C1 6001  10.360  15.585  10.648 -0.0845  0.0544 -0.0665
  376loPI    C2 6002  10.036  15.357  10.589  0.0120 -0.1597  0.2092
  376loPI    C3 6003  10.391  15.186  10.661  0.1746  0.0740 -0.0190
  376loPI   PO4 6004  10.317  15.757  10.338  0.2764 -0.0550 -0.2618
  376loPI   GL1 6005  10.549  15.818  10.017  0.2401 -0.1677 -0.0309
  376loPI   GL2 6006  10.704  16.052   9.943  0.1038  0.0331 -0.1281
  376loPI   C1A 6007  10.417  15.587   9.658  0.1503 -0.0718  0.0106
  376loPI   C2A 6008  10.315  15.650   9.227  0.1177  0.0101  0.1297
  376loPI   C3A 6009  10.211  15.649   8.704 -0.1580 -0.2410 -0.2215
  376loPI   C4A 6010  10.136  15.877   8.285  0.2395  0.1957 -0.0204
  376loPI   C5A 6011   9.841  15.834   8.050  0.0269  0.1313  0.2529
  376loPI   C6A 6012   9.405  16.119   7.949  0.0011  0.1153 -0.0646
  376loPI   C1B 6013  10.663  15.949   9.472  0.0803 -0.1134 -0.0199
  376loPI   C2B 6014  10.631  16.026   8.994  0.0899  0.1182  0.0437
  376loPI   C3B 6015  10.883  15.879   8.715  0.0893  0.0152  0.0784
  376loPI   C4B 6016  11.281  15.638   8.793 -0.0690 -0.0564  0.0363
  377loPI    C1 6017   1.845  13.043  10.573  0.2210 -0.0252  0.2115
  377loPI    C2 6018   1.666  13.362  10.734 -0.0375 -0.0567 -0.0061
  377loPI    C3 6019   1.618  13.002  10.900 -0.2849 -0.0856 -0.1357
  377loPI   PO4 6020   1.774  13.068  10.267 -0.3368 -0.0525 -0.0521
  377loPI   GL1 6021   1.831  13.016   9.883 -0.4295 -0.0008  0.0102
  377loPI   GL2 6022   2.046  12.830   9.853 -0.2833 -0.0169 -0.0490
  377loPI   C1A 6023   1.791  13.051   9.393 -0.3515 -0.0806 -0.2303
  377loPI   C2A 6024   1.966  13.198   9.050  0.0369 -0.0885  0.1203
  377loPI   C3A 6025   1.953  13.285   8.584 -0.3994 -0.0859 -0.2398
  377loPI   C4A 6026   1.951  13.042   8.205  0.0162 -0.0622 -0.4020
  377loPI   C5A 6027   2.037  12.960   7.790  0.0421  0.2666  0.3400
  377loPI   C6A 6028   1.774  12.760   7.510  0.1353 -0.2028 -0.0773
  377loPI   C1B 6029   2.308  12.991   9.545 -0.0185 -0.2467  0.0487
  377loPI   C2B 6030   2.420  12.855   9.165  0.0571 -0.3263 -0.0540
  377loPI   C3B 6031   2.702  12.560   8.894  0.1857 -0.3213  0.1209
  377loPI   C4B 6032   2.828  12.528   8.431 -0.1535  0.2277  0.2920
  378loPI    C1 6033   3.353   2.363  10.488 -0.0472 -0.0285  0.2585
  378loPI    C2 6034   3.162   2.065  10.302  0.0619  0.1199 -0.1011
  378loPI    C3 6035   3.457   1.983  10.559 -0.2308 -0.0957  0.1752
  378loPI   PO4 6036   3.346   2.538  10.272 -0.0111  0.2388  0.3683
  378loPI   GL1 6037   3.436   2.501   9.837  0.2323 -0.2306  0.0052
  378loPI   GL2 6038   3.199   2.269   9.795  0.2528 -0.1828  0.0270
  378loPI   C1A 6039   3.343   2.415   9.322 -0.0849 -0.2617  0.1861
  378loPI   C2A 6040   3.213   2.376   8.889 -0.1096  0.1308 -0.0400
  378loPI   C3A 6041   3.299   2.311   8.555 -0.1383  0.0696 -0.0495
  378loPI   C4A 6042   3.550   2.386   8.171 -0.2908  0.0286 -0.1707
  378loPI   C5A 6043   3.749   2.341   7.835  0.0595  0.0519 -0.0524
  378loPI   C6A 6044   3.828   2.199   7.410  0.1056  0.0841 -0.3264
  378loPI   C1B 6045   3.083   1.950   9.529 -0.0807  0.1948 -0.0995
  378loPI   C2B 6046   3.058   1.956   9.141 -0.1637 -0.0590 -0.0050
  378loPI   C3B 6047   3.141   1.906   8.766 -0.0577 -0.3130 -0.0050
  378loPI   C4B 6048   2.939   1.860   8.379  0.0246  0.0378  0.3100
  379loPI    C1 6049  11.269   5.054  10.497  0.0171 -0.1084 -0.0206
  379loPI    C2 6050  11.550   4.792  10.609  0.1821  0.0334 -0.0975
  379loPI    C3 6051  11.363   5.014  10.884  0.1494 -0.0568 -0.0466
  379loPI   PO4 6052  11.092   4.940  10.313 -0.1911 -0.0103  0.2508
  379loPI   GL1 6053  10.966   4.755   9.998  0.0850 -0.1040 -0.2446
  379loPI   GL2 6054  10.746   4.598   9.711 -0.0930 -0.0252 -0.0707
  379loPI   C1A 6055  11.257   4.569   9.752 -0.2619  0.0126  0.0287
  379loPI   C2A 6056  11.467   4.252   9.432 -0.0460 -0.1796 -0.0122
  379loPI   C3A 6057  11.571   4.239   9.010 -0.2616  0.3616 -0.1155
  379loPI   C4A 6058  11.805   4.348   8.611 -0.1136  0.1494  0.2395
  379loPI   C5A 6059  12.030   4.397   8.278  0.0197 -0.2846  0.2142
  379loPI   C6A 6060  11.918   4.540   7.878  0.1068 -0.0894 -0.1018
  379loPI   C1B 6061  10.861   4.784   9.230 -0.0219  0.2427 -0.0715
  379loPI   C2B 6062  11.018   4.863   8.859 -0.1022 -0.2223  0.0594
  379loPI   C3B 6063  11.168   4.828   8.477  0.0568 -0.1103 -0.3637
  379loPI   C4B 6064  11.208   4.846   8.122 -0.1308 -0.0715  0.0694
  380loPI    C1 6065   9.610   5.846  10.115  0.0347 -0.0263 -0.2131
  380loPI    C2 6066   9.519   5.704  10.477  0.0813  0.0622 -0.1663
  380loPI    C3 6067   9.270   5.642  10.169  0.0135  0.0369 -0.1068
  380loPI   PO4 6068   9.715   6.138  10.195  0.1537  0.2611 -0.0948
  380loPI   GL1 6069   9.792   6.332   9.861  0.4273 -0.1485  0.0968
  380loPI   GL2 6070   9.738   6.008   9.601  0.1788  0.1656 -0.0033
  380loPI   C1A 6071   9.799   6.591   9.459  0.1756  0.1959  0.0618
  380loPI   C2A 6072   9.994   6.640   9.163  0.1758 -0.3193  0.0067
  380loPI   C3A 6073  10.052   6.610   8.680  0.2328 -0.0349  0.2749
  380loPI   C4A 6074  10.126   6.587   8.189 -0.1176  0.1391  0.0065
  380loPI   C5A 6075  10.147   6.980   7.910  0.1788 -0.0211  0.1413
  380loPI   C6A 6076  10.272   7.106   7.514 -0.2313  0.2591  0.0423
  380loPI   C1B 6077   9.584   6.170   9.257 -0.2748  0.1060 -0.3261
  380loPI   C2B 6078   9.731   6.285   8.811  0.2090 -0.3100 -0.6730
  380loPI   C3B 6079   9.793   6.274   8.426  0.0448 -0.0964 -0.2354
  380loPI   C4B 6080   9.843   6.148   8.034  0.0695 -0.3028  0.2316
  381loPI    C1 6081   7.908   3.780   9.745  0.1362  0.1740 -0.3644
  381loPI    C2 6082   8.272   3.773   9.910  0.0992  0.0598 -0.2867
  381loPI    C3 6083   7.995   4.026  10.048  0.0334 -0.1132 -0.0963
  381loPI   PO4 6084   7.931   3.723   9.509 -0.0766 -0.0795 -0.1108
  381loPI   GL1 6085   8.355   3.822   9.414  0.2265 -0.0199  0.1466
  381loPI   GL2 6086   8.370   4.176   9.444  0.1351  0.0649 -0.0256
  381loPI   C1A 6087   8.335   3.540   8.979  0.1178  0.0603  0.0881
  381loPI   C2A 6088   8.527   3.547   8.589  0.2289  0.1195 -0.1875
  381loPI   C3A 6089   8.704   3.561   8.222 -0.3050  0.0548 -0.2954
  381loPI   C4A 6090   8.796   3.649   7.846  0.0828 -0.0975  0.1117
  381loPI   C5A 6091   9.060   3.658   7.570  0.1317 -0.1563  0.1819
  381loPI   C6A 6092   9.320   3.913   7.420 -0.0125 -0.1717 -0.2158
  381loPI   C1B 6093   8.340   4.121   8.983 -0.0738  0.5209 -0.1559
  381loPI   C2B 6094   8.484   4.062   8.603  0.2655  0.0779 -0.0212
  381loPI   C3B 6095   8.561   4.022   8.150 -0.1732 -0.0789 -0.1476
  381loPI   C4B 6096   8.466   4.102   7.793  0.2732 -0.0173  0.1164
  382loPI    C1 6097  12.063  12.872  10.242 -0.0577  0.1362 -0.1414
  382loPI    C2 6098  12.457  12.924  10.198 -0.0224  0.0602  0.0760
  382loPI    C3 6099  12.302  12.865  10.562 -0.2146 -0.0795 -0.0263
  382loPI   PO4 6100  12.002  12.672  10.080  0.3003  0.1357  0.2224
  382loPI   GL1 6101  12.204  12.408   9.810  0.2437  0.0178  0.1005
  382loPI   GL2 6102  12.305  12.749   9.753 -0.3085 -0.0674  0.0552
  382loPI   C1A 6103  12.141  12.228   9.336  0.2961 -0.0562 -0.1594
  382loPI   C2A 6104  12.266  12.192   8.933  0.0520 -0.1162 -0.1278
  382loPI   C3A 6105  12.108  12.131   8.521 -0.1077  0.1370  0.0006
  382loPI   C4A 6106  12.138  12.009   8.124 -0.2664  0.0396  0.1144
  382loPI   C5A 6107  12.061  12.117   7.751  0.3552  0.0092 -0.2333
  382loPI   C6A 6108  12.394  12.201   7.519 -0.1658 -0.2977  0.1877
  382loPI   C1B 6109  12.548  12.581   9.506  0.2345 -0.0238 -0.2939
  382loPI   C2B 6110  12.723  12.777   9.162 -0.0337  0.2957  0.0251
  382loPI   C3B 6111  12.762  12.829   8.683 -0.0661  0.0415 -0.3222
  382loPI   C4B 6112  12.726  12.768   8.325  0.0852  0.3398  0.0252
  383loPI    C1 6113   8.618   4.590   9.755 -0.2250 -0.1192 -0.1522
  383loPI    C2 6114   8.735   4.969   9.811 -0.3741 -0.0729 -0.1500
  383loPI    C3 6115   8.644   4.739  10.125  0.0740 -0.2276 -0.1271
  383loPI   PO4 6116   8.717   4.541   9.543 -0.1152  0.0325 -0.1129
  383loPI   GL1 6117   8.896   4.234   9.267 -0.1488 -0.2887  0.0751
  383loPI   GL2 6118   8.840   3.920   9.294  0.0137  0.1306  0.1175
  383loPI   C1A 6119   8.862   4.348   8.769  0.1765 -0.1001  0.0227
  383loPI   C2A 6120   8.798   4.394   8.354 -0.0326 -0.0328 -0.0666
  383loPI   C3A 6121   8.865   4.369   7.991  0.3197  0.2363 -0.0734
  383loPI   C4A 6122   8.814   4.340   7.514  0.1761 -0.0665 -0.1889
  383loPI   C5A 6123   8.731   4.631   7.199  0.2056  0.1051 -0.1205
  383loPI   C6A 6124   8.731   5.093   7.285  0.1516  0.3000  0.1228
  383loPI   C1B 6125   8.854   3.822   8.900  0.1801  0.0795  0.0254
  383loPI   C2B 6126   8.984   3.900   8.466 -0.0655 -0.1060  0.0977
  383loPI   C3B 6127   9.131   3.972   8.036  0.0660 -0.0849  0.1059
  383loPI   C4B 6128   9.289   4.245   7.791  0.1702 -0.1086  0.0786
  384loPI    C1 6129  12.751  17.279  10.363 -0.1958 -0.0320 -0.2272
  384loPI    C2 6130  12.652  17.447  10.713  0.0344  0.1766 -0.2596
  384loPI    C3 6131  12.500  17.092  10.612 -0.1478  0.1821 -0.0131
  384loPI   PO4 6132  12.724  17.497  10.251 -0.1816 -0.2535  0.0702
  384loPI   GL1 6133  12.745  17.790   9.899  0.2721  0.0810 -0.0121
  384loPI   GL2 6134  12.540  18.148   9.731  0.1473  0.3146  0.0478
  384loPI   C1A 6135  12.815  17.552   9.506  0.0208 -0.0215 -0.0724
  384loPI   C2A 6136  12.896  17.707   9.079 -0.4576 -0.4846 -0.3820
  384loPI   C3A 6137  12.882  17.742   8.688  0.3061  0.2155  0.1294
  384loPI   C4A 6138  12.867  17.987   8.267 -0.2190  0.2146 -0.1220
  384loPI   C5A 6139  13.032  18.263   7.974 -0.0721  0.0946 -0.0344
  384loPI   C6A 6140  12.924  18.493   7.600 -0.0107 -0.2265  0.0397
  384loPI   C1B 6141  12.594  18.060   9.291 -0.0018  0.1013 -0.0252
  384loPI   C2B 6142  12.376  17.922   8.903 -0.0470 -0.2395  0.2674
  384loPI   C3B 6143  12.448  18.112   8.576  0.1201 -0.0183 -0.0445
  384loPI   C4B 6144  12.155  18.345   8.404  0.0155 -0.2407 -0.1095
  385loPI    C1 6145  11.906   0.473  10.591  0.1274  0.0348  0.0822
  385loPI    C2 6146  11.884   0.339  10.967  0.0833 -0.1272  0.0230
  385loPI    C3 6147  12.204   0.253  10.743  0.0152 -0.2078 -0.0437
  385loPI   PO4 6148  11.646   0.498  10.457  0.1543 -0.3068  0.1957
  385loPI   GL1 6149  11.624   0.435  10.097 -0.1015  0.0733 -0.2200
  385loPI   GL2 6150  11.925   0.503   9.936 -0.0460  0.0334  0.0564
  385loPI   C1A 6151  11.526   0.697   9.741 -0.1924  0.1239  0.0947
  385loPI   C2A 6152  11.516   1.002   9.395  0.2950  0.1825  0.1557
  385loPI   C3A 6153  11.495   1.090   8.991 -0.0734 -0.0248 -0.4057
  385loPI   C4A 6154  11.414   1.120   8.562  0.0521 -0.1112 -0.2844
  385loPI   C5A 6155  11.552   0.945   8.170 -0.1314 -0.0955  0.3365
  385loPI   C6A 6156  11.867   0.669   7.836 -0.2508  0.1601 -0.0098
  385loPI   C1B 6157  11.947   0.352   9.541  0.0777 -0.0198  0.1408
  385loPI   C2B 6158  11.866   0.260   9.028  0.1782  0.3983  0.0192
  385loPI   C3B 6159  11.766   0.060   8.587 -0.2515  0.1732 -0.2983
  385loPI   C4B 6160  11.651   0.021   8.281 -0.1756  0.0119  0.2076
  386loPI    C1 6161   6.967   9.291  10.728 -0.0171  0.2717 -0.0399
  386loPI    C2 6162   7.367   9.275  10.726 -0.0213  0.1521 -0.1900
  386loPI    C3 6163   7.174   9.449  11.031  0.1452  0.2257 -0.1255
  386loPI   PO4 6164   6.899   9.274  10.354  0.3574  0.1255 -0.1115
  386loPI   GL1 6165   6.783   9.244   9.983 -0.1592  0.0410 -0.0158
  386loPI   GL2 6166   6.413   9.215   9.916  0.1665  0.1274  0.2426
  386loPI   C1A 6167   6.838   9.097   9.539  0.3820 -0.4301 -0.0542
  386loPI   C2A 6168   6.776   8.866   9.187  0.3219 -0.1969 -0.1655
  386loPI   C3A 6169   6.854   8.704   8.824 -0.0618  0.4715  0.0103
  386loPI   C4A 6170   6.992   8.588   8.437  0.1188  0.0095 -0.3407
  386loPI   C5A 6171   7.084   8.625   8.014  0.2908  0.0938 -0.2531
  386loPI   C6A 6172   7.260   8.680   7.680 -0.3377 -0.1515  0.2747
  386loPI   C1B 6173   6.403   9.400   9.519  0.2388 -0.2507 -0.3230
  386loPI   C2B 6174   6.363   9.376   9.020 -0.2315  0.0094  0.0170
  386loPI   C3B 6175   6.276   9.335   8.591 -0.1629 -0.0897  0.1728
  386loPI   C4B 6176   6.388   9.367   8.085  0.2879  0.3285 -0.0146
  387loPI    C1 6177  15.883   1.686  10.524 -0.1228 -0.1522 -0.1368
  387loPI    C2 6178  16.236   1.556  10.661 -0.0788 -0.0704 -0.1716
  387loPI    C3 6179  15.984   1.748  10.906 -0.1217 -0.1750 -0.1334
  387loPI   PO4 6180  15.966   1.813  10.304  0.0256 -0.1477  0.0951
  387loPI   GL1 6181  15.898   1.948   9.892  0.0708  0.0690 -0.0925
  387loPI   GL2 6182  15.610   1.779   9.909 -0.1419 -0.0420  0.1882
  387loPI   C1A 6183  15.999   1.717   9.622  0.2633 -0.0217  0.0748
  387loPI   C2A 6184  15.997   1.792   9.204  0.1106  0.2126 -0.0518
  387loPI   C3A 6185  16.093   1.712   8.822  0.0782 -0.2732  0.1675
  387loPI   C4A 6186  16.313   1.652   8.385  0.2859  0.3351 -0.2693
  387loPI   C5A 6187  16.534   1.602   7.958  0.4313  0.0003  0.1677
  387loPI   C6A 6188  16.877   1.486   7.681 -0.0744  0.2307  0.1152
  387loPI   C1B 6189  15.508   2.131   9.573  0.1033 -0.2197  0.1748
  387loPI   C2B 6190  15.558   2.211   9.177 -0.0631 -0.0937 -0.2227
  387loPI   C3B 6191  15.703   2.206   8.759 -0.2868  0.1392  0.0589
  387loPI   C4B 6192  15.983   2.088   8.482  0.0753 -0.1323  0.2896
  388loPI    C1 6193   3.866   4.922  10.290 -0.0609 -0.0371 -0.1254
  388loPI    C2 6194   3.547   4.820  10.508 -0.0353  0.0754 -0.0344
  388loPI    C3 6195   3.745   5.158  10.589 -0.0646  0.1512 -0.2741
  388loPI   PO4 6196   3.853   4.767  10.068 -0.0375 -0.1955  0.0348
  388loPI   GL1 6197   4.161   4.683   9.688 -0.0314  0.0246  0.1717
  388loPI   GL2 6198   3.858   4.886   9.483 -0.2631 -0.1337 -0.5770
  388loPI   C1A 6199   4.474   4.667   9.336  0.0307  0.2690 -0.0276
  388loPI   C2A 6200   4.521   4.749   8.926 -0.0651 -0.0591 -0.0973
  388loPI   C3A 6201   4.510   4.684   8.545 -0.1439  0.1246 -0.2045
  388loPI   C4A 6202   4.460   4.535   8.186 -0.2039 -0.5039 -0.3114
  388loPI   C5A 6203   4.135   4.555   7.832 -0.2620  0.2346  0.0947
  388loPI   C6A 6204   3.939   4.577   7.407  0.1418  0.0361 -0.0416
  388loPI   C1B 6205   4.005   4.620   9.162 -0.1249 -0.3120  0.0525
  388loPI   C2B 6206   4.021   4.529   8.648  0.0351  0.1381 -0.2505
  388loPI   C3B 6207   3.937   4.736   8.223  0.0638 -0.2917  0.4499
  388loPI   C4B 6208   3.925   5.033   7.840  0.0600  0.2420 -0.2029
  389loPI    C1 6209   5.588  11.746  10.374 -0.0247 -0.0401 -0.0655
  389loPI    C2 6210   5.561  11.347  10.396 -0.2892 -0.0238 -0.0559
  389loPI    C3 6211   5.811  11.545  10.637 -0.0089 -0.1983 -0.1977
  389loPI   PO4 6212   5.579  11.789  10.140  0.2289  0.1987  0.0020
  389loPI   GL1 6213   5.484  11.500   9.780 -0.2183 -0.0590  0.0981
  389loPI   GL2 6214   5.758  11.605   9.664  0.0898 -0.2249 -0.2025
  389loPI   C1A 6215   5.560  11.074   9.582  0.0927  0.2919  0.0524
  389loPI   C2A 6216   5.621  10.723   9.341  0.3016  0.0231 -0.1365
  389loPI   C3A 6217   5.718  10.618   8.902  0.0808  0.1714 -0.0234
  389loPI   C4A 6218   5.753  10.755   8.509  0.0905  0.0463 -0.1207
  389loPI   C5A 6219   5.937  11.078   8.216  0.2958 -0.1662 -0.0268
  389loPI   C6A 6220   5.858  11.434   8.047  0.0149 -0.0815 -0.4908
  389loPI   C1B 6221   5.736  11.411   9.186  0.0047 -0.0283 -0.0693
  389loPI   C2B 6222   5.613  11.689   8.714  0.2052  0.2235 -0.1405
  389loPI   C3B 6223   5.618  11.798   8.306  0.0024 -0.3167 -0.2321
  389loPI   C4B 6224   5.480  12.000   7.942  0.0559  0.1134  0.1906
  390loPI    C1 6225   8.797   3.879  10.129  0.1113  0.2819 -0.1327
  390loPI    C2 6226   8.519   4.157  10.061 -0.2317 -0.0787 -0.2400
  390loPI    C3 6227   8.512   3.947  10.401 -0.0107 -0.0017 -0.1863
  390loPI   PO4 6228   8.752   3.730   9.843  0.0962  0.4065 -0.0444
  390loPI   GL1 6229   8.628   3.457   9.573 -0.0292  0.2862 -0.0268
  390loPI   GL2 6230   8.289   3.325   9.584  0.0978 -0.0028 -0.1449
  390loPI   C1A 6231   8.788   3.331   9.131 -0.1266  0.1473  0.1348
  390loPI   C2A 6232   8.774   3.143   8.716  0.2224 -0.0570 -0.1089
  390loPI   C3A 6233   8.777   3.065   8.213  0.1274 -0.1857  0.1580
  390loPI   C4A 6234   8.940   3.152   7.855  0.2411  0.1973  0.0058
  390loPI   C5A 6235   9.111   3.160   7.493  0.1354  0.2522 -0.1504
  390loPI   C6A 6236   9.131   3.052   7.072 -0.1448 -0.2605  0.1379
  390loPI   C1B 6237   8.178   3.132   9.208 -0.0104 -0.0218 -0.0333
  390loPI   C2B 6238   8.326   2.954   8.861  0.2044 -0.1395  0.1745
  390loPI   C3B 6239   8.365   2.882   8.423 -0.3747  0.1752 -0.0035
  390loPI   C4B 6240   8.276   2.708   7.975 -0.0410  0.0267 -0.3555
  391loPI    C1 6241   5.705   1.936  10.260  0.0659  0.0228 -0.0353
  391loPI    C2 6242   5.978   1.975   9.970  0.1456 -0.0283  0.0320
  391loPI    C3 6243   6.000   2.203  10.298 -0.0571  0.1670 -0.0871
  391loPI   PO4 6244   5.449   1.969  10.135  0.2523  0.2504  0.2296
  391loPI   GL1 6245   5.596   1.969   9.686 -0.0018  0.0467  0.2901
  391loPI   GL2 6246   5.585   2.238   9.497  0.0034  0.2588  0.0488
  391loPI   C1A 6247   5.592   1.690   9.230  0.0020 -0.1467  0.0679
  391loPI   C2A 6248   5.654   1.764   8.793 -0.0076  0.1326 -0.1059
  391loPI   C3A 6249   5.695   1.931   8.418 -0.2180  0.2159 -0.3849
  391loPI   C4A 6250   5.828   1.930   7.945 -0.2086 -0.2723  0.0171
  391loPI   C5A 6251   6.067   1.899   7.503 -0.2389 -0.0189 -0.2342
  391loPI   C6A 6252   6.151   2.073   7.113 -0.2446  0.1302  0.1675
  391loPI   C1B 6253   5.677   2.215   9.117 -0.0683  0.0079  0.1908
  391loPI   C2B 6254   5.997   2.225   8.790  0.0816 -0.1419  0.1723
  391loPI   C3B 6255   6.088   2.243   8.334  0.2735 -0.1258  0.1393
  391loPI   C4B 6256   6.328   2.100   7.952 -0.0547  0.1481 -0.0374
  392loPI    C1 6257  17.044   2.607  10.122 -0.1084  0.2296 -0.1705
  392loPI    C2 6258  17.337   2.577  10.394 -0.1001  0.0772 -0.1951
  392loPI    C3 6259  16.957   2.507  10.500 -0.0945 -0.0030 -0.2273
  392loPI   PO4 6260  17.042   2.896  10.108  0.4165 -0.4060 -0.1527
  392loPI   GL1 6261  17.192   3.109   9.619 -0.2531 -0.1493 -0.0860
  392loPI   GL2 6262  16.959   2.745   9.585  0.0627  0.1327 -0.1725
  392loPI   C1A 6263  17.330   3.290   9.362 -0.0614  0.1253  0.2190
  392loPI   C2A 6264  17.433   3.155   8.983 -0.2401 -0.0588  0.1304
  392loPI   C3A 6265  17.419   3.133   8.556  0.0185  0.1540  0.2668
  392loPI   C4A 6266  17.308   3.240   8.066 -0.0574  0.2668 -0.0476
  392loPI   C5A 6267  16.866   3.226   7.891  0.1630 -0.1058  0.1758
  392loPI   C6A 6268  16.546   2.996   7.662 -0.0521 -0.1901 -0.3253
  392loPI   C1B 6269  16.922   2.940   9.266 -0.0636 -0.1859  0.0516
  392loPI   C2B 6270  16.973   2.988   8.820 -0.1580  0.0664  0.0294
  392loPI   C3B 6271  16.972   2.913   8.404  0.3147 -0.1728  0.0425
  392loPI   C4B 6272  16.529   2.936   8.187 -0.0954 -0.1323 -0.0230
  393loPI    C1 6273  11.331  17.745  10.213 -0.0757  0.0244 -0.1586
  393loPI    C2 6274  11.026  17.505  10.118 -0.0101 -0.1522  0.0667
  393loPI    C3 6275  11.070  17.633  10.494  0.0958  0.0144 -0.0013
  393loPI   PO4 6276  11.307  17.961  10.109  0.0962 -0.5893  0.2767
  393loPI   GL1 6277  11.302  18.073   9.688 -0.0250 -0.4375 -0.1067
  393loPI   GL2 6278  11.230  17.851   9.519  0.0688 -0.2121 -0.0389
  393loPI   C1A 6279  10.995  18.395   9.463  0.0771  0.3482 -0.2397
  393loPI   C2A 6280  11.073  18.659   9.110 -0.1001 -0.2984 -0.1270
  393loPI   C3A 6281  11.274  18.697   8.712  0.1380  0.2459  0.0576
  393loPI   C4A 6282  11.148  18.586   8.247  0.0275  0.1442  0.0117
  393loPI   C5A 6283  10.990  18.711   7.921  0.0751  0.2553 -0.1723
  393loPI   C6A 6284  10.933  18.505   7.492 -0.0331 -0.2881 -0.0129
  393loPI   C1B 6285  11.492  17.878   9.232 -0.0812 -0.1635  0.3510
  393loPI   C2B 6286  11.408  17.783   8.817  0.4534  0.0889  0.2792
  393loPI   C3B 6287  11.508  17.626   8.390  0.0339  0.3992  0.2024
  393loPI   C4B 6288  11.807  17.619   8.058 -0.1726 -0.2310 -0.1858
  394loPI    C1 6289  10.722  10.029  10.631  0.1372 -0.2577  0.0657
  394loPI    C2 6290  10.350   9.883  10.647  0.0704 -0.1131 -0.1227
  394loPI    C3 6291  10.578   9.887  10.976 -0.0448 -0.3289 -0.0382
  394loPI   PO4 6292  10.668  10.333  10.538 -0.2004 -0.3155 -0.1973
  394loPI   GL1 6293  10.711  10.451  10.114 -0.3233 -0.1895  0.0322
  394loPI   GL2 6294  10.550  10.060  10.174  0.0655  0.1419 -0.0415
  394loPI   C1A 6295  10.688  10.332   9.657  0.0722  0.1990  0.1359
  394loPI   C2A 6296  10.596  10.247   9.179  0.3142  0.2436 -0.1996
  394loPI   C3A 6297  10.680  10.087   8.744 -0.0154 -0.4712  0.1963
  394loPI   C4A 6298  10.437  10.105   8.344 -0.1976  0.2410  0.2146
  394loPI   C5A 6299  10.369  10.146   7.927  0.1554  0.1623 -0.3220
  394loPI   C6A 6300  10.055  10.347   7.667  0.0280  0.1134  0.1820
  394loPI   C1B 6301  10.279  10.116   9.881  0.2347 -0.0526  0.2227
  394loPI   C2B 6302  10.144  10.325   9.411 -0.3339  0.0055 -0.2376
  394loPI   C3B 6303  10.078  10.110   9.111 -0.0520 -0.1957  0.1719
  394loPI   C4B 6304   9.675   9.932   8.959  0.1462 -0.1231  0.1669
  395loPI    C1 6305  15.466   0.716  10.375 -0.0907  0.1941  0.1935
  395loPI    C2 6306  15.615   0.365  10.495 -0.0299  0.1888  0.1033
  395loPI    C3 6307  15.392   0.583  10.745 -0.1633  0.0330  0.1220
  395loPI   PO4 6308  15.667   0.770  10.183 -0.1707  0.1323  0.0816
  395loPI   GL1 6309  15.746   0.434   9.867  0.4628 -0.0194 -0.0761
  395loPI   GL2 6310  15.477   0.639   9.759  0.1167 -0.0024 -0.1866
  395loPI   C1A 6311  16.020   0.426   9.538 -0.1808  0.2738  0.1412
  395loPI   C2A 6312  15.939   0.475   9.133 -0.0471  0.0562 -0.0527
  395loPI   C3A 6313  15.797   0.468   8.732  0.1619  0.2211  0.0934
  395loPI   C4A 6314  15.883   0.448   8.273 -0.2940 -0.2120 -0.0377
  395loPI   C5A 6315  15.943   0.296   8.038  0.0072  0.2916 -0.1091
  395loPI   C6A 6316  15.770   0.037   7.762 -0.2552  0.1551 -0.4893
  395loPI   C1B 6317  15.637   0.719   9.424 -0.0828 -0.2834  0.6208
  395loPI   C2B 6318  15.643   0.862   8.955  0.1261 -0.1439 -0.1715
  395loPI   C3B 6319  15.630   0.888   8.493  0.1560  0.0024  0.3595
  395loPI   C4B 6320  15.805   1.049   8.098  0.1355  0.2550 -0.0260
  396loPI    C1 6321   7.189  12.429  10.299 -0.1282 -0.1725 -0.0062
  396loPI    C2 6322   7.273  12.395  10.689 -0.0520 -0.2032 -0.0251
  396loPI    C3 6323   7.554  12.314  10.415 -0.0082  0.1240 -0.0817
  396loPI   PO4 6324   7.123  12.666  10.271  0.0435  0.0579  0.1114
  396loPI   GL1 6325   7.256  13.066   9.962 -0.0402 -0.0113 -0.0267
  396loPI   GL2 6326   7.089  12.725   9.787 -0.3405 -0.0590 -0.0103
  396loPI   C1A 6327   7.305  13.333   9.631 -0.0101 -0.0044 -0.1422
  396loPI   C2A 6328   7.368  13.330   9.205  0.0477 -0.3401  0.0446
  396loPI   C3A 6329   7.059  13.532   8.902 -0.2018  0.0401  0.1227
  396loPI   C4A 6330   6.888  13.519   8.490 -0.3690  0.4770 -0.1482
  396loPI   C5A 6331   6.807  13.574   8.040 -0.1318  0.0186  0.1208
  396loPI   C6A 6332   6.945  13.951   7.842 -0.0365 -0.2603  0.1992
  396loPI   C1B 6333   7.119  12.816   9.296 -0.1668  0.1612  0.1367
  396loPI   C2B 6334   7.213  12.985   8.958  0.2264  0.3672 -0.2338
  396loPI   C3B 6335   7.054  13.062   8.622  0.0402  0.1318  0.0738
  396loPI   C4B 6336   6.809  13.054   8.284  0.0795  0.0690  0.3260
  397loPI    C1 6337  10.564   5.925  10.379  0.0053 -0.0428 -0.0984
  397loPI    C2 6338  10.382   5.581  10.288  0.1628 -0.1647  0.0412
  397loPI    C3 6339  10.547   5.631  10.649 -0.1916  0.2000  0.1606
  397loPI   PO4 6340  10.512   6.076  10.213 -0.2874 -0.1401 -0.2855
  397loPI   GL1 6341  10.502   6.466   9.903 -0.0048 -0.2453  0.0275
  397loPI   GL2 6342  10.297   6.598   9.726  0.2160  0.0583  0.0381
  397loPI   C1A 6343  10.591   6.372   9.432  0.0321 -0.0287  0.3402
  397loPI   C2A 6344  10.515   6.490   8.956  0.2507 -0.0573  0.0843
  397loPI   C3A 6345  10.563   6.456   8.522 -0.0622 -0.2171  0.2148
  397loPI   C4A 6346  10.561   6.373   8.030  0.3046 -0.0234 -0.4687
  397loPI   C5A 6347  10.204   6.473   7.717 -0.0131  0.0640 -0.2147
  397loPI   C6A 6348   9.890   6.254   7.523 -0.2876  0.0588 -0.0273
  397loPI   C1B 6349  10.187   6.184   9.536  0.1992 -0.1005 -0.0882
  397loPI   C2B 6350  10.172   6.169   9.103 -0.0277 -0.1111  0.0846
  397loPI   C3B 6351  10.234   6.045   8.751  0.1438  0.0035  0.0952
  397loPI   C4B 6352  10.258   6.121   8.332 -0.1645  0.2174 -0.0144
  398loPI    C1 6353  15.711  14.055  10.239  0.0421 -0.0588  0.0431
  398loPI    C2 6354  16.049  13.923  10.407  0.0613  0.0482  0.0887
  398loPI    C3 6355  15.767  14.093  10.633  0.0429  0.0983  0.0281
  398loPI   PO4 6356  15.757  14.125  10.012 -0.0023 -0.1918  0.2986
  398loPI   GL1 6357  15.640  14.053   9.612 -0.2885 -0.1102 -0.2102
  398loPI   GL2 6358  15.812  14.196   9.433 -0.1163  0.0231 -0.1009
  398loPI   C1A 6359  15.509  13.935   9.160 -0.3355 -0.4275 -0.0183
  398loPI   C2A 6360  15.639  14.141   8.741 -0.0601  0.1070  0.0870
  398loPI   C3A 6361  15.569  13.973   8.377 -0.0241 -0.0378  0.0884
  398loPI   C4A 6362  15.814  13.761   8.052 -0.1542 -0.1431  0.0022
  398loPI   C5A 6363  16.039  14.053   7.732  0.0773 -0.0631 -0.1875
  398loPI   C6A 6364  16.203  14.163   7.464  0.2901 -0.0827 -0.1715
  398loPI   C1B 6365  15.969  14.477   9.157 -0.3713 -0.0867  0.1390
  398loPI   C2B 6366  16.079  14.394   8.738  0.2137 -0.2207 -0.1897
  398loPI   C3B 6367  16.290  14.435   8.236 -0.1899 -0.0109  0.1799
  398loPI   C4B 6368  16.512  14.390   7.848 -0.1509  0.1185  0.0817
  399loPI    C1 6369   2.088  11.344  10.293 -0.3863  0.1107  0.2535
  399loPI    C2 6370   1.984  10.958  10.283  0.0705 -0.0109 -0.1399
  399loPI    C3 6371   2.113  11.121  10.624  0.0896 -0.2670 -0.0223
  399loPI   PO4 6372   1.865  11.399  10.122 -0.1559  0.3158  0.2337
  399loPI   GL1 6373   1.477  11.307  10.022 -0.0799 -0.0538  0.1293
  399loPI   GL2 6374   1.218  11.473   9.929 -0.1994  0.4257 -0.2486
  399loPI   C1A 6375   1.501  11.288   9.550 -0.0343 -0.0984  0.1557
  399loPI   C2A 6376   1.511  11.167   9.074  0.0613 -0.1162 -0.0950
  399loPI   C3A 6377   1.495  11.229   8.636 -0.0719 -0.1332  0.0790
  399loPI   C4A 6378   1.595  11.195   8.257 -0.0786  0.0169  0.0218
  399loPI   C5A 6379   1.734  11.315   7.854 -0.0453 -0.2728 -0.5252
  399loPI   C6A 6380   1.488  11.398   7.513  0.1058 -0.1487 -0.0086
  399loPI   C1B 6381   0.942  11.428   9.587 -0.0770  0.0683 -0.3026
  399loPI   C2B 6382   1.026  11.384   9.192  0.0945  0.4056 -0.2880
  399loPI   C3B 6383   1.005  11.392   8.685 -0.1063  0.1759 -0.1349
  399loPI   C4B 6384   0.904  11.323   8.220 -0.1609 -0.1401  0.0354
  400loPI    C1 6385   8.317   9.367  10.650  0.0436  0.1103  0.0189
  400loPI    C2 6386   7.987   9.160  10.559  0.0388  0.1467 -0.0468
  400loPI    C3 6387   8.166   9.105  10.912  0.0574  0.0051 -0.0776
  400loPI   PO4 6388   8.354   9.513  10.415  0.0911 -0.0982 -0.2107
  400loPI   GL1 6389   8.441   9.527   9.963 -0.1832  0.3521  0.1840
  400loPI   GL2 6390   8.580   9.816   9.764 -0.0591  0.1283  0.4198
  400loPI   C1A 6391   8.079   9.679   9.638  0.0464  0.2590 -0.2868
  400loPI   C2A 6392   7.997   9.638   9.207  0.3201 -0.2311 -0.2224
  400loPI   C3A 6393   8.124   9.584   8.722 -0.2834  0.3353  0.1459
  400loPI   C4A 6394   7.908   9.591   8.351 -0.2538 -0.0907  0.0849
  400loPI   C5A 6395   8.181   9.629   8.139  0.0861  0.0381 -0.0270
  400loPI   C6A 6396   8.432   9.671   7.723  0.0555 -0.0739 -0.1018
  400loPI   C1B 6397   8.891   9.595   9.496  0.1190 -0.0109  0.0145
  400loPI   C2B 6398   8.973   9.603   9.036 -0.1326 -0.1275  0.0701
  400loPI   C3B 6399   9.077   9.555   8.566  0.3272  0.0387 -0.0372
  400loPI   C4B 6400   9.311   9.448   8.166 -0.2544  0.2097  0.1425
  401loPI    C1 6401   3.391  14.228  10.185 -0.2863 -0.3268  0.1730
  401loPI    C2 6402   3.180  14.506   9.990 -0.0314 -0.1324  0.1679
  401loPI    C3 6403   3.055  14.374  10.346 -0.0794  0.0955  0.2371
  401loPI   PO4 6404   3.666  14.331  10.199  0.2244  0.1589 -0.1303
  401loPI   GL1 6405   3.788  14.351   9.777 -0.0878 -0.1970  0.1314
  401loPI   GL2 6406   3.977  14.528   9.588  0.2009 -0.0730 -0.2994
  401loPI   C1A 6407   3.492  14.240   9.508 -0.2993  0.0707  0.0397
  401loPI   C2A 6408   3.573  14.204   9.091  0.2790  0.0722  0.0159
  401loPI   C3A 6409   3.546  14.153   8.653  0.0601 -0.3376 -0.2703
  401loPI   C4A 6410   3.486  14.093   8.230 -0.0552 -0.0366  0.1620
  401loPI   C5A 6411   3.483  14.205   7.866 -0.4685  0.1563  0.2058
  401loPI   C6A 6412   3.078  14.335   7.603 -0.3312 -0.1940 -0.2164
  401loPI   C1B 6413   3.972  14.463   9.262 -0.0064 -0.0978  0.0022
  401loPI   C2B 6414   3.875  14.491   8.812  0.2440 -0.2642 -0.1887
  401loPI   C3B 6415   3.921  14.395   8.403  0.0355  0.1755  0.2781
  401loPI   C4B 6416   3.938  14.276   8.055 -0.3244  0.0584 -0.1408
  402loPI    C1 6417   2.257   2.201  10.370 -0.3447 -0.0746  0.1549
  402loPI    C2 6418   2.484   1.896  10.248 -0.2187  0.0866 -0.0190
  402loPI    C3 6419   2.618   2.143  10.532 -0.1232  0.2520 -0.2056
  402loPI   PO4 6420   2.181   2.255  10.154 -0.0496  0.1494  0.1430
  402loPI   GL1 6421   2.420   2.337   9.883  0.2203  0.0694  0.2192
  402loPI   GL2 6422   2.698   2.240   9.737  0.0667 -0.0620  0.0018
  402loPI   C1A 6423   2.340   2.305   9.387  0.1813  0.1021 -0.2448
  402loPI   C2A 6424   2.311   2.439   8.999  0.0575  0.1745  0.1396
  402loPI   C3A 6425   2.243   2.515   8.561 -0.0931 -0.1222  0.0174
  402loPI   C4A 6426   2.140   2.256   8.113  0.0276  0.1802 -0.0408
  402loPI   C5A 6427   1.966   1.882   8.034 -0.0743  0.1684 -0.1078
  402loPI   C6A 6428   2.004   1.438   8.112 -0.1633 -0.0015 -0.3197
  402loPI   C1B 6429   2.824   2.361   9.323 -0.1451  0.1005  0.1119
  402loPI   C2B 6430   2.775   2.611   8.938  0.0033 -0.0347 -0.2611
  402loPI   C3B 6431   2.925   2.678   8.570 -0.1313  0.0981 -0.1978
  402loPI   C4B 6432   2.624   2.857   8.322  0.4114  0.0707 -0.1987
  403loPI    C1 6433  14.918  13.811  10.319  0.0934 -0.1354  0.1048
  403loPI    C2 6434  14.829  14.185  10.429 -0.1875 -0.1134 -0.1844
  403loPI    C3 6435  14.618  13.878  10.575  0.3371 -0.2101  0.4181
  403loPI   PO4 6436  14.869  13.761  10.103 -0.5704 -0.1012  0.0063
  403loPI   GL1 6437  14.674  13.780   9.706  0.2081  0.1182 -0.1225
  403loPI   GL2 6438  14.470  13.901   9.541  0.2362  0.0390  0.1107
  403loPI   C1A 6439  14.691  13.463   9.421 -0.0350  0.0348 -0.2816
  403loPI   C2A 6440  14.646  13.392   9.042  0.0950  0.1218  0.0084
  403loPI   C3A 6441  14.953  13.423   8.755  0.1827 -0.0190 -0.1162
  403loPI   C4A 6442  15.013  13.101   8.438  0.1087 -0.2173  0.3595
  403loPI   C5A 6443  15.009  12.900   8.080  0.1141 -0.0773 -0.0593
  403loPI   C6A 6444  15.240  12.776   7.840  0.0606  0.0212 -0.1104
  403loPI   C1B 6445  14.363  13.799   9.189 -0.0237  0.2307  0.1822
  403loPI   C2B 6446  14.322  14.130   8.899  0.0296  0.0141 -0.1668
  403loPI   C3B 6447  14.576  14.328   8.587 -0.0895  0.0864 -0.0813
  403loPI   C4B 6448  14.709  14.429   8.168  0.3291 -0.2549 -0.0556
  404loPI    C1 6449   0.514   9.928  10.869  0.0704 -0.0226 -0.2300
  404loPI    C2 6450   0.536   9.649  11.155  0.0158  0.0893 -0.1156
  404loPI    C3 6451   0.753   9.984  11.185  0.0377  0.0851 -0.2238
  404loPI   PO4 6452   0.296   9.941  10.778 -0.0614  0.0385 -0.2256
  404loPI   GL1 6453   0.069  10.090  10.416 -0.3457 -0.0900 -0.1648
  404loPI   GL2 6454   0.317  10.285  10.342  0.0901  0.2581 -0.4529
  404loPI   C1A 6455  -0.143  10.421  10.044  0.1405 -0.2407  0.3333
  404loPI   C2A 6456  -0.014  10.357   9.574 -0.0160  0.3045 -0.1616
  404loPI   C3A 6457  -0.109  10.315   9.135  0.3224 -0.0080  0.2376
  404loPI   C4A 6458  -0.323  10.306   8.725 -0.2658  0.0371 -0.1846
  404loPI   C5A 6459  -0.288  10.300   8.346  0.2674  0.1116  0.1617
  404loPI   C6A 6460   0.101  10.551   8.193 -0.2397 -0.1738  0.1130
  404loPI   C1B 6461   0.294  10.172   9.926 -0.0765  0.0264 -0.3497
  404loPI   C2B 6462   0.418  10.166   9.452 -0.1098 -0.0680  0.0515
  404loPI   C3B 6463   0.341  10.231   8.987 -0.2234  0.1177 -0.3148
  404loPI   C4B 6464   0.164  10.183   8.609 -0.1665 -0.2262  0.1757
  405loPI    C1 6465   9.589   4.845   9.948 -0.1215  0.1539 -0.2054
  405loPI    C2 6466   9.218   4.755   9.829 -0.0949 -0.2402 -0.0080
  405loPI    C3 6467   9.320   4.716  10.214 -0.0123  0.4444  0.0533
  405loPI   PO4 6468   9.803   4.608   9.797 -0.1452  0.2082  0.2376
  405loPI   GL1 6469   9.728   4.416   9.349  0.0651  0.3282  0.1309
  405loPI   GL2 6470   9.408   4.472   9.484 -0.1905 -0.0500  0.3593
  405loPI   C1A 6471   9.803   4.313   8.945 -0.1111  0.1589 -0.1733
  405loPI   C2A 6472   9.875   4.205   8.591 -0.2043  0.1112  0.0035
  405loPI   C3A 6473  10.019   4.018   8.111 -0.3027 -0.1765 -0.3562
  405loPI   C4A 6474  10.186   4.132   7.708 -0.1678 -0.1306  0.0689
  405loPI   C5A 6475  10.460   4.343   7.462  0.1870  0.2595  0.1059
  405loPI   C6A 6476  10.541   4.706   7.319  0.1503  0.0773  0.2506
  405loPI   C1B 6477   9.348   4.494   9.038  0.0579 -0.2628 -0.3614
  405loPI   C2B 6478   9.352   4.380   8.640  0.1346  0.1113  0.1437
  405loPI   C3B 6479   9.538   4.329   8.223 -0.0387  0.1371  0.1248
  405loPI   C4B 6480   9.884   4.520   7.920  0.2386 -0.2039 -0.1529
  406loPI    C1 6481  16.645   6.954  10.661 -0.0864  0.1407 -0.0999
  406loPI    C2 6482  16.328   6.902  10.900  0.1355 -0.0353  0.1614
  406loPI    C3 6483  16.543   7.239  10.923 -0.0432  0.0941 -0.0321
  406loPI   PO4 6484  16.594   6.856  10.347  0.0776  0.1681  0.1374
  406loPI   GL1 6485  16.676   6.814   9.985  0.0079  0.0072 -0.2855
  406loPI   GL2 6486  16.891   6.620   9.786  0.0531 -0.0643 -0.2661
  406loPI   C1A 6487  16.679   7.075   9.648  0.1479  0.0744 -0.1255
  406loPI   C2A 6488  16.850   7.366   9.416  0.2208 -0.1821 -0.2004
  406loPI   C3A 6489  17.107   7.386   9.012  0.1097 -0.0486 -0.0908
  406loPI   C4A 6490  17.423   7.598   8.788  0.0079 -0.0853 -0.1000
  406loPI   C5A 6491  17.487   7.640   8.328 -0.0407  0.3625  0.0072
  406loPI   C6A 6492  17.408   7.576   7.801  0.3942 -0.4981  0.0784
  406loPI   C1B 6493  16.786   6.659   9.394 -0.0385  0.4071  0.2968
  406loPI   C2B 6494  16.510   6.614   9.079  0.1146 -0.2131 -0.0818
  406loPI   C3B 6495  16.480   6.609   8.627 -0.2495  0.1011 -0.1947
  406loPI   C4B 6496  16.824   6.526   8.445  0.1037  0.1557 -0.0800
  407loPI    C1 6497  13.809  16.294  10.183  0.1280  0.0173  0.1247
  407loPI    C2 6498  13.747  16.582  10.452  0.1959  0.1317  0.0187
  407loPI    C3 6499  13.469  16.301  10.394 -0.0415  0.3953 -0.1488
  407loPI   PO4 6500  13.918  16.396   9.927 -0.0601 -0.0136  0.1263
  407loPI   GL1 6501  13.862  16.619   9.560 -0.1440  0.0384 -0.0263
  407loPI   GL2 6502  14.187  16.584   9.517  0.0415 -0.1500  0.0316
  407loPI   C1A 6503  13.830  16.477   9.127 -0.0036  0.1754  0.3683
  407loPI   C2A 6504  13.582  16.187   8.875  0.0561 -0.2946 -0.2155
  407loPI   C3A 6505  13.598  16.149   8.425  0.2677 -0.0104  0.2000
  407loPI   C4A 6506  13.809  16.176   8.149  0.1899  0.1536  0.2336
  407loPI   C5A 6507  13.857  16.229   7.715  0.2043  0.0447  0.3359
  407loPI   C6A 6508  14.133  16.351   7.403  0.1887  0.1527 -0.2875
  407loPI   C1B 6509  14.306  16.655   9.088 -0.1819  0.1185 -0.3020
  407loPI   C2B 6510  14.525  16.515   8.802 -0.3342 -0.1813 -0.1847
  407loPI   C3B 6511  14.754  16.369   8.332 -0.0398 -0.0147  0.3136
  407loPI   C4B 6512  14.929  16.262   7.884 -0.1633 -0.3300 -0.0485
  408loPI    C1 6513   3.704  12.577  10.558 -0.1583 -0.1996 -0.0572
  408loPI    C2 6514   4.046  12.376  10.608 -0.0410 -0.0255 -0.1455
  408loPI    C3 6515   3.853  12.525  10.925  0.0642  0.0380 -0.1110
  408loPI   PO4 6516   3.760  12.732  10.382 -0.0196  0.4854 -0.1514
  408loPI   GL1 6517   3.832  13.008  10.105  0.1966  0.2254 -0.1153
  408loPI   GL2 6518   4.085  13.128   9.988 -0.0850 -0.2710  0.3555
  408loPI   C1A 6519   3.627  12.926   9.665 -0.0267  0.1843 -0.0578
  408loPI   C2A 6520   3.585  12.891   9.209 -0.0804  0.3318  0.2983
  408loPI   C3A 6521   3.842  12.902   8.833  0.1532 -0.1288  0.1474
  408loPI   C4A 6522   3.782  12.807   8.403  0.0688 -0.0347 -0.2860
  408loPI   C5A 6523   3.671  12.655   7.987  0.1006  0.1437 -0.1979
  408loPI   C6A 6524   3.569  12.563   7.513  0.0401 -0.1008 -0.1655
  408loPI   C1B 6525   4.331  13.190   9.709  0.0498 -0.1263  0.0323
  408loPI   C2B 6526   4.437  13.169   9.310 -0.1409  0.0677 -0.1145
  408loPI   C3B 6527   4.371  13.151   8.926 -0.0020  0.1695 -0.3125
  408loPI   C4B 6528   4.423  12.997   8.489  0.0592  0.0850 -0.3475
  409loPI    C1 6529   1.442   3.716  10.391 -0.0840  0.2545  0.0599
  409loPI    C2 6530   1.115   3.605  10.594 -0.0156  0.0658  0.0693
  409loPI    C3 6531   1.478   3.540  10.749  0.0325  0.0742 -0.0391
  409loPI   PO4 6532   1.341   3.723  10.141 -0.1438 -0.0363  0.3091
  409loPI   GL1 6533   1.304   3.928   9.813  0.1302  0.3455 -0.2186
  409loPI   GL2 6534   0.974   3.917   9.698  0.0077  0.1623 -0.0600
  409loPI   C1A 6535   1.361   3.901   9.323  0.0235 -0.4134  0.1585
  409loPI   C2A 6536   1.304   3.723   8.954 -0.0036 -0.0840  0.0734
  409loPI   C3A 6537   1.369   3.882   8.535  0.0893 -0.0369  0.2062
  409loPI   C4A 6538   1.500   3.827   8.212 -0.1079  0.3107 -0.2160
  409loPI   C5A 6539   1.329   3.545   8.064  0.2113 -0.2079  0.0963
  409loPI   C6A 6540   1.106   3.193   8.116  0.0826  0.0311 -0.2170
  409loPI   C1B 6541   0.732   4.160   9.402  0.1516  0.1574 -0.1318
  409loPI   C2B 6542   0.500   4.331   8.978 -0.0214  0.3600  0.1012
  409loPI   C3B 6543   0.326   4.348   8.529  0.0439  0.3323  0.1227
  409loPI   C4B 6544   0.143   4.596   8.367  0.0725  0.0506  0.0911
  410loPI    C1 6545   8.987  12.133  10.382  0.0494  0.0650 -0.0700
  410loPI    C2 6546   9.356  12.192  10.525  0.0331  0.0350 -0.0152
  410loPI    C3 6547   9.186  11.830  10.551 -0.0594  0.0862  0.0976
  410loPI   PO4 6548   8.923  12.351  10.317 -0.0765 -0.0171 -0.3536
  410loPI   GL1 6549   8.889  12.475   9.983  0.0958  0.0223 -0.0246
  410loPI   GL2 6550   9.044  12.315   9.778  0.1463  0.1020  0.1625
  410loPI   C1A 6551   8.686  12.683   9.565  0.0029 -0.0513 -0.1509
  410loPI   C2A 6552   8.718  12.681   9.147  0.3232 -0.0241  0.2880
  410loPI   C3A 6553   8.666  12.861   8.788 -0.2517 -0.2709 -0.0427
  410loPI   C4A 6554   8.927  12.892   8.409  0.1616 -0.3162  0.1234
  410loPI   C5A 6555   8.795  12.780   7.989  0.0503  0.2209  0.0509
  410loPI   C6A 6556   8.507  12.885   7.666  0.1185 -0.3946  0.1723
  410loPI   C1B 6557   9.014  12.257   9.439  0.0333  0.0754  0.2197
  410loPI   C2B 6558   9.013  12.152   9.038  0.1952  0.2872 -0.2262
  410loPI   C3B 6559   9.158  12.022   8.584  0.2247 -0.1161 -0.2870
  410loPI   C4B 6560   9.499  11.997   8.365  0.1084  0.0969 -0.2058
  411loPI    C1 6561  15.006   4.280  10.096 -0.1437  0.0330  0.2726
  411loPI    C2 6562  15.252   4.460  10.356  0.2576 -0.1875  0.0546
  411loPI    C3 6563  15.077   4.672  10.066  0.2992 -0.0526  0.1274
  411loPI   PO4 6564  15.157   4.113   9.902 -0.2328 -0.1044 -0.1518
  411loPI   GL1 6565  15.218   4.094   9.444 -0.0365 -0.2799  0.0676
  411loPI   GL2 6566  15.093   4.444   9.529  0.2324  0.0002 -0.1918
  411loPI   C1A 6567  15.366   3.978   9.044  0.1050  0.1717  0.1834
  411loPI   C2A 6568  15.471   4.214   8.663 -0.0521 -0.1222  0.4318
  411loPI   C3A 6569  15.647   4.057   8.266  0.3794 -0.0718 -0.1229
  411loPI   C4A 6570  15.641   3.674   7.941  0.2843 -0.2000 -0.1254
  411loPI   C5A 6571  15.710   3.187   7.862  0.0278  0.1465 -0.0155
  411loPI   C6A 6572  16.058   2.863   7.930  0.0688  0.1915  0.1490
  411loPI   C1B 6573  15.089   4.532   9.128  0.0982 -0.0940  0.1934
  411loPI   C2B 6574  15.009   4.489   8.819 -0.0617  0.1117  0.2695
  411loPI   C3B 6575  14.978   4.375   8.377 -0.0590 -0.1887  0.1045
  411loPI   C4B 6576  14.921   4.341   8.027  0.2541  0.0869 -0.2342
  412loPI    C1 6577   3.557  15.091  10.426  0.0034 -0.0401 -0.0241
  412loPI    C2 6578   3.358  14.769  10.556 -0.2105  0.1363  0.0948
  412loPI    C3 6579   3.750  14.806  10.629 -0.1947 -0.0736  0.1210
  412loPI   PO4 6580   3.361  15.167  10.144  0.1907  0.2275  0.1791
  412loPI   GL1 6581   3.276  14.985   9.816 -0.2089  0.1054 -0.1397
  412loPI   GL2 6582   3.006  15.168   9.838  0.0618 -0.4940  0.0701
  412loPI   C1A 6583   3.296  14.742   9.466  0.2384 -0.1429  0.1518
  412loPI   C2A 6584   3.319  14.634   8.931 -0.2768  0.0814  0.0975
  412loPI   C3A 6585   3.516  14.662   8.488 -0.1216  0.3157  0.2486
  412loPI   C4A 6586   3.707  14.748   8.119 -0.1085 -0.1390 -0.3067
  412loPI   C5A 6587   3.706  14.644   7.610  0.0896 -0.0441  0.0133
  412loPI   C6A 6588   3.918  14.516   7.272  0.1187  0.3431 -0.0459
  412loPI   C1B 6589   3.043  15.174   9.368 -0.1632  0.2065 -0.1317
  412loPI   C2B 6590   3.110  15.067   8.937 -0.1242  0.5063  0.1719
  412loPI   C3B 6591   3.034  14.907   8.405  0.0274 -0.1185 -0.2744
  412loPI   C4B 6592   3.176  14.675   7.957  0.0365  0.2435  0.0157
  413loPI    C1 6593   4.427   1.216  10.361 -0.2538  0.1728  0.0585
  413loPI    C2 6594   4.210   1.477  10.572 -0.3305  0.1143  0.0526
  413loPI    C3 6595   4.198   1.088  10.663 -0.1773  0.1183  0.0939
  413loPI   PO4 6596   4.578   1.471  10.205 -0.0173 -0.1602 -0.0510
  413loPI   GL1 6597   4.674   1.520   9.758 -0.2394  0.1055 -0.1753
  413loPI   GL2 6598   4.478   1.780   9.609  0.2744 -0.1418  0.0266
  413loPI   C1A 6599   4.790   1.629   9.284  0.1407  0.1557 -0.1250
  413loPI   C2A 6600   4.584   1.616   8.872 -0.3607 -0.0848  0.1660
  413loPI   C3A 6601   4.764   1.758   8.446  0.0234  0.0592 -0.0086
  413loPI   C4A 6602   4.926   1.665   8.052  0.1681  0.0287 -0.0364
  413loPI   C5A 6603   4.911   1.768   7.635  0.0684 -0.0619  0.1479
  413loPI   C6A 6604   4.845   1.711   7.211 -0.2234  0.1582  0.0934
  413loPI   C1B 6605   4.363   2.117   9.247  0.1715  0.1017 -0.1503
  413loPI   C2B 6606   4.346   2.213   8.802 -0.0308  0.2609 -0.0166
  413loPI   C3B 6607   4.620   2.251   8.478 -0.0757 -0.0064 -0.0087
  413loPI   C4B 6608   4.609   2.084   8.031  0.0737 -0.4476 -0.0430
  414loPI    C1 6609   1.745  14.129  10.400  0.0683 -0.2415  0.4287
  414loPI    C2 6610   1.864  14.189  10.777  0.1738  0.1348  0.3397
  414loPI    C3 6611   1.977  14.442  10.489  0.0731 -0.1350  0.0576
  414loPI   PO4 6612   1.743  13.777  10.381  0.1247 -0.0514  0.1368
  414loPI   GL1 6613   1.884  13.540   9.967 -0.0987  0.0233 -0.0450
  414loPI   GL2 6614   2.005  13.882   9.972 -0.2194  0.0504 -0.1727
  414loPI   C1A 6615   2.067  13.452   9.513  0.5566 -0.0819  0.1397
  414loPI   C2A 6616   2.422  13.380   9.172  0.0887  0.4017  0.2051
  414loPI   C3A 6617   2.412  13.307   8.746 -0.1680  0.0559  0.0137
  414loPI   C4A 6618   2.566  13.310   8.342  0.1613  0.0797 -0.2462
  414loPI   C5A 6619   2.325  13.334   7.991  0.1327 -0.0474 -0.1491
  414loPI   C6A 6620   1.910  13.412   7.858  0.2957  0.2281  0.1254
  414loPI   C1B 6621   1.945  14.032   9.536 -0.0784 -0.3761 -0.0684
  414loPI   C2B 6622   1.932  14.293   9.154  0.1826  0.2919  0.0823
  414loPI   C3B 6623   1.801  14.246   8.617 -0.0080 -0.1749  0.1787
  414loPI   C4B 6624   1.617  14.041   8.379 -0.3965 -0.2564 -0.1110
  415loPI    C1 6625  11.632  14.167  10.006 -0.0966 -0.0749 -0.1894
  415loPI    C2 6626  11.826  14.086  10.346 -0.3078  0.0790 -0.0296
  415loPI    C3 6627  11.581  13.813  10.186 -0.0614 -0.0670 -0.1638
  415loPI   PO4 6628  11.583  14.388  10.018 -0.1127 -0.3941  0.1547
  415loPI   GL1 6629  11.723  14.701   9.996 -0.0375  0.0314 -0.0021
  415loPI   GL2 6630  11.511  14.879   9.873  0.0745 -0.0022  0.0054
  415loPI   C1A 6631  11.963  14.793   9.627 -0.0962 -0.4279  0.1391
  415loPI   C2A 6632  12.132  14.734   9.302  0.1579  0.2009 -0.0401
  415loPI   C3A 6633  12.015  14.890   8.894 -0.3024 -0.0479 -0.0875
  415loPI   C4A 6634  12.086  15.172   8.421 -0.1190  0.0045 -0.1017
  415loPI   C5A 6635  12.017  15.374   8.028  0.1000  0.2677  0.0440
  415loPI   C6A 6636  11.930  15.687   7.687 -0.1715  0.1288 -0.1584
  415loPI   C1B 6637  11.455  14.926   9.425 -0.2039 -0.1921 -0.1451
  415loPI   C2B 6638  11.493  14.761   9.054  0.1959 -0.2114  0.5016
  415loPI   C3B 6639  11.611  14.461   8.739 -0.0645  0.1164  0.0809
  415loPI   C4B 6640  11.485  14.380   8.276  0.1062 -0.0002  0.1700
  416loPI    C1 6641   3.073   9.658  10.505  0.1300  0.2593  0.1585
  416loPI    C2 6642   2.912   9.376  10.738 -0.0243  0.2775  0.0750
  416loPI    C3 6643   3.272   9.318  10.574 -0.1407  0.0420 -0.1037
  416loPI   PO4 6644   2.952   9.641  10.291 -0.0423 -0.0614  0.0234
  416loPI   GL1 6645   2.960   9.571   9.869 -0.1843 -0.1358  0.1065
  416loPI   GL2 6646   2.935   9.895   9.780  0.2201 -0.0008  0.1010
  416loPI   C1A 6647   2.981   9.495   9.515 -0.0885 -0.1150 -0.1815
  416loPI   C2A 6648   2.913   9.528   9.070  0.2971 -0.0694  0.1167
  416loPI   C3A 6649   2.967   9.467   8.625 -0.2300 -0.1148 -0.2617
  416loPI   C4A 6650   2.931   9.164   8.373  0.0804 -0.3017 -0.0112
  416loPI   C5A 6651   2.671   8.909   8.178 -0.1304 -0.4133  0.1900
  416loPI   C6A 6652   3.036   8.640   8.037 -0.1347 -0.0202 -0.1039
  416loPI   C1B 6653   2.847   9.947   9.389  0.1147 -0.0485 -0.2315
  416loPI   C2B 6654   2.692   9.973   8.968 -0.1778  0.1501 -0.1154
  416loPI   C3B 6655   2.701   9.897   8.604 -0.1131  0.0501  0.1519
  416loPI   C4B 6656   2.785   9.720   8.145  0.1464 -0.2086 -0.3772
  417loPI    C1 6657   4.977  15.866  10.494 -0.1740  0.1978  0.0470
  417loPI    C2 6658   4.600  15.778  10.596 -0.1207 -0.0543  0.0345
  417loPI    C3 6659   4.860  15.902  10.874 -0.1712 -0.0299  0.0709
  417loPI   PO4 6660   4.964  16.020  10.275 -0.0441 -0.0868 -0.1358
  417loPI   GL1 6661   4.976  15.922   9.901 -0.1962 -0.1945  0.1419
  417loPI   GL2 6662   5.287  16.003   9.920  0.0631 -0.0221  0.1082
  417loPI   C1A 6663   4.744  16.185   9.570  0.2174 -0.2119  0.1026
  417loPI   C2A 6664   4.672  16.326   9.099  0.0628 -0.1647  0.0329
  417loPI   C3A 6665   4.923  16.598   8.815 -0.0263  0.0020  0.1406
  417loPI   C4A 6666   4.954  16.572   8.481 -0.0441  0.0693  0.1138
  417loPI   C5A 6667   4.986  16.592   8.027  0.1109 -0.2520 -0.2475
  417loPI   C6A 6668   5.342  16.538   7.846  0.0690 -0.2037 -0.3485
  417loPI   C1B 6669   5.323  15.840   9.519  0.2352 -0.4008 -0.2088
  417loPI   C2B 6670   5.592  15.986   9.197 -0.0551 -0.0174 -0.0621
  417loPI   C3B 6671   5.791  15.882   8.882  0.2622  0.1753  0.1457
  417loPI   C4B 6672   5.813  15.881   8.488  0.0345 -0.0156  0.1193
  418loPI    C1 6673   6.451   2.872  10.222  0.0148  0.1701 -0.0723
  418loPI    C2 6674   6.257   2.927  10.567 -0.0090  0.1792 -0.0872
  418loPI    C3 6675   6.643   3.027  10.537 -0.0232  0.2359 -0.0816
  418loPI   PO4 6676   6.317   2.624  10.092 -0.0640  0.1064 -0.1000
  418loPI   GL1 6677   6.204   2.343   9.805  0.0731  0.0140 -0.0028
  418loPI   GL2 6678   6.078   2.610   9.603 -0.0120 -0.0908 -0.1636
  418loPI   C1A 6679   6.070   2.111   9.384 -0.0752  0.0008  0.3692
  418loPI   C2A 6680   6.056   1.800   9.098 -0.1722  0.1327  0.2468
  418loPI   C3A 6681   5.947   1.392   8.879  0.0935 -0.2621 -0.0955
  418loPI   C4A 6682   5.834   1.396   8.420 -0.0251 -0.0673  0.3986
  418loPI   C5A 6683   5.830   1.268   8.027  0.1411 -0.0274 -0.1489
  418loPI   C6A 6684   5.970   1.166   7.633  0.3007  0.0730 -0.0126
  418loPI   C1B 6685   6.056   2.677   9.108 -0.1639  0.0877 -0.2782
  418loPI   C2B 6686   6.054   2.736   8.614  0.1743 -0.2152 -0.0815
  418loPI   C3B 6687   5.984   2.763   8.169 -0.2659  0.1084  0.0755
  418loPI   C4B 6688   5.953   2.442   7.883 -0.2283  0.2754 -0.0261
  419loPI    C1 6689  15.206   7.465  10.342  0.0269 -0.1469  0.0134
  419loPI    C2 6690  15.323   7.664  10.668  0.2156  0.1200 -0.2124
  419loPI    C3 6691  15.255   7.271  10.688  0.4112  0.0984  0.1034
  419loPI   PO4 6692  15.388   7.462  10.188 -0.2334  0.2730  0.0712
  419loPI   GL1 6693  15.475   7.527   9.802 -0.0839  0.1375 -0.1702
  419loPI   GL2 6694  15.652   7.725   9.703 -0.0840  0.1740  0.0604
  419loPI   C1A 6695  15.439   7.444   9.350  0.2585  0.2371  0.0709
  419loPI   C2A 6696  15.376   7.396   8.865 -0.3068  0.1137 -0.3237
  419loPI   C3A 6697  15.200   7.160   8.492 -0.1793 -0.0691 -0.0955
  419loPI   C4A 6698  15.362   6.958   8.133  0.1719 -0.1099 -0.1169
  419loPI   C5A 6699  15.649   6.773   8.015  0.1640 -0.1386 -0.1020
  419loPI   C6A 6700  15.911   6.700   8.379 -0.3323  0.1243 -0.2480
  419loPI   C1B 6701  15.813   7.829   9.330  0.0627  0.0739  0.1976
  419loPI   C2B 6702  16.018   7.926   8.928  0.3174  0.3512  0.1598
  419loPI   C3B 6703  16.019   8.062   8.501 -0.3702  0.0197  0.2384
  419loPI   C4B 6704  16.175   7.872   8.281  0.2422 -0.0312 -0.3971
  420loPI    C1 6705  12.163   5.426  10.538 -0.0133  0.2213 -0.1077
  420loPI    C2 6706  12.536   5.281  10.559 -0.1299 -0.0474  0.1745
  420loPI    C3 6707  12.381   5.483  10.868 -0.2140  0.0780  0.0519
  420loPI   PO4 6708  12.129   5.473  10.354  0.0424 -0.2336 -0.1000
  420loPI   GL1 6709  11.966   5.587   9.900  0.3010 -0.3163 -0.0500
  420loPI   GL2 6710  11.997   5.300   9.924 -0.4506 -0.1070  0.2519
  420loPI   C1A 6711  12.007   5.968   9.592  0.4260 -0.0278  0.2036
  420loPI   C2A 6712  11.969   6.082   9.137  0.1014 -0.1014 -0.2558
  420loPI   C3A 6713  12.048   6.112   8.754  0.0714 -0.1744  0.1226
  420loPI   C4A 6714  12.117   6.100   8.301 -0.2046 -0.2046 -0.2457
  420loPI   C5A 6715  12.028   6.076   7.831 -0.0352 -0.0001 -0.1541
  420loPI   C6A 6716  11.923   6.381   7.614  0.2533  0.1985  0.2400
  420loPI   C1B 6717  11.661   5.299   9.563  0.1933  0.1193  0.0670
  420loPI   C2B 6718  11.405   5.222   9.193  0.1138 -0.0535 -0.0614
  420loPI   C3B 6719  11.390   5.188   8.727 -0.4321 -0.0171 -0.0951
  420loPI   C4B 6720  11.531   5.251   8.341 -0.2854 -0.0606 -0.5081
  421loPI    C1 6721   0.383   7.189  10.491  0.0090  0.0491 -0.1006
  421loPI    C2 6722   0.081   7.441  10.417 -0.2088 -0.1902 -0.0412
  421loPI    C3 6723   0.141   7.305  10.788  0.1302  0.0522 -0.0026
  421loPI   PO4 6724   0.636   7.240  10.470  0.1109 -0.2571 -0.0182
  421loPI   GL1 6725   0.993   7.228  10.208 -0.4305 -0.5388  0.0167
  421loPI   GL2 6726   0.854   6.947  10.092 -0.1108  0.0662 -0.0704
  421loPI   C1A 6727   1.107   7.087   9.732 -0.0930 -0.1332 -0.1388
  421loPI   C2A 6728   1.118   7.001   9.328 -0.1314 -0.0884 -0.0031
  421loPI   C3A 6729   1.110   7.178   8.908 -0.0558 -0.0653  0.2321
  421loPI   C4A 6730   1.266   7.306   8.503 -0.0466 -0.1123  0.4138
  421loPI   C5A 6731   1.408   7.704   8.358  0.0746  0.0745 -0.3230
  421loPI   C6A 6732   1.031   7.901   8.164 -0.2043  0.2043  0.4370
  421loPI   C1B 6733   0.917   6.581   9.826 -0.0875 -0.0667  0.0279
  421loPI   C2B 6734   0.923   6.579   9.462  0.1208  0.0914  0.1724
  421loPI   C3B 6735   0.845   6.675   8.913  0.0155  0.0954 -0.1099
  421loPI   C4B 6736   0.642   6.873   8.762  0.2503  0.1392  0.2480
  422loPI    C1 6737   5.121   6.822  10.085 -0.1737  0.0485  0.1032
  422loPI    C2 6738   5.383   6.635  10.323 -0.0045 -0.0046 -0.1213
  422loPI    C3 6739   5.122   6.896  10.479  0.2019  0.0723  0.1013
  422loPI   PO4 6740   5.286   6.914   9.901  0.0519 -0.0545 -0.2553
  422loPI   GL1 6741   5.155   6.947   9.450 -0.0564  0.1939 -0.2575
  422loPI   GL2 6742   5.530   6.932   9.438  0.1204  0.1697  0.2800
  422loPI   C1A 6743   5.101   6.652   9.093  0.1264 -0.4231  0.1745
  422loPI   C2A 6744   5.062   6.775   8.652  0.0053 -0.1299 -0.0799
  422loPI   C3A 6745   4.923   6.823   8.241  0.1914  0.0214 -0.0802
  422loPI   C4A 6746   4.626   6.593   7.989 -0.0238  0.1493 -0.1191
  422loPI   C5A 6747   4.600   6.459   7.570  0.0003  0.1017  0.0716
  422loPI   C6A 6748   4.503   6.327   7.152  0.0481 -0.2667  0.2763
  422loPI   C1B 6749   5.585   6.885   9.024 -0.1081  0.1765 -0.0872
  422loPI   C2B 6750   5.535   6.797   8.681  0.0472  0.0715 -0.1967
  422loPI   C3B 6751   5.450   6.711   8.296  0.2311  0.0386 -0.0395
  422loPI   C4B 6752   5.477   6.571   7.941 -0.1515 -0.1299  0.1630
  423loPI    C1 6753  18.061  10.300  10.556 -0.0538  0.1746 -0.2005
  423loPI    C2 6754  18.067  10.179  10.937 -0.4345  0.4797 -0.0913
  423loPI    C3 6755  18.382  10.373  10.784 -0.1265  0.0290 -0.0494
  423loPI   PO4 6756  17.812  10.390  10.533  0.0379  0.2559  0.0800
  423loPI   GL1 6757  17.574  10.334  10.140 -0.0628  0.0385  0.1072
  423loPI   GL2 6758  17.370  10.465  10.063  0.3665  0.1917  0.0234
  423loPI   C1A 6759  17.591  10.163   9.726  0.3127  0.1095 -0.2605
  423loPI   C2A 6760  17.531  10.130   9.250 -0.0232  0.3019  0.0752
  423loPI   C3A 6761  17.410  10.065   8.839 -0.1335  0.1029 -0.1231
  423loPI   C4A 6762  17.213   9.707   8.785  0.1660  0.2717  0.1058
  423loPI   C5A 6763  16.821   9.641   8.775  0.0470  0.3104 -0.0499
  423loPI   C6A 6764  16.450   9.442   8.787 -0.0268 -0.1543 -0.1006
  423loPI   C1B 6765  17.127  10.114   9.825  0.1408  0.0545  0.2430
  423loPI   C2B 6766  17.079   9.875   9.501 -0.0583  0.0791 -0.0191
  423loPI   C3B 6767  17.027   9.485   9.231  0.2686  0.0175  0.0147
  423loPI   C4B 6768  17.216   9.229   8.923  0.0964 -0.0493 -0.0779
  424loPI    C1 6769  11.057   1.450  10.273 -0.3844  0.0033 -0.1152
  424loPI    C2 6770  11.289   1.735  10.116  0.0080 -0.2490 -0.0075
  424loPI    C3 6771  11.308   1.654  10.508 -0.3464 -0.1995  0.0232
  424loPI   PO4 6772  11.080   1.309  10.126  0.2008  0.1522  0.0238
  424loPI   GL1 6773  11.040   1.465   9.756  0.3305  0.1535 -0.0533
  424loPI   GL2 6774  11.280   1.692   9.587 -0.1162  0.0075  0.0960
  424loPI   C1A 6775  11.004   1.316   9.323 -0.0167 -0.0398 -0.0374
  424loPI   C2A 6776  10.967   1.234   8.838 -0.0111 -0.0777  0.0070
  424loPI   C3A 6777  10.942   1.048   8.327  0.1575  0.1163 -0.3119
  424loPI   C4A 6778  10.812   0.754   8.027 -0.3303 -0.3870 -0.1730
  424loPI   C5A 6779  10.859   0.613   7.675 -0.1860  0.0217 -0.0175
  424loPI   C6A 6780  10.927   0.508   7.211  0.2750 -0.1608  0.0810
  424loPI   C1B 6781  11.410   1.615   9.144 -0.2432 -0.0014  0.0163
  424loPI   C2B 6782  11.418   1.615   8.737  0.1299  0.0116 -0.0326
  424loPI   C3B 6783  11.451   1.592   8.290  0.0253  0.0053  0.2019
  424loPI   C4B 6784  11.115   1.436   8.017 -0.1267 -0.1345 -0.1946
  425loPI    C1 6785   9.411   8.400  10.217  0.1324  0.1835  0.0663
  425loPI    C2 6786   9.268   8.713  10.422  0.0947  0.1085  0.1557
  425loPI    C3 6787   9.212   8.341  10.559  0.1776  0.0647  0.0729
  425loPI   PO4 6788   9.309   8.370   9.959  0.0312  0.3064  0.3215
  425loPI   GL1 6789   9.401   8.226   9.441  0.0293  0.0307  0.3273
  425loPI   GL2 6790   9.599   7.949   9.582 -0.2827  0.3022 -0.2222
  425loPI   C1A 6791   9.555   8.210   8.984  0.0681  0.1584  0.1155
  425loPI   C2A 6792   9.350   8.165   8.546  0.2317  0.1248 -0.0384
  425loPI   C3A 6793   9.322   8.205   8.132  0.0888  0.1090 -0.0167
  425loPI   C4A 6794   9.609   8.256   7.841 -0.0590 -0.0896 -0.0424
  425loPI   C5A 6795   9.868   8.106   7.535 -0.0695 -0.0868  0.0523
  425loPI   C6A 6796  10.282   8.173   7.408  0.4082 -0.2087  0.0490
  425loPI   C1B 6797   9.856   7.980   9.312 -0.3231  0.0041 -0.1850
  425loPI   C2B 6798  10.014   8.078   8.937 -0.0205 -0.0106 -0.6070
  425loPI   C3B 6799  10.103   8.271   8.548 -0.0796  0.1469  0.1799
  425loPI   C4B 6800  10.520   8.279   8.273 -0.0128 -0.0815 -0.0838
  426loPI    C1 6801   9.166   0.338  10.122  0.1172  0.1569 -0.1219
  426loPI    C2 6802   9.000   0.701  10.099 -0.1031  0.0532 -0.1919
  426loPI    C3 6803   8.838   0.422  10.335  0.0868  0.0110 -0.1106
  426loPI   PO4 6804   9.203   0.214   9.826 -0.2643  0.0456  0.0461
  426loPI   GL1 6805   9.417   0.220   9.491  0.1883 -0.0593  0.3398
  426loPI   GL2 6806   9.618  -0.039   9.509 -0.0768  0.1197 -0.0234
  426loPI   C1A 6807   9.265   0.299   9.135  0.1409 -0.2091  0.0098
  426loPI   C2A 6808   9.068   0.480   8.807  0.0157  0.2730  0.0414
  426loPI   C3A 6809   9.207   0.552   8.414  0.1886  0.1780 -0.0851
  426loPI   C4A 6810   9.401   0.401   8.123 -0.1424 -0.2579 -0.0353
  426loPI   C5A 6811   9.623   0.352   7.724  0.1439  0.0735 -0.1687
  426loPI   C6A 6812   9.977   0.111   7.666  0.1711 -0.0857  0.1168
  426loPI   C1B 6813   9.699  -0.164   9.123  0.1520 -0.3080 -0.2150
  426loPI   C2B 6814   9.727  -0.494   8.755 -0.0487  0.2263  0.1875
  426loPI   C3B 6815  10.006  -0.615   8.370 -0.2566 -0.0365  0.2362
  426loPI   C4B 6816  10.126  -0.326   8.069 -0.0818 -0.1071 -0.0276
  427loPI    C1 6817   8.212   4.680   9.533  0.2094 -0.0596  0.0899
  427loPI    C2 6818   8.160   4.492   9.882 -0.0019 -0.0757  0.0512
  427loPI    C3 6819   8.219   4.888   9.874  0.0711 -0.0852  0.1089
  427loPI   PO4 6820   8.071   4.570   9.371 -0.0129  0.3158 -0.0367
  427loPI   GL1 6821   7.911   4.283   9.140 -0.0413  0.2715  0.1095
  427loPI   GL2 6822   8.045   4.487   8.897 -0.2124 -0.2237 -0.0801
  427loPI   C1A 6823   7.544   4.237   8.936 -0.2630  0.1652  0.3890
  427loPI   C2A 6824   7.495   4.115   8.547 -0.1951  0.1991  0.0282
  427loPI   C3A 6825   7.510   4.013   8.092  0.1759 -0.0956 -0.0613
  427loPI   C4A 6826   7.655   3.828   7.700 -0.3512 -0.0174 -0.0551
  427loPI   C5A 6827   7.845   3.998   7.427 -0.0898 -0.0348  0.2946
  427loPI   C6A 6828   8.168   3.820   7.093  0.0319  0.0777 -0.0572
  427loPI   C1B 6829   8.076   4.319   8.590  0.1570  0.1000 -0.3455
  427loPI   C2B 6830   8.239   4.445   8.279  0.1350 -0.0266 -0.2356
  427loPI   C3B 6831   8.411   4.599   7.899 -0.1848  0.1489  0.0312
  427loPI   C4B 6832   8.342   4.969   7.608  0.1054 -0.2512  0.1515
  428loPI    C1 6833   4.003  17.011  10.638 -0.2636 -0.0192  0.1303
  428loPI    C2 6834   4.188  16.693  10.793  0.0121  0.0954  0.0417
  428loPI    C3 6835   4.359  17.054  10.814 -0.0250  0.1414 -0.3717
  428loPI   PO4 6836   3.911  16.998  10.301  0.3053  0.2105 -0.1043
  428loPI   GL1 6837   3.785  16.979   9.841 -0.0643 -0.5160  0.0354
  428loPI   GL2 6838   3.517  17.004   9.709 -0.0958  0.0124  0.1829
  428loPI   C1A 6839   3.945  16.734   9.502 -0.3324 -0.1902 -0.2627
  428loPI   C2A 6840   3.920  16.720   9.114  0.0703  0.0237 -0.0296
  428loPI   C3A 6841   3.948  16.634   8.705 -0.2009  0.0652  0.0338
  428loPI   C4A 6842   4.108  16.746   8.341  0.2802 -0.1743 -0.2157
  428loPI   C5A 6843   4.119  16.583   7.956  0.0191 -0.0101 -0.1743
  428loPI   C6A 6844   4.107  16.571   7.601  0.3567  0.1034 -0.2531
  428loPI   C1B 6845   3.538  16.998   9.301 -0.0907  0.0403 -0.0556
  428loPI   C2B 6846   3.744  17.160   8.979 -0.0404 -0.1646  0.1293
  428loPI   C3B 6847   4.060  17.115   8.702 -0.2781 -0.0619  0.1000
  428loPI   C4B 6848   4.223  17.246   8.374  0.1805 -0.0532 -0.1592
  429loPI    C1 6849  10.230   2.540  10.759 -0.0914  0.2295 -0.0302
  429loPI    C2 6850   9.911   2.311  10.685  0.2193 -0.2857  0.1691
  429loPI    C3 6851   9.916   2.549  11.006 -0.1175  0.0335 -0.0543
  429loPI   PO4 6852  10.214   2.816  10.518  0.0723  0.1834 -0.0993
  429loPI   GL1 6853  10.287   2.864  10.091  0.2000  0.0480  0.1448
  429loPI   GL2 6854  10.540   2.907   9.946 -0.4607  0.0400  0.1316
  429loPI   C1A 6855  10.095   3.064   9.716 -0.0824 -0.0178 -0.1381
  429loPI   C2A 6856  10.121   3.319   9.372  0.0413  0.0917 -0.1281
  429loPI   C3A 6857  10.233   3.484   8.954  0.0475  0.0119 -0.2342
  429loPI   C4A 6858  10.439   3.588   8.569 -0.2228 -0.0397 -0.1917
  429loPI   C5A 6859  10.497   3.701   8.132  0.0486 -0.0693  0.1133
  429loPI   C6A 6860  10.633   3.838   7.702 -0.2066 -0.1638  0.1109
  429loPI   C1B 6861  10.505   2.789   9.463  0.1539 -0.1065 -0.2925
  429loPI   C2B 6862  10.614   2.684   9.021 -0.4214 -0.0239 -0.1763
  429loPI   C3B 6863  10.693   2.582   8.516  0.2026 -0.2776 -0.1967
  429loPI   C4B 6864  10.785   2.366   8.177  0.1440  0.0753 -0.1216
  430loPI    C1 6865   4.727  12.394  10.481  0.3624  0.0531  0.1596
  430loPI    C2 6866   4.589  12.484  10.846  0.0766 -0.0727  0.0854
  430loPI    C3 6867   4.865  12.198  10.801 -0.0038 -0.1675  0.1886
  430loPI   PO4 6868   4.478  12.418  10.343 -0.2428 -0.1430  0.2595
  430loPI   GL1 6869   4.481  12.193   9.888  0.0038 -0.1467  0.2457
  430loPI   GL2 6870   4.832  12.264   9.918  0.0199 -0.2000 -0.0810
  430loPI   C1A 6871   4.470  12.424   9.561  0.0321  0.1617  0.1618
  430loPI   C2A 6872   4.638  12.417   9.188  0.1835  0.1211 -0.2720
  430loPI   C3A 6873   4.777  12.370   8.722 -0.3698  0.0931  0.1898
  430loPI   C4A 6874   4.799  12.299   8.226  0.0253 -0.1295  0.3008
  430loPI   C5A 6875   5.038  12.271   7.825 -0.0736 -0.1054 -0.2482
  430loPI   C6A 6876   5.402  12.320   7.535 -0.1100 -0.2161 -0.3482
  430loPI   C1B 6877   5.079  12.310   9.493 -0.1467 -0.2097  0.1011
  430loPI   C2B 6878   5.157  12.518   9.051 -0.2887  0.0563 -0.1106
  430loPI   C3B 6879   5.249  12.539   8.618 -0.0481 -0.0307  0.1033
  430loPI   C4B 6880   5.342  12.501   8.213 -0.3684  0.1675 -0.0421
  431loPI    C1 6881   3.419   8.243  10.419 -0.0950 -0.1329 -0.1133
  431loPI    C2 6882   3.055   8.206  10.257 -0.1644  0.1781 -0.0342
  431loPI    C3 6883   3.119   8.087  10.633 -0.1997  0.1796 -0.0278
  431loPI   PO4 6884   3.560   8.309  10.224 -0.0537 -0.0283  0.3384
  431loPI   GL1 6885   3.573   8.254   9.848 -0.2164  0.1490  0.0582
  431loPI   GL2 6886   3.835   8.464   9.854  0.0235 -0.3016 -0.1283
  431loPI   C1A 6887   3.646   8.196   9.476 -0.0121 -0.0217  0.0250
  431loPI   C2A 6888   3.662   8.334   9.045  0.0362 -0.0723 -0.0939
  431loPI   C3A 6889   3.360   8.406   8.758 -0.1625 -0.0969 -0.1762
  431loPI   C4A 6890   3.132   8.177   8.447 -0.1948  0.2649  0.0380
  431loPI   C5A 6891   2.743   8.285   8.217 -0.0184 -0.1091 -0.0403
  431loPI   C6A 6892   2.623   8.407   7.884  0.0233  0.1880 -0.0475
  431loPI   C1B 6893   4.140   8.654   9.474 -0.0072 -0.1126  0.1767
  431loPI   C2B 6894   4.063   8.634   9.082 -0.0706  0.1833  0.2190
  431loPI   C3B 6895   4.259   8.547   8.682  0.0154  0.0101 -0.2522
  431loPI   C4B 6896   4.297   8.515   8.210  0.0517 -0.0487  0.4068
  432loPI    C1 6897  11.819   1.858  10.607  0.0811 -0.1979 -0.1229
  432loPI    C2 6898  11.760   1.518  10.808 -0.1173  0.0233  0.2030
  432loPI    C3 6899  12.101   1.721  10.855  0.0525 -0.1876 -0.0846
  432loPI   PO4 6900  11.780   1.810  10.326 -0.0826 -0.2086 -0.0406
  432loPI   GL1 6901  11.811   1.667  10.013 -0.2594 -0.1032 -0.1652
  432loPI   GL2 6902  11.717   1.888   9.747  0.0531  0.0295  0.2215
  432loPI   C1A 6903  11.867   1.391   9.571  0.0951 -0.2181 -0.1154
  432loPI   C2A 6904  11.959   1.357   9.160  0.0498  0.1069  0.1525
  432loPI   C3A 6905  11.862   1.299   8.852 -0.0591 -0.0947  0.2112
  432loPI   C4A 6906  11.816   1.431   8.517 -0.0869  0.0313 -0.2219
  432loPI   C5A 6907  11.899   1.645   8.138 -0.0395  0.0231 -0.2724
  432loPI   C6A 6908  12.327   1.553   7.816 -0.0863 -0.1352  0.0506
  432loPI   C1B 6909  11.772   1.876   9.332  0.3182  0.1870  0.3212
  432loPI   C2B 6910  11.822   1.868   8.865 -0.0209  0.4525  0.1276
  432loPI   C3B 6911  12.050   1.912   8.506 -0.0164 -0.1151 -0.0654
  432loPI   C4B 6912  12.330   2.061   8.119 -0.2877 -0.0025 -0.1104
  433loPI    C1 6913   2.903   5.329  10.331 -0.0605 -0.1026 -0.2606
  433loPI    C2 6914   3.286   5.221  10.292 -0.0483 -0.2651  0.2323
  433loPI    C3 6915   3.106   5.190  10.647 -0.4470  0.0566  0.0658
  433loPI   PO4 6916   2.896   5.434  10.093  0.0966  0.3517 -0.1711
  433loPI   GL1 6917   3.042   5.309   9.636  0.3091  0.0076  0.0242
  433loPI   GL2 6918   3.352   5.511   9.434  0.0069 -0.1204  0.1046
  433loPI   C1A 6919   2.771   5.341   9.258 -0.0712  0.1464  0.4734
  433loPI   C2A 6920   2.630   5.412   8.853 -0.2191  0.0548  0.2045
  433loPI   C3A 6921   2.675   5.341   8.382 -0.0453 -0.1235  0.0528
  433loPI   C4A 6922   2.625   5.165   8.012 -0.2956 -0.3525  0.0571
  433loPI   C5A 6923   2.298   4.949   7.802  0.2195 -0.0882  0.1593
  433loPI   C6A 6924   1.879   4.972   8.037 -0.3841 -0.1118  0.1194
  433loPI   C1B 6925   3.039   5.820   9.341 -0.0486 -0.2722 -0.0313
  433loPI   C2B 6926   2.825   5.832   8.978 -0.0800 -0.0632 -0.1363
  433loPI   C3B 6927   2.678   5.993   8.535 -0.1701  0.1266  0.1410
  433loPI   C4B 6928   2.627   6.283   8.156 -0.1339  0.2105 -0.3468
  434loPI    C1 6929   0.454   3.334  10.161  0.1718  0.0316 -0.1569
  434loPI    C2 6930   0.827   3.454  10.076  0.3115 -0.2138  0.0952
  434loPI    C3 6931   0.664   3.541  10.431  0.1869 -0.2441  0.0460
  434loPI   PO4 6932   0.327   3.365  10.013  0.1172 -0.1746 -0.2003
  434loPI   GL1 6933   0.244   3.091   9.694 -0.1168 -0.1717  0.2816
  434loPI   GL2 6934  -0.052   3.003   9.782  0.1588  0.0189 -0.1719
  434loPI   C1A 6935   0.254   3.213   9.187 -0.1304  0.3799 -0.0628
  434loPI   C2A 6936   0.137   3.284   8.760  0.2630 -0.1947  0.1026
  434loPI   C3A 6937   0.294   3.428   8.340 -0.5120 -0.1336 -0.2409
  434loPI   C4A 6938   0.381   3.467   7.848  0.0564  0.0612 -0.3283
  434loPI   C5A 6939   0.015   3.437   7.502  0.1848 -0.0130  0.2016
  434loPI   C6A 6940  -0.473   3.420   7.421 -0.0399 -0.1871 -0.0120
  434loPI   C1B 6941  -0.234   3.203   9.418 -0.1813  0.1935  0.3717
  434loPI   C2B 6942  -0.301   3.295   8.996 -0.2190  0.1051 -0.1429
  434loPI   C3B 6943  -0.464   3.334   8.690  0.1718  0.2884  0.0294
  434loPI   C4B 6944  -0.619   3.449   8.293 -0.1432  0.2876 -0.0253
  435loPI    C1 6945  13.026  17.921  10.319 -0.0710  0.1429 -0.2005
  435loPI    C2 6946  12.985  18.206  10.596  0.0076  0.0605 -0.1036
  435loPI    C3 6947  12.696  17.934  10.544 -0.1469  0.2619 -0.3171
  435loPI   PO4 6948  13.144  18.078  10.131 -0.1698 -0.2333 -0.0185
  435loPI   GL1 6949  13.012  18.271   9.764  0.0712 -0.3044  0.2721
  435loPI   GL2 6950  13.302  18.294   9.550 -0.1046  0.1938 -0.0781
  435loPI   C1A 6951  12.766  18.494   9.395 -0.0781 -0.1965 -0.2827
  435loPI   C2A 6952  12.824  18.719   9.055 -0.1820  0.0048 -0.0623
  435loPI   C3A 6953  12.843  19.045   8.822  0.1700 -0.0496 -0.0077
  435loPI   C4A 6954  13.017  19.260   8.385 -0.0048 -0.1810  0.0503
  435loPI   C5A 6955  13.213  19.560   8.163 -0.1116 -0.0931 -0.1276
  435loPI   C6A 6956  13.631  19.736   8.207 -0.1100  0.0949 -0.0482
  435loPI   C1B 6957  13.156  18.126   9.300  0.1033  0.1531  0.0032
  435loPI   C2B 6958  12.904  18.219   8.877 -0.1428 -0.3440  0.0850
  435loPI   C3B 6959  12.967  18.407   8.557 -0.2028 -0.0171  0.1480
  435loPI   C4B 6960  12.969  18.750   8.285 -0.0151  0.0583  0.1260
  436loPI    C1 6961  14.580   0.030  10.224 -0.0318  0.0030 -0.2051
  436loPI    C2 6962  14.524   0.242  10.558  0.0607 -0.0817 -0.1353
  436loPI    C3 6963  14.230   0.212  10.288 -0.0902 -0.1902  0.0387
  436loPI   PO4 6964  14.849   0.124  10.062 -0.0332 -0.0138 -0.0989
  436loPI   GL1 6965  15.077   0.076   9.706 -0.4077 -0.0381  0.1544
  436loPI   GL2 6966  14.896  -0.286   9.802 -0.2250 -0.1533  0.2152
  436loPI   C1A 6967  14.980   0.081   9.307  0.2154 -0.1369  0.3876
  436loPI   C2A 6968  14.972   0.129   8.897  0.0710  0.1830 -0.0327
  436loPI   C3A 6969  14.950  -0.099   8.585  0.4773 -0.1992  0.2481
  436loPI   C4A 6970  14.881  -0.372   8.248 -0.1345 -0.4949  0.0720
  436loPI   C5A 6971  14.990  -0.827   8.047  0.2623  0.1189  0.0201
  436loPI   C6A 6972  15.236  -1.222   7.904 -0.0725  0.2811 -0.2956
  436loPI   C1B 6973  15.011  -0.407   9.340 -0.1194 -0.1466 -0.2327
  436loPI   C2B 6974  14.896  -0.406   8.996 -0.2445  0.0788  0.0503
  436loPI   C3B 6975  14.804  -0.733   8.572  0.2233 -0.0730  0.0238
  436loPI   C4B 6976  14.616  -1.099   8.295 -0.1512 -0.1099  0.1303
  437loPI    C1 6977   7.173   1.281  10.198 -0.0825  0.3150 -0.1570
  437loPI    C2 6978   6.796   1.411  10.226 -0.1922 -0.0342  0.0409
  437loPI    C3 6979   7.040   1.437  10.541 -0.0338  0.2330 -0.1005
  437loPI   PO4 6980   7.333   1.382   9.962  0.0453 -0.3537 -0.2911
  437loPI   GL1 6981   7.279   1.193   9.494  0.2079 -0.0260  0.0177
  437loPI   GL2 6982   7.053   0.976   9.667  0.3853 -0.2249 -0.1089
  437loPI   C1A 6983   7.218   1.082   9.051  0.3311  0.1028  0.1641
  437loPI   C2A 6984   7.277   0.902   8.610  0.3382 -0.1521 -0.0671
  437loPI   C3A 6985   7.476   0.949   8.219 -0.0054 -0.0298 -0.0343
  437loPI   C4A 6986   7.307   1.128   7.906 -0.0127 -0.0389  0.2935
  437loPI   C5A 6987   7.270   1.536   7.879  0.0392 -0.3478  0.2246
  437loPI   C6A 6988   7.617   1.912   7.703  0.2842 -0.2417 -0.1004
  437loPI   C1B 6989   7.034   0.678   9.278 -0.0029 -0.0107  0.0697
  437loPI   C2B 6990   6.939   0.665   8.819 -0.1232 -0.2144 -0.1056
  437loPI   C3B 6991   6.977   0.484   8.413  0.0641  0.1128 -0.0531
  437loPI   C4B 6992   7.082   0.589   8.048  0.0344  0.2177 -0.0726
  438loPI    C1 6993   2.355  15.820  10.075  0.2619 -0.1506  0.0873
  438loPI    C2 6994   2.529  16.180  10.076 -0.0364 -0.0025 -0.0977
  438loPI    C3 6995   2.399  16.019  10.419  0.0804  0.0739 -0.0168
  438loPI   PO4 6996   2.457  15.652  10.033 -0.2333  0.0777 -0.1246
  438loPI   GL1 6997   2.683  15.495   9.717  0.0490 -0.4328 -0.0990
  438loPI   GL2 6998   2.467  15.180   9.723 -0.3268  0.3749 -0.2088
  438loPI   C1A 6999   2.667  15.517   9.322  0.1980 -0.1671 -0.1304
  438loPI   C2A 7000   2.658  15.379   8.955 -0.1714  0.1327  0.2851
  438loPI   C3A 7001   2.714  15.303   8.485  0.0208 -0.0772 -0.0480
  438loPI   C4A 7002   2.464  15.338   8.124  0.0005  0.3006  0.0901
  438loPI   C5A 7003   2.217  15.103   7.913 -0.3310 -0.1038  0.4114
  438loPI   C6A 7004   2.106  14.739   7.982  0.2073 -0.0551 -0.1789
  438loPI   C1B 7005   2.509  15.023   9.257  0.0629 -0.4549  0.0062
  438loPI   C2B 7006   2.521  14.908   8.816 -0.1843 -0.3022  0.0711
  438loPI   C3B 7007   2.583  14.849   8.382  0.3143  0.0232 -0.3459
  438loPI   C4B 7008   2.645  14.508   8.064 -0.0162  0.2584  0.1018
  439loPI    C1 7009   0.990  12.105  10.534  0.0400 -0.2134  0.1343
  439loPI    C2 7010   0.736  12.191  10.830  0.1149 -0.2103  0.1981
  439loPI    C3 7011   0.929  11.841  10.829  0.0898 -0.2240  0.1354
  439loPI   PO4 7012   0.866  12.313  10.279  0.0340 -0.3762 -0.1835
  439loPI   GL1 7013   0.593  12.199   9.981  0.2033 -0.2066  0.1364
  439loPI   GL2 7014   0.622  12.528   9.954  0.0617 -0.0100 -0.1204
  439loPI   C1A 7015   0.448  12.181   9.532  0.1268  0.1384  0.1043
  439loPI   C2A 7016   0.417  12.010   9.118 -0.1944  0.2427 -0.1845
  439loPI   C3A 7017   0.308  12.078   8.725  0.1760 -0.0492  0.0122
  439loPI   C4A 7018   0.031  12.102   8.374  0.1125 -0.1457 -0.2020
  439loPI   C5A 7019  -0.340  12.158   8.277  0.4282 -0.0648 -0.0601
  439loPI   C6A 7020  -0.663  11.916   8.161  0.2129 -0.0527  0.0130
  439loPI   C1B 7021   0.560  12.829   9.590  0.3386 -0.3091  0.2399
  439loPI   C2B 7022   0.470  12.869   9.151 -0.2480  0.0131 -0.0014
  439loPI   C3B 7023   0.215  12.975   8.763 -0.3802 -0.1800  0.2878
  439loPI   C4B 7024  -0.232  12.954   8.774 -0.0622 -0.0780  0.3101
  440loPI    C1 7025   0.622   1.077  10.284  0.1192  0.2457 -0.1657
  440loPI    C2 7026   0.808   1.135  10.633  0.0726  0.0191 -0.1012
  440loPI    C3 7027   0.851   0.788  10.439  0.0219  0.1085 -0.2745
  440loPI   PO4 7028   0.604   1.238  10.053  0.0367  0.1458 -0.1130
  440loPI   GL1 7029   0.374   1.537   9.870  0.0374  0.2313  0.2239
  440loPI   GL2 7030   0.719   1.405   9.583 -0.0262 -0.0611 -0.0152
  440loPI   C1A 7031   0.054   1.328   9.666  0.0601  0.0706 -0.0287
  440loPI   C2A 7032   0.119   1.197   9.228  0.2192 -0.3387 -0.1693
  440loPI   C3A 7033   0.155   1.198   8.805 -0.0360  0.3053  0.0648
  440loPI   C4A 7034   0.148   1.161   8.436 -0.1383  0.2649  0.0621
  440loPI   C5A 7035   0.218   0.757   8.245  0.2107  0.2419 -0.1875
  440loPI   C6A 7036   0.251   0.405   7.898 -0.3256  0.0142  0.1262
  440loPI   C1B 7037   0.493   1.579   9.254 -0.0193 -0.0934 -0.1430
  440loPI   C2B 7038   0.536   1.907   8.890  0.2580 -0.2126  0.1035
  440loPI   C3B 7039   0.731   2.220   8.646  0.0296  0.0397  0.1883
  440loPI   C4B 7040   0.697   2.483   8.357 -0.0132 -0.3526  0.1641
  441loPI    C1 7041  14.707   1.016  10.294  0.1070 -0.0116  0.1405
  441loPI    C2 7042  14.355   1.098  10.466  0.1077  0.0628  0.1071
  441loPI    C3 7043  14.438   0.725  10.348  0.0015  0.0640  0.0280
  441loPI   PO4 7044  14.722   1.204  10.105 -0.2717 -0.2377 -0.0095
  441loPI   GL1 7045  14.762   1.369   9.755 -0.1848 -0.0500 -0.0946
  441loPI   GL2 7046  14.557   1.435   9.626  0.0793  0.1082  0.1914
  441loPI   C1A 7047  14.960   1.548   9.367  0.0565  0.3358 -0.1755
  441loPI   C2A 7048  14.765   1.654   9.024 -0.0920  0.1279 -0.0593
  441loPI   C3A 7049  14.676   2.028   8.777  0.0840 -0.0635  0.0658
  441loPI   C4A 7050  14.669   2.157   8.331  0.0252  0.1124 -0.1606
  441loPI   C5A 7051  14.964   2.245   8.056 -0.1359  0.1582 -0.0681
  441loPI   C6A 7052  15.082   1.963   7.660  0.0691  0.2764 -0.0479
  441loPI   C1B 7053  14.375   1.374   9.288  0.3584 -0.0258  0.0997
  441loPI   C2B 7054  14.380   1.464   8.824 -0.0500  0.3142 -0.0754
  441loPI   C3B 7055  14.471   1.636   8.388 -0.0282  0.1168 -0.3774
  441loPI   C4B 7056  14.691   1.785   7.984  0.1594 -0.0116  0.1140
  442loPI    C1 7057  13.850   4.091  10.349 -0.1055  0.2863 -0.3549
  442loPI    C2 7058  13.736   4.446  10.495  0.0943  0.0984  0.2938
  442loPI    C3 7059  13.543   4.113  10.604  0.1777 -0.0403  0.0275
  442loPI   PO4 7060  13.973   4.153  10.151 -0.2500 -0.1152  0.1914
  442loPI   GL1 7061  14.018   4.195   9.697  0.2604 -0.0620 -0.1512
  442loPI   GL2 7062  14.315   4.147   9.607 -0.0177 -0.6780 -0.2639
  442loPI   C1A 7063  13.635   4.386   9.476  0.0279  0.4344  0.0139
  442loPI   C2A 7064  13.514   4.341   9.037 -0.2212 -0.0867 -0.0278
  442loPI   C3A 7065  13.585   4.421   8.564 -0.0512  0.1257  0.2115
  442loPI   C4A 7066  13.585   4.618   8.226  0.3782 -0.1744 -0.0029
  442loPI   C5A 7067  13.611   5.072   8.052 -0.2759  0.2136 -0.2985
  442loPI   C6A 7068  13.248   5.344   7.817  0.0289  0.1181 -0.0314
  442loPI   C1B 7069  14.688   4.122   9.451  0.1830  0.2884 -0.1629
  442loPI   C2B 7070  14.886   4.038   9.048 -0.0718 -0.1088  0.0535
  442loPI   C3B 7071  14.968   3.994   8.694  0.3271  0.2604  0.3211
  442loPI   C4B 7072  14.840   3.618   8.341  0.0491  0.2090  0.0726
  443loPI    C1 7073   9.393   2.096  10.485 -0.0203 -0.0725  0.1967
  443loPI    C2 7074   9.464   2.189  10.867  0.2389 -0.0461  0.1441
  443loPI    C3 7075   9.095   2.225  10.718  0.1373 -0.0504  0.3890
  443loPI   PO4 7076   9.563   2.241  10.347  0.0031  0.1047 -0.0939
  443loPI   GL1 7077   9.890   2.125  10.081 -0.2046  0.2629  0.3408
  443loPI   GL2 7078  10.104   2.386  10.162  0.1794 -0.0621  0.1730
  443loPI   C1A 7079  10.009   2.133   9.578  0.2055  0.0729  0.1366
  443loPI   C2A 7080  10.059   2.288   9.191 -0.0886 -0.1823  0.1427
  443loPI   C3A 7081  10.236   2.435   8.760 -0.1096 -0.3544 -0.1215
  443loPI   C4A 7082  10.231   2.679   8.439 -0.3400 -0.2905  0.0508
  443loPI   C5A 7083  10.345   2.670   8.068  0.4264  0.1769  0.3705
  443loPI   C6A 7084  10.080   2.737   7.760  0.2753 -0.0568  0.1729
  443loPI   C1B 7085   9.920   2.572   9.823 -0.1178 -0.2419  0.1427
  443loPI   C2B 7086  10.010   2.780   9.326 -0.0613 -0.0146 -0.0423
  443loPI   C3B 7087  10.170   2.944   8.982  0.1707 -0.0967  0.0810
  443loPI   C4B 7088  10.068   3.154   8.576  0.0567  0.2377 -0.1832
  444loPI    C1 7089   5.779  13.172  10.464 -0.0876  0.0121  0.0160
  444loPI    C2 7090   5.541  13.379  10.710 -0.0931  0.2444 -0.1810
  444loPI    C3 7091   5.905  13.264  10.832 -0.3108 -0.1369  0.1318
  444loPI   PO4 7092   5.797  13.332  10.247  0.1121  0.1465  0.3490
  444loPI   GL1 7093   5.762  13.614   9.977 -0.2748  0.1531  0.1888
  444loPI   GL2 7094   5.883  13.954  10.058  0.0196 -0.0546  0.2917
  444loPI   C1A 7095   5.621  13.555   9.548 -0.0317  0.3619  0.0242
  444loPI   C2A 7096   5.730  13.723   9.204  0.1128  0.2818  0.0449
  444loPI   C3A 7097   5.762  13.785   8.822  0.1215 -0.2426  0.0314
  444loPI   C4A 7098   5.863  13.811   8.420 -0.2342  0.2203 -0.0268
  444loPI   C5A 7099   6.218  13.813   8.129  0.1499  0.0119 -0.1141
  444loPI   C6A 7100   6.531  14.084   8.064  0.0164  0.0270 -0.2670
  444loPI   C1B 7101   5.566  14.038   9.708  0.0571  0.0997 -0.1066
  444loPI   C2B 7102   5.196  14.176   9.462 -0.0233  0.0453  0.0622
  444loPI   C3B 7103   5.298  14.122   9.030  0.1329 -0.1009 -0.0361
  444loPI   C4B 7104   5.400  14.033   8.593  0.0813  0.0527 -0.1257
  445loPI    C1 7105   4.727  17.321  10.259 -0.2323  0.2076 -0.0004
  445loPI    C2 7106   4.355  17.345  10.403 -0.1498  0.1071  0.2346
  445loPI    C3 7107   4.645  17.571  10.560 -0.0709  0.0414  0.1845
  445loPI   PO4 7108   4.693  17.412  10.012  0.1655 -0.0513  0.2397
  445loPI   GL1 7109   4.390  17.460   9.702 -0.0236  0.1005  0.0832
  445loPI   GL2 7110   4.540  17.689   9.595 -0.2912  0.2563  0.0014
  445loPI   C1A 7111   4.588  17.129   9.507 -0.0457 -0.1419  0.0660
  445loPI   C2A 7112   4.842  17.015   9.253  0.0487 -0.1073 -0.5227
  445loPI   C3A 7113   5.002  17.103   8.848  0.2553 -0.3913 -0.2223
  445loPI   C4A 7114   4.931  17.124   8.393 -0.4401 -0.1792 -0.1210
  445loPI   C5A 7115   4.969  17.159   7.889 -0.1356 -0.2033 -0.1540
  445loPI   C6A 7116   5.174  16.935   7.651  0.0984  0.1329  0.2149
  445loPI   C1B 7117   4.566  17.754   9.104  0.3282  0.0458  0.1755
  445loPI   C2B 7118   4.522  17.997   8.749  0.4094 -0.0561 -0.1726
  445loPI   C3B 7119   4.622  17.973   8.320  0.1581  0.2662 -0.0473
  445loPI   C4B 7120   4.551  17.874   7.897  0.1813 -0.1094  0.0982
  446loPI    C1 7121   1.490  17.045  10.300 -0.1220 -0.1170 -0.1623
  446loPI    C2 7122   1.785  16.842  10.478 -0.2280 -0.1864 -0.0639
  446loPI    C3 7123   1.545  17.077  10.695 -0.0036  0.1778 -0.2002
  446loPI   PO4 7124   1.542  16.984  10.007  0.1290  0.1583 -0.0989
  446loPI   GL1 7125   1.427  16.748   9.686  0.0879 -0.3098 -0.2294
  446loPI   GL2 7126   1.255  16.564   9.502  0.1679 -0.0498 -0.1178
  446loPI   C1A 7127   1.528  17.054   9.254  0.0271 -0.1041  0.1768
  446loPI   C2A 7128   1.685  17.043   8.762  0.1949 -0.1540 -0.2188
  446loPI   C3A 7129   1.757  16.950   8.260  0.0921 -0.1946  0.0167
  446loPI   C4A 7130   2.051  16.925   7.828  0.1074 -0.1030 -0.0407
  446loPI   C5A 7131   2.371  16.732   7.569  0.2664 -0.1099 -0.5194
  446loPI   C6A 7132   2.754  16.519   7.374  0.0563 -0.2437 -0.0353
  446loPI   C1B 7133   1.027  16.828   9.220 -0.3827 -0.2063  0.2630
  446loPI   C2B 7134   0.963  16.907   8.756 -0.1135 -0.0778 -0.0755
  446loPI   C3B 7135   0.848  17.021   8.395  0.1872  0.1113 -0.0242
  446loPI   C4B 7136   0.981  17.171   8.054  0.0324 -0.0126 -0.1994
  447loPI    C1 7137  12.448  10.867  10.245  0.2769 -0.1734  0.0843
  447loPI    C2 7138  12.564  11.132  10.522  0.1711 -0.1528  0.1093
  447loPI    C3 7139  12.435  10.770  10.633  0.0944 -0.1316  0.0891
  447loPI   PO4 7140  12.262  11.001  10.099 -0.0058  0.0222  0.1006
  447loPI   GL1 7141  12.058  10.896   9.752  0.1758  0.3302  0.1440
  447loPI   GL2 7142  11.993  10.634   9.881  0.4361 -0.1876  0.1980
  447loPI   C1A 7143  11.958  10.744   9.272  0.2281 -0.0122 -0.1643
  447loPI   C2A 7144  11.984  10.796   8.849 -0.0376 -0.0226 -0.2230
  447loPI   C3A 7145  11.991  10.848   8.470  0.0154 -0.2583 -0.2962
  447loPI   C4A 7146  11.776  11.061   8.082 -0.0680  0.0990  0.1604
  447loPI   C5A 7147  11.947  11.216   7.590  0.0368  0.1462 -0.2124
  447loPI   C6A 7148  12.084  11.182   7.225 -0.1191  0.1557 -0.0332
  447loPI   C1B 7149  12.125  10.364   9.571  0.0370 -0.0454 -0.0527
  447loPI   C2B 7150  12.203  10.372   9.037  0.0897 -0.1819 -0.0178
  447loPI   C3B 7151  12.256  10.386   8.643  0.0747  0.0414 -0.0736
  447loPI   C4B 7152  12.418  10.351   8.217 -0.1473  0.1284  0.1936
  448loPI    C1 7153   1.185  13.120  10.664 -0.1080  0.1089 -0.0908
  448loPI    C2 7154   1.105  13.512  10.663 -0.1219  0.1079  0.1371
  448loPI    C3 7155   1.206  13.329  11.004 -0.0764 -0.0797  0.0245
  448loPI   PO4 7156   1.312  13.021  10.448 -0.1270  0.0558  0.0781
  448loPI   GL1 7157   1.305  12.938  10.064 -0.0317 -0.0907  0.0929
  448loPI   GL2 7158   1.127  12.591  10.047 -0.2532  0.2408  0.3235
  448loPI   C1A 7159   1.429  12.813   9.664 -0.2224  0.1371  0.2868
  448loPI   C2A 7160   1.405  12.789   9.241  0.0634  0.0521 -0.0780
  448loPI   C3A 7161   1.532  12.928   8.869 -0.0909 -0.0213 -0.0520
  448loPI   C4A 7162   1.670  12.620   8.484  0.3474 -0.0167 -0.0281
  448loPI   C5A 7163   1.849  12.564   8.034 -0.1160 -0.0337  0.1079
  448loPI   C6A 7164   1.820  12.137   7.793  0.0019  0.3026  0.0183
  448loPI   C1B 7165   0.986  12.600   9.596  0.3779  0.3275  0.1856
  448loPI   C2B 7166   0.766  12.490   9.255 -0.1207  0.0876  0.1665
  448loPI   C3B 7167   0.637  12.412   8.891  0.1362  0.1353 -0.0485
  448loPI   C4B 7168   0.534  12.633   8.504 -0.0417 -0.0953  0.0543
  449loPI    C1 7169   1.758   1.911  10.243  0.0844  0.0798 -0.0899
  449loPI    C2 7170   1.696   2.118  10.580 -0.0061 -0.1783  0.0543
  449loPI    C3 7171   1.996   1.855  10.559  0.0637 -0.0878 -0.1035
  449loPI   PO4 7172   1.672   2.060  10.054 -0.1432 -0.0947  0.2262
  449loPI   GL1 7173   1.909   2.088   9.598 -0.0228 -0.2080  0.0904
  449loPI   GL2 7174   1.920   2.435   9.712  0.0068 -0.0279 -0.0568
  449loPI   C1A 7175   2.056   1.859   9.246 -0.0237 -0.6044  0.0972
  449loPI   C2A 7176   2.099   1.938   8.890  0.2014  0.0089 -0.1165
  449loPI   C3A 7177   1.933   1.994   8.489 -0.2463  0.1745 -0.0317
  449loPI   C4A 7178   1.625   2.124   8.289 -0.2035  0.0339 -0.0640
  449loPI   C5A 7179   1.473   2.359   7.875 -0.1851  0.1307  0.1384
  449loPI   C6A 7180   1.570   2.693   7.718  0.1801 -0.0554 -0.0357
  449loPI   C1B 7181   1.851   2.399   9.195 -0.2444  0.2177  0.0918
  449loPI   C2B 7182   1.751   2.394   8.702 -0.0671 -0.3526  0.1942
  449loPI   C3B 7183   1.808   2.605   8.243 -0.1646  0.2154 -0.5922
  449loPI   C4B 7184   2.080   2.690   7.940  0.3264  0.2110  0.0571
  450loPI    C1 7185  13.156  14.094   9.953 -0.2259  0.0043  0.0381
  450loPI    C2 7186  13.103  13.710   9.855 -0.1394 -0.0026  0.0175
  450loPI    C3 7187  12.903  13.995   9.659  0.0109 -0.0185 -0.1618
  450loPI   PO4 7188  13.443  14.146   9.990  0.2885 -0.2460 -0.4681
  450loPI   GL1 7189  13.687  14.350   9.652  0.6167  0.0878 -0.0195
  450loPI   GL2 7190  13.952  14.360   9.781 -0.0862  0.1412 -0.0093
  450loPI   C1A 7191  13.530  14.317   9.245 -0.0797 -0.1528 -0.0030
  450loPI   C2A 7192  13.485  14.317   8.808  0.2785  0.2599 -0.0670
  450loPI   C3A 7193  13.883  14.373   8.508 -0.0381 -0.0114  0.2837
  450loPI   C4A 7194  14.085  14.261   8.061 -0.0081 -0.0556  0.0509
  450loPI   C5A 7195  14.048  13.808   7.916  0.0983 -0.3756  0.3051
  450loPI   C6A 7196  14.269  13.483   8.129 -0.0397  0.1025  0.0964
  450loPI   C1B 7197  13.991  14.681   9.467  0.3188  0.1095  0.1149
  450loPI   C2B 7198  14.066  14.948   9.056 -0.0763 -0.1252 -0.0864
  450loPI   C3B 7199  13.886  15.173   8.693 -0.0900  0.2767  0.1120
  450loPI   C4B 7200  13.729  14.997   8.336  0.2684  0.0560 -0.0056
  451loPI    C1 7201   5.750   2.963  10.071  0.0109  0.1074 -0.0076
  451loPI    C2 7202   5.781   3.341  10.199 -0.1314  0.1375 -0.0600
  451loPI    C3 7203   5.621   3.062  10.436  0.0624  0.0888  0.0158
  451loPI   PO4 7204   5.675   2.993   9.845  0.2054  0.4756 -0.1147
  451loPI   GL1 7205   5.724   3.085   9.487  0.1706  0.0232 -0.0184
  451loPI   GL2 7206   5.852   3.185   9.331 -0.0326  0.3360  0.0608
  451loPI   C1A 7207   5.595   2.715   9.262 -0.0504 -0.1720  0.2646
  451loPI   C2A 7208   5.615   2.615   8.828  0.0041  0.0659  0.0207
  451loPI   C3A 7209   5.585   2.459   8.459  0.3148  0.0058  0.0419
  451loPI   C4A 7210   5.504   2.378   8.024  0.0596  0.1836 -0.1630
  451loPI   C5A 7211   5.430   2.485   7.535 -0.1231  0.4270 -0.1246
  451loPI   C6A 7212   5.413   2.725   7.196 -0.1123 -0.3168 -0.2626
  451loPI   C1B 7213   5.823   3.079   8.930 -0.2015 -0.2465  0.0713
  451loPI   C2B 7214   5.823   3.196   8.478 -0.2585 -0.0084  0.0345
  451loPI   C3B 7215   5.770   3.241   8.088  0.0182 -0.0154 -0.0241
  451loPI   C4B 7216   5.909   3.341   7.605  0.1772  0.0586 -0.3029
  452loPI    C1 7217   5.989   5.057   9.445  0.0088  0.1445  0.0502
  452loPI    C2 7218   6.196   4.970   9.775  0.1898  0.1698 -0.0556
  452loPI    C3 7219   5.802   5.033   9.797  0.1924  0.1204  0.1468
  452loPI   PO4 7220   6.112   4.956   9.296  0.0137 -0.0084 -0.0553
  452loPI   GL1 7221   6.490   5.008   9.094  0.2221 -0.1693 -0.1676
  452loPI   GL2 7222   6.289   5.216   8.918  0.2346  0.0688 -0.1384
  452loPI   C1A 7223   6.725   4.790   8.767 -0.0570 -0.0924 -0.1860
  452loPI   C2A 7224   6.936   4.812   8.349 -0.1027  0.2262  0.0540
  452loPI   C3A 7225   6.970   4.928   7.983 -0.2009  0.2479  0.3805
  452loPI   C4A 7226   7.159   5.288   7.855  0.1097 -0.4126  0.1379
  452loPI   C5A 7227   7.577   5.338   7.717 -0.1002  0.0875  0.1902
  452loPI   C6A 7228   7.916   5.284   7.647 -0.2074 -0.1301 -0.1994
  452loPI   C1B 7229   6.300   5.032   8.457 -0.2388  0.1172 -0.0788
  452loPI   C2B 7230   6.204   4.715   8.169  0.0228  0.3557 -0.1145
  452loPI   C3B 7231   5.856   4.431   7.929 -0.2988 -0.0077 -0.4005
  452loPI   C4B 7232   5.513   4.248   7.790 -0.0800 -0.0127  0.0861
  453loPI    C1 7233  17.334   4.938  10.261  0.1824 -0.2645 -0.0623
  453loPI    C2 7234  17.729   4.895  10.310  0.1887 -0.1606 -0.0208
  453loPI    C3 7235  17.478   4.781  10.600  0.1977 -0.0641  0.0254
  453loPI   PO4 7236  17.274   5.128  10.170  0.2741 -0.1610  0.1874
  453loPI   GL1 7237  17.138   5.169   9.827 -0.0029 -0.0936 -0.0860
  453loPI   GL2 7238  17.150   5.357   9.617 -0.0566 -0.0327 -0.0180
  453loPI   C1A 7239  17.182   4.804   9.667  0.0144 -0.1883 -0.1594
  453loPI   C2A 7240  17.040   4.729   9.262 -0.0262  0.0483 -0.0973
  453loPI   C3A 7241  17.266   4.674   8.884  0.1012  0.0581  0.0233
  453loPI   C4A 7242  17.217   4.677   8.510  0.2023  0.0116 -0.0504
  453loPI   C5A 7243  17.136   4.743   8.060 -0.0712  0.0671  0.0069
  453loPI   C6A 7244  17.157   4.919   7.760 -0.2121 -0.1037  0.3135
  453loPI   C1B 7245  16.989   5.260   9.265  0.2131 -0.1324 -0.0767
  453loPI   C2B 7246  17.107   5.133   8.875  0.1634  0.1937 -0.3620
  453loPI   C3B 7247  17.015   5.226   8.414 -0.0408 -0.1564  0.1603
  453loPI   C4B 7248  16.797   5.170   7.963  0.1773  0.0271 -0.0837
  454loPI    C1 7249  18.009  15.588  10.110 -0.1645 -0.2451 -0.2267
  454loPI    C2 7250  17.987  15.722  10.486  0.0527 -0.1736 -0.2381
  454loPI    C3 7251  17.991  15.328  10.414 -0.2843 -0.1892 -0.1857
  454loPI   PO4 7252  18.164  15.766   9.952 -0.0568 -0.0398 -0.1133
  454loPI   GL1 7253  18.093  15.879   9.577  0.0213  0.0286  0.0712
  454loPI   GL2 7254  18.272  16.041   9.433 -0.1785 -0.1153 -0.1641
  454loPI   C1A 7255  17.942  15.710   9.211  0.2940 -0.1167  0.4349
  454loPI   C2A 7256  17.925  15.443   8.887  0.0779 -0.2467  0.0845
  454loPI   C3A 7257  17.693  15.214   8.671  0.1385 -0.0574  0.0213
  454loPI   C4A 7258  17.314  15.265   8.581 -0.2379  0.0681  0.0903
  454loPI   C5A 7259  16.996  15.420   8.237  0.0925  0.1078 -0.2005
  454loPI   C6A 7260  16.584  15.674   8.173 -0.0150  0.0040  0.0643
  454loPI   C1B 7261  18.185  16.302   9.141 -0.0269 -0.0686  0.0443
  454loPI   C2B 7262  18.092  16.454   8.750  0.2178  0.2806 -0.0621
  454loPI   C3B 7263  17.816  16.230   8.381  0.2542 -0.4982 -0.0172
  454loPI   C4B 7264  17.673  15.984   8.056 -0.1414 -0.1953  0.1237
  455loPI    C1 7265   2.833  17.498  10.145  0.1702  0.3504 -0.1079
  455loPI    C2 7266   2.457  17.510  10.008  0.1361  0.2601 -0.0233
  455loPI    C3 7267   2.553  17.262  10.306  0.3122  0.1221 -0.1926
  455loPI   PO4 7268   2.976  17.521   9.955  0.1363 -0.1037 -0.0545
  455loPI   GL1 7269   3.138  17.674   9.491  0.0372 -0.0497 -0.2165
  455loPI   GL2 7270   3.196  17.309   9.510  0.0590  0.0449 -0.1156
  455loPI   C1A 7271   3.125  17.841   9.055 -0.0152  0.2383  0.0631
  455loPI   C2A 7272   2.946  17.715   8.684 -0.2319 -0.0950 -0.0269
  455loPI   C3A 7273   2.854  17.714   8.277 -0.0836  0.0829 -0.1075
  455loPI   C4A 7274   2.739  17.725   7.953 -0.0054  0.1458 -0.2906
  455loPI   C5A 7275   2.903  17.633   7.583  0.2209  0.0980  0.2358
  455loPI   C6A 7276   2.949  17.332   7.246  0.2091  0.0543 -0.1844
  455loPI   C1B 7277   3.242  17.323   9.034  0.0468 -0.1004 -0.2167
  455loPI   C2B 7278   3.140  17.279   8.476  0.2067 -0.0449 -0.2158
  455loPI   C3B 7279   3.002  17.222   8.036 -0.0493 -0.0708 -0.2670
  455loPI   C4B 7280   3.233  17.258   7.623  0.0198  0.2332 -0.0989
  456loPI    C1 7281  15.742   4.509  10.475 -0.0898 -0.1391 -0.2963
  456loPI    C2 7282  15.586   4.787  10.717  0.2512  0.1068 -0.3511
  456loPI    C3 7283  15.557   4.400  10.813 -0.0337  0.1719 -0.1613
  456loPI   PO4 7284  15.918   4.626  10.257  0.1817 -0.2607  0.0281
  456loPI   GL1 7285  15.843   4.414   9.872  0.2095  0.3614 -0.1602
  456loPI   GL2 7286  15.493   4.507   9.780  0.0984  0.4200 -0.1390
  456loPI   C1A 7287  16.018   4.498   9.471 -0.0626 -0.1989  0.4712
  456loPI   C2A 7288  16.179   4.645   9.066  0.2252  0.0645  0.0148
  456loPI   C3A 7289  16.237   4.731   8.666  0.1873  0.1779 -0.0756
  456loPI   C4A 7290  16.239   4.875   8.299 -0.3794  0.0675 -0.0942
  456loPI   C5A 7291  16.237   5.105   8.002  0.1923 -0.3652 -0.0852
  456loPI   C6A 7292  16.383   5.461   7.847 -0.4360 -0.1308 -0.2120
  456loPI   C1B 7293  15.604   4.750   9.544  0.0995 -0.0482 -0.1748
  456loPI   C2B 7294  15.862   4.935   9.356  0.0224  0.1317 -0.1163
  456loPI   C3B 7295  16.257   4.977   9.482  0.0503 -0.1994  0.0895
  456loPI   C4B 7296  16.607   4.922   9.145 -0.0568 -0.1930 -0.2580
  457loPI    C1 7297   8.220  15.896  10.329  0.0065  0.0112  0.1256
  457loPI    C2 7298   7.974  15.607  10.456  0.0545 -0.1600 -0.1618
  457loPI    C3 7299   8.252  15.756  10.702 -0.2698 -0.0316  0.1353
  457loPI   PO4 7300   8.393  15.801  10.069  0.1337 -0.1242  0.1224
  457loPI   GL1 7301   8.507  15.787   9.723  0.1165 -0.0600 -0.0562
  457loPI   GL2 7302   8.736  15.489   9.723 -0.3900  0.0321 -0.2327
  457loPI   C1A 7303   8.521  15.769   9.240  0.1377  0.0360  0.0606
  457loPI   C2A 7304   8.573  15.770   8.822  0.1860  0.0618  0.2169
  457loPI   C3A 7305   8.609  15.909   8.393  0.0796 -0.0730 -0.2975
  457loPI   C4A 7306   8.367  15.962   7.994 -0.0202  0.0494 -0.0236
  457loPI   C5A 7307   8.429  16.400   7.791  0.0878 -0.1739  0.0090
  457loPI   C6A 7308   8.759  16.700   7.879 -0.1198 -0.2292  0.3067
  457loPI   C1B 7309   8.836  15.296   9.323  0.0564 -0.2597 -0.1719
  457loPI   C2B 7310   8.888  15.342   8.849  0.2061  0.0162  0.2298
  457loPI   C3B 7311   8.999  15.583   8.483  0.3447 -0.1398  0.0979
  457loPI   C4B 7312   9.038  15.747   8.100 -0.1458 -0.0809  0.2801
  458loPI    C1 7313   4.667   2.440  10.509 -0.0123  0.1390 -0.0793
  458loPI    C2 7314   5.000   2.618  10.642  0.1784 -0.2874  0.0350
  458loPI    C3 7315   4.659   2.650  10.849  0.0489  0.4376 -0.2590
  458loPI   PO4 7316   4.730   2.483  10.248 -0.4052 -0.0157  0.2755
  458loPI   GL1 7317   4.623   2.497   9.684  0.3118 -0.1679  0.0509
  458loPI   GL2 7318   4.422   2.560   9.431  0.0253 -0.3620 -0.0200
  458loPI   C1A 7319   4.999   2.202   9.475  0.0469 -0.1188  0.2103
  458loPI   C2A 7320   5.213   1.986   9.205  0.0823 -0.0196 -0.1772
  458loPI   C3A 7321   5.121   1.607   8.896 -0.0228  0.1323 -0.2587
  458loPI   C4A 7322   5.335   1.585   8.469 -0.0558  0.0837  0.3459
  458loPI   C5A 7323   5.474   1.654   8.123  0.0380  0.1697 -0.0074
  458loPI   C6A 7324   5.431   1.708   7.656  0.2448 -0.2491  0.0199
  458loPI   C1B 7325   4.689   2.505   9.082 -0.1381 -0.1976 -0.0415
  458loPI   C2B 7326   4.853   2.102   8.880  0.0039  0.3919  0.1494
  458loPI   C3B 7327   5.150   2.040   8.608 -0.0076  0.1489  0.1440
  458loPI   C4B 7328   5.199   2.031   8.253 -0.1364 -0.1498  0.0083
  459loPI    C1 7329  18.220  11.143  10.606 -0.0206  0.0277  0.2166
  459loPI    C2 7330  18.162  10.757  10.516 -0.1764  0.0634  0.1599
  459loPI    C3 7331  17.849  11.005  10.541 -0.0768  0.1856  0.2001
  459loPI   PO4 7332  18.390  11.207  10.490  0.1817 -0.0082 -0.2671
  459loPI   GL1 7333  18.582  10.994  10.149 -0.2755  0.0405  0.0508
  459loPI   GL2 7334  18.641  11.381   9.967  0.2129 -0.0154  0.2724
  459loPI   C1A 7335  18.329  10.853   9.736  0.2644 -0.0900 -0.3612
  459loPI   C2A 7336  18.310  10.841   9.322  0.2034  0.2011  0.0092
  459loPI   C3A 7337  18.267  10.808   8.891 -0.4972  0.0323 -0.0374
  459loPI   C4A 7338  18.004  10.749   8.485  0.2558  0.1137 -0.3836
  459loPI   C5A 7339  17.892  10.743   8.029  0.2364  0.1964 -0.0720
  459loPI   C6A 7340  17.710  10.567   7.654 -0.1963 -0.2075  0.0276
  459loPI   C1B 7341  18.981  11.119   9.769  0.0956 -0.0094  0.2837
  459loPI   C2B 7342  19.155  11.020   9.338 -0.0612 -0.0703  0.2646
  459loPI   C3B 7343  19.146  11.091   8.967  0.0986  0.1391 -0.0653
  459loPI   C4B 7344  18.990  11.176   8.536 -0.0404  0.1103  0.1256
  460loPI    C1 7345   1.976  12.185  10.642  0.1097 -0.0670 -0.0106
  460loPI    C2 7346   2.340  12.335  10.715  0.0551  0.0871 -0.0521
  460loPI    C3 7347   2.064  12.332  11.004 -0.0289  0.3155 -0.1273
  460loPI   PO4 7348   1.947  12.107  10.337  0.2480  0.0337  0.0221
  460loPI   GL1 7349   1.689  11.959   9.987  0.1739 -0.0722  0.1914
  460loPI   GL2 7350   1.528  11.821   9.786 -0.2996  0.3300  0.3074
  460loPI   C1A 7351   1.523  12.296   9.700  0.0133 -0.1841  0.0891
  460loPI   C2A 7352   1.316  12.250   9.272  0.0255  0.0941 -0.2466
  460loPI   C3A 7353   1.213  12.475   8.884  0.0852  0.2635  0.3211
  460loPI   C4A 7354   1.129  12.669   8.466  0.1013 -0.0832  0.3442
  460loPI   C5A 7355   1.368  12.790   8.132 -0.2261  0.0074 -0.0500
  460loPI   C6A 7356   1.548  13.044   7.846  0.3873  0.2034  0.0035
  460loPI   C1B 7357   1.321  11.773   9.370  0.2231  0.0139  0.4083
  460loPI   C2B 7358   1.381  11.614   8.938  0.2617  0.0131 -0.0534
  460loPI   C3B 7359   1.345  11.677   8.501 -0.1185 -0.1287  0.1714
  460loPI   C4B 7360   1.336  11.626   8.078 -0.0160  0.0018  0.0414
  461loPI    C1 7361   6.836   5.652   9.896  0.1346  0.1417 -0.1273
  461loPI    C2 7362   6.733   5.874   9.580 -0.2541  0.4184  0.1832
  461loPI    C3 7363   6.976   6.026   9.859  0.3194  0.0754 -0.1101
  461loPI   PO4 7364   6.933   5.449   9.827  0.0060  0.1714  0.0297
  461loPI   GL1 7365   7.035   5.411   9.381 -0.1394 -0.0389  0.3329
  461loPI   GL2 7366   7.037   5.139   9.184  0.0681 -0.1472 -0.2289
  461loPI   C1A 7367   7.193   5.641   8.970  0.3104  0.1305 -0.0429
  461loPI   C2A 7368   7.275   5.469   8.532 -0.0939  0.1547 -0.0577
  461loPI   C3A 7369   7.227   5.571   8.283 -0.0676  0.0061  0.4271
  461loPI   C4A 7370   7.269   5.899   7.942 -0.0297 -0.0428 -0.2813
  461loPI   C5A 7371   7.340   5.782   7.527  0.0081  0.0625  0.0404
  461loPI   C6A 7372   7.124   5.750   7.191 -0.1666  0.1407 -0.0958
  461loPI   C1B 7373   7.178   5.013   8.808  0.1833 -0.1249  0.0177
  461loPI   C2B 7374   7.432   4.994   8.431  0.5015 -0.1329 -0.0518
  461loPI   C3B 7375   7.467   4.904   8.035 -0.1350 -0.0952  0.0307
  461loPI   C4B 7376   7.363   4.931   7.632  0.0581 -0.0094  0.2893
  462loPI    C1 7377   9.134   7.867  10.533 -0.0440 -0.0511 -0.1875
  462loPI    C2 7378   8.768   7.711  10.491 -0.1166  0.0748 -0.0340
  462loPI    C3 7379   8.825   8.027  10.730  0.1101 -0.0058  0.0219
  462loPI   PO4 7380   9.244   7.898  10.270  0.3367 -0.2282  0.0817
  462loPI   GL1 7381   9.168   7.894   9.741 -0.0204  0.0311  0.0029
  462loPI   GL2 7382   8.948   8.245   9.644  0.1773  0.0606  0.0746
  462loPI   C1A 7383   9.201   7.734   9.282  0.1344  0.1068 -0.0766
  462loPI   C2A 7384   9.140   7.804   8.861  0.1639 -0.2153 -0.1929
  462loPI   C3A 7385   9.167   7.614   8.448  0.2475 -0.0393 -0.0970
  462loPI   C4A 7386   9.409   7.628   8.079 -0.3765 -0.2803 -0.0072
  462loPI   C5A 7387   9.419   7.848   7.727 -0.0691  0.1576 -0.3472
  462loPI   C6A 7388   9.140   7.868   7.309  0.3742 -0.0807 -0.2739
  462loPI   C1B 7389   8.944   8.184   9.216  0.0360  0.1020  0.1174
  462loPI   C2B 7390   8.948   8.433   8.765  0.2305 -0.1553 -0.1481
  462loPI   C3B 7391   9.206   8.654   8.384  0.1696  0.0811 -0.1523
  462loPI   C4B 7392   9.375   8.658   8.008 -0.3777  0.1174 -0.0140
  463loPI    C1 7393  10.391   2.066  10.478  0.0759  0.0963 -0.0316
  463loPI    C2 7394  10.670   1.813  10.613  0.1426  0.1710 -0.0288
  463loPI    C3 7395  10.288   1.769  10.725  0.1563  0.0801 -0.0175
  463loPI   PO4 7396  10.328   1.955  10.211  0.0764  0.2087  0.1657
  463loPI   GL1 7397  10.393   1.916   9.760 -0.0515  0.0945  0.0812
  463loPI   GL2 7398  10.541   2.287   9.798  0.2255 -0.1899 -0.3115
  463loPI   C1A 7399  10.226   1.783   9.386  0.1751  0.2939 -0.1652
  463loPI   C2A 7400  10.177   1.841   8.926 -0.4287 -0.0705 -0.1502
  463loPI   C3A 7401   9.955   2.020   8.697  0.0717 -0.1466 -0.0432
  463loPI   C4A 7402   9.877   2.305   8.441  0.0510 -0.0775  0.0016
  463loPI   C5A 7403   9.909   2.349   8.052 -0.3083  0.0520 -0.0291
  463loPI   C6A 7404   9.876   2.258   7.634 -0.1799  0.0409  0.0466
  463loPI   C1B 7405  10.478   2.239   9.394  0.1966  0.2153  0.0252
  463loPI   C2B 7406  10.614   2.097   9.057 -0.1141 -0.1047 -0.0174
  463loPI   C3B 7407  10.604   2.140   8.652 -0.0892 -0.1583 -0.2568
  463loPI   C4B 7408  10.360   2.178   8.331 -0.0096 -0.0278  0.1489
  464loPI    C1 7409   5.239   0.313  10.456  0.0556  0.4571  0.0212
  464loPI    C2 7410   4.863   0.241  10.339  0.1110  0.0796  0.0637
  464loPI    C3 7411   4.933   0.430  10.685 -0.0390  0.2109  0.0231
  464loPI   PO4 7412   5.408   0.323  10.127 -0.0202  0.0145 -0.1747
  464loPI   GL1 7413   5.353   0.115   9.734  0.0652  0.0580  0.0941
  464loPI   GL2 7414   5.052   0.181   9.862 -0.0726  0.2825  0.0094
  464loPI   C1A 7415   5.472   0.403   9.389  0.1258 -0.1886  0.4088
  464loPI   C2A 7416   5.642   0.429   8.974 -0.1575 -0.3015 -0.3747
  464loPI   C3A 7417   5.588   0.548   8.617  0.1572 -0.3169  0.2295
  464loPI   C4A 7418   5.596   0.297   8.276 -0.1325  0.1966  0.2071
  464loPI   C5A 7419   5.429  -0.055   7.913 -0.2355  0.1694  0.1238
  464loPI   C6A 7420   5.338  -0.392   7.698  0.0122  0.0902 -0.2011
  464loPI   C1B 7421   5.033   0.290   9.435  0.0955 -0.2172  0.0057
  464loPI   C2B 7422   5.084   0.252   9.002 -0.2296 -0.2803  0.0645
  464loPI   C3B 7423   5.222   0.233   8.581  0.2510  0.2755 -0.1778
  464loPI   C4B 7424   5.295  -0.158   8.362 -0.4093 -0.3891  0.0095
  465loPI    C1 7425  15.282   6.950  10.144 -0.0848 -0.0839  0.1149
  465loPI    C2 7426  15.374   6.762  10.485  0.0956 -0.0617  0.0796
  465loPI    C3 7427  15.578   7.087  10.375 -0.1666  0.1147  0.1040
  465loPI   PO4 7428  15.281   6.727   9.968  0.0363  0.0989  0.2164
  465loPI   GL1 7429  15.003   6.591   9.724 -0.2852  0.1733  0.1706
  465loPI   GL2 7430  15.100   6.269   9.752 -0.0886 -0.0750  0.0780
  465loPI   C1A 7431  14.691   6.426   9.528  0.2834 -0.1243  0.2134
  465loPI   C2A 7432  14.520   6.260   9.182  0.1822  0.0562  0.1565
  465loPI   C3A 7433  14.451   6.351   8.743  0.2324  0.0533 -0.0863
  465loPI   C4A 7434  14.447   6.438   8.245 -0.1893  0.3512  0.1754
  465loPI   C5A 7435  14.270   6.247   7.843 -0.3416  0.2707  0.2977
  465loPI   C6A 7436  14.019   5.890   7.869  0.2572 -0.2116  0.1078
  465loPI   C1B 7437  15.120   6.327   9.295  0.3399 -0.1995 -0.1017
  465loPI   C2B 7438  15.272   6.548   8.945  0.1917  0.0990 -0.1107
  465loPI   C3B 7439  15.121   6.904   8.863 -0.0723 -0.0412  0.0456
  465loPI   C4B 7440  14.911   7.213   8.985  0.0828  0.3096 -0.0583
  466loPI    C1 7441  15.181   3.548  10.349 -0.2353  0.0528  0.2093
  466loPI    C2 7442  15.502   3.554  10.588  0.0613 -0.0363 -0.1762
  466loPI    C3 7443  15.341   3.205  10.478  0.0107 -0.0004 -0.2168
  466loPI   PO4 7444  15.252   3.692  10.177 -0.2144  0.0473 -0.0682
  466loPI   GL1 7445  15.306   3.597   9.659 -0.2081 -0.0434 -0.1819
  466loPI   GL2 7446  14.960   3.746   9.616  0.1297  0.0153 -0.2320
  466loPI   C1A 7447  15.523   3.566   9.273 -0.0347  0.2957  0.2992
  466loPI   C2A 7448  15.756   3.784   8.843 -0.3127 -0.3483 -0.1328
  466loPI   C3A 7449  15.915   4.244   8.759 -0.0180 -0.0802 -0.0775
  466loPI   C4A 7450  15.986   4.451   8.332 -0.2405 -0.1828 -0.2248
  466loPI   C5A 7451  15.748   4.888   8.088 -0.0155  0.0457 -0.0003
  466loPI   C6A 7452  15.736   5.286   8.138 -0.0854  0.1034 -0.2563
  466loPI   C1B 7453  14.948   3.574   9.303  0.2626 -0.0295 -0.0213
  466loPI   C2B 7454  14.748   3.580   8.945  0.0352  0.1451  0.2475
  466loPI   C3B 7455  14.487   3.792   8.621 -0.3327 -0.1119 -0.1053
  466loPI   C4B 7456  14.130   3.880   8.344 -0.1420  0.0297  0.0751
  467loPI    C1 7457  11.095   0.319  10.428 -0.1167  0.0891 -0.0436
  467loPI    C2 7458  11.180   0.591  10.709 -0.1330 -0.0024  0.0501
  467loPI    C3 7459  11.331   0.221  10.735 -0.0286  0.0261 -0.1306
  467loPI   PO4 7460  10.954   0.456  10.275  0.0185  0.4108 -0.0072
  467loPI   GL1 7461  10.898   0.543   9.946 -0.0028  0.0436 -0.2253
  467loPI   GL2 7462  10.610   0.268   9.846  0.2390 -0.2509  0.0925
  467loPI   C1A 7463  11.171   0.369   9.617 -0.4467 -0.3403 -0.3216
  467loPI   C2A 7464  11.457   0.478   9.306  0.1807 -0.1504  0.0725
  467loPI   C3A 7465  11.509   0.607   8.900  0.1978 -0.0468 -0.1779
  467loPI   C4A 7466  11.618   0.579   8.483  0.0500  0.0974 -0.2064
  467loPI   C5A 7467  11.504   0.412   8.017  0.2311 -0.1217  0.0383
  467loPI   C6A 7468  11.391   0.043   7.805 -0.2823 -0.0325  0.2154
  467loPI   C1B 7469  10.660   0.363   9.517 -0.0919  0.0495 -0.0005
  467loPI   C2B 7470  10.611   0.379   9.126 -0.0355 -0.1051 -0.0158
  467loPI   C3B 7471  10.560   0.401   8.781  0.1698  0.1252 -0.0182
  467loPI   C4B 7472  10.751   0.366   8.396 -0.2586  0.4987  0.0535
  468loPI    C1 7473   9.851  10.555  10.410 -0.0061  0.1334  0.2194
  468loPI    C2 7474  10.181  10.335  10.357  0.0962  0.3080  0.1239
  468loPI    C3 7475   9.941  10.264  10.669  0.0666 -0.0134  0.0315
  468loPI   PO4 7476   9.841  10.801  10.227  0.1406 -0.1612  0.0055
  468loPI   GL1 7477   9.603  10.994  10.007 -0.1359  0.0286 -0.0785
  468loPI   GL2 7478   9.738  11.242   9.842 -0.1633  0.0657  0.1416
  468loPI   C1A 7479   9.417  10.944   9.587  0.0533 -0.1279 -0.0141
  468loPI   C2A 7480   9.500  10.937   9.196  0.3441 -0.0054 -0.0431
  468loPI   C3A 7481   9.520  11.069   8.747  0.1297 -0.0755  0.3514
  468loPI   C4A 7482   9.655  10.794   8.430 -0.0643 -0.0182 -0.3542
  468loPI   C5A 7483   9.784  10.720   7.964 -0.3394 -0.2449  0.3354
  468loPI   C6A 7484  10.076  10.853   7.704  0.3119  0.2749  0.1618
  468loPI   C1B 7485  10.031  11.112   9.502  0.0735 -0.1036  0.1556
  468loPI   C2B 7486  10.023  11.107   9.120 -0.1945 -0.0906  0.0414
  468loPI   C3B 7487  10.035  11.039   8.674 -0.0863  0.0670 -0.0865
  468loPI   C4B 7488  10.111  11.101   8.197 -0.0115  0.0582  0.0067
  469loPI    C1 7489   3.570   5.275   9.770  0.0347  0.1182  0.0012
  469loPI    C2 7490   3.715   5.388  10.125 -0.0341 -0.0981  0.1000
  469loPI    C3 7491   3.411   5.588   9.961 -0.2627 -0.2340  0.3496
  469loPI   PO4 7492   3.486   5.018   9.863 -0.1975  0.1084 -0.3204
  469loPI   GL1 7493   3.321   4.717   9.567 -0.0711 -0.1822  0.3089
  469loPI   GL2 7494   3.309   4.991   9.332 -0.0843 -0.0126  0.1202
  469loPI   C1A 7495   3.418   4.475   9.221 -0.1284  0.1987 -0.1041
  469loPI   C2A 7496   3.798   4.215   8.993  0.1251 -0.0628 -0.4804
  469loPI   C3A 7497   3.753   4.060   8.638  0.3549  0.0752 -0.2235
  469loPI   C4A 7498   3.564   3.930   8.239 -0.1992  0.0417  0.1210
  469loPI   C5A 7499   3.452   3.881   7.856  0.0195  0.0095  0.0307
  469loPI   C6A 7500   3.185   3.892   7.508 -0.3049  0.0987 -0.2129
  469loPI   C1B 7501   3.566   4.956   9.008  0.0072  0.0506  0.1833
  469loPI   C2B 7502   3.682   5.006   8.586  0.4339  0.1649 -0.2270
  469loPI   C3B 7503   3.457   5.019   8.266  0.3509 -0.0204  0.6833
  469loPI   C4B 7504   3.181   4.838   8.135  0.2692 -0.2075  0.3092
  470loPI    C1 7505  11.703  13.308  10.206 -0.1272  0.1287 -0.2917
  470loPI    C2 7506  11.426  13.429  10.469  0.0266 -0.1503  0.0057
  470loPI    C3 7507  11.808  13.538  10.516  0.0438 -0.1429 -0.1442
  470loPI   PO4 7508  11.549  13.323  10.014  0.0158  0.2671 -0.1069
  470loPI   GL1 7509  11.563  13.136   9.612  0.0684 -0.0887 -0.1071
  470loPI   GL2 7510  11.815  12.894   9.682 -0.0440  0.1757  0.0631
  470loPI   C1A 7511  11.526  12.944   9.228  0.2259 -0.0692  0.2180
  470loPI   C2A 7512  11.515  12.768   8.779 -0.2120 -0.0050  0.2532
  470loPI   C3A 7513  11.461  12.688   8.329 -0.2111  0.3015  0.0300
  470loPI   C4A 7514  11.311  12.426   7.946 -0.0681 -0.0721  0.1150
  470loPI   C5A 7515  10.952  12.720   7.688 -0.0838 -0.1443 -0.2160
  470loPI   C6A 7516  10.563  12.711   7.467 -0.1976  0.0476 -0.0956
  470loPI   C1B 7517  12.039  12.744   9.347 -0.0484 -0.0979  0.0546
  470loPI   C2B 7518  12.207  12.681   8.951 -0.0817 -0.0991  0.1617
  470loPI   C3B 7519  12.339  12.594   8.706  0.2898 -0.0605 -0.4373
  470loPI   C4B 7520  12.332  12.487   8.248  0.2546  0.1706 -0.0954
  471loPI    C1 7521   6.302   5.474   9.996 -0.1112 -0.0487 -0.0984
  471loPI    C2 7522   6.440   5.845  10.054  0.1263 -0.1503 -0.0005
  471loPI    C3 7523   6.525   5.556  10.317 -0.2272 -0.2308  0.0311
  471loPI   PO4 7524   6.361   5.463   9.692  0.1769  0.1561 -0.0327
  471loPI   GL1 7525   6.256   5.777   9.409  0.0780  0.2460 -0.1080
  471loPI   GL2 7526   6.112   5.574   9.268  0.4694 -0.2994  0.0624
  471loPI   C1A 7527   6.394   6.164   9.222  0.0512  0.2758  0.3781
  471loPI   C2A 7528   6.841   6.092   9.114 -0.0324  0.0874 -0.1863
  471loPI   C3A 7529   6.914   5.955   8.636 -0.1422  0.1427  0.3593
  471loPI   C4A 7530   6.869   5.864   8.230 -0.0804 -0.0534  0.0605
  471loPI   C5A 7531   6.790   5.690   7.873 -0.0423 -0.1785  0.2257
  471loPI   C6A 7532   6.777   5.429   7.605 -0.0337  0.0917  0.2740
  471loPI   C1B 7533   6.273   5.804   8.902  0.2250 -0.1056  0.0711
  471loPI   C2B 7534   6.406   5.842   8.544 -0.0815 -0.2619  0.0601
  471loPI   C3B 7535   6.400   5.896   8.081 -0.3098  0.4635 -0.1888
  471loPI   C4B 7536   6.293   6.221   7.829 -0.1744  0.3115 -0.1941
  472loPI    C1 7537  14.654   7.525  10.202  0.0278 -0.0284  0.0561
  472loPI    C2 7538  14.511   7.856  10.027 -0.1826 -0.1779 -0.0597
  472loPI    C3 7539  14.483   7.811  10.424  0.2805  0.1548  0.0194
  472loPI   PO4 7540  14.808   7.441  10.048 -0.0493 -0.0874 -0.2656
  472loPI   GL1 7541  15.007   7.294   9.831  0.0728 -0.2061  0.2110
  472loPI   GL2 7542  15.190   7.089   9.660  0.3071  0.4657  0.2567
  472loPI   C1A 7543  14.952   7.405   9.398  0.2194 -0.0586  0.1354
  472loPI   C2A 7544  14.900   7.696   9.023 -0.0175 -0.0220 -0.0712
  472loPI   C3A 7545  15.026   7.777   8.626 -0.0625 -0.1471 -0.2973
  472loPI   C4A 7546  14.962   7.796   8.173  0.2103 -0.0774  0.0060
  472loPI   C5A 7547  15.152   7.649   7.883 -0.2429  0.0736  0.1901
  472loPI   C6A 7548  15.309   7.269   7.786  0.2145 -0.4858 -0.0457
  472loPI   C1B 7549  15.444   6.884   9.384 -0.1389 -0.0003 -0.1419
  472loPI   C2B 7550  15.636   7.002   8.986 -0.0605  0.1636  0.1254
  472loPI   C3B 7551  15.685   7.119   8.600 -0.0125 -0.2686 -0.1361
  472loPI   C4B 7552  15.872   7.279   8.186  0.1062 -0.0775  0.0366
  473loPI    C1 7553   3.821   7.320  10.471  0.0434 -0.1846  0.0300
  473loPI    C2 7554   3.794   6.921  10.448  0.0565 -0.1896  0.0995
  473loPI    C3 7555   3.551   7.125  10.692  0.0316 -0.1525  0.0438
  473loPI   PO4 7556   3.907   7.395  10.264 -0.1763 -0.0514 -0.0676
  473loPI   GL1 7557   3.802   7.677   9.931 -0.1383  0.2732  0.4865
  473loPI   GL2 7558   3.959   7.905   9.957  0.0880  0.0750 -0.0156
  473loPI   C1A 7559   3.834   7.614   9.414 -0.2840  0.4273  0.1874
  473loPI   C2A 7560   3.722   7.465   9.070  0.0589  0.1317 -0.2589
  473loPI   C3A 7561   3.560   7.342   8.730 -0.0087  0.3075 -0.4058
  473loPI   C4A 7562   3.359   7.500   8.350 -0.0206  0.0416 -0.1478
  473loPI   C5A 7563   2.934   7.730   8.378 -0.0458 -0.1057 -0.0268
  473loPI   C6A 7564   2.616   7.883   7.977 -0.0939  0.1468 -0.2368
  473loPI   C1B 7565   4.089   8.086   9.660 -0.0349  0.0976 -0.1264
  473loPI   C2B 7566   4.010   8.012   9.154  0.2368 -0.1921  0.0409
  473loPI   C3B 7567   4.071   8.134   8.748  0.1515  0.2447 -0.1373
  473loPI   C4B 7568   3.825   8.280   8.415 -0.0640 -0.2016  0.0370
  474POPI    C1 7569  13.312  15.663   9.776 -0.0793  0.1055 -0.0894
  474POPI    C2 7570  13.315  15.947  10.057 -0.1064  0.0444 -0.0269
  474POPI    C3 7571  13.653  15.851   9.866 -0.1167  0.1878 -0.1191
  474POPI   PO4 7572  12.981  15.690   9.809 -0.2639  0.0937 -0.0612
  474POPI   GL1 7573  12.551  15.599   9.580 -0.1213 -0.0197  0.0437
  474POPI   GL2 7574  12.835  15.842   9.388  0.1847 -0.0790  0.2249
  474POPI   C1A 7575  12.466  15.621   9.078 -0.2427 -0.3151  0.2363
  474POPI   D2A 7576  12.682  15.943   8.746 -0.3228 -0.0859 -0.1054
  474POPI   C3A 7577  12.412  16.126   8.393 -0.1996 -0.0677 -0.2450
  474POPI   C4A 7578  12.590  16.310   7.988  0.1235  0.2073 -0.2179
  474POPI   C1B 7579  13.259  15.632   9.196 -0.3031 -0.1887 -0.2750
  474POPI   C2B 7580  13.595  15.647   8.794  0.1986  0.1396  0.1822
  474POPI   C3B 7581  13.927  15.805   8.566  0.0653  0.3003 -0.3138
  474POPI   C4B 7582  14.298  15.845   8.204  0.5259 -0.1503 -0.1849
  475POPI    C1 7583  10.376   1.158  10.181 -0.2428 -0.0994  0.2980
  475POPI    C2 7584  10.225   1.501  10.321 -0.0391  0.1986 -0.1846
  475POPI    C3 7585  10.571   1.360  10.465 -0.1501  0.1639  0.0524
  475POPI   PO4 7586  10.274   1.174   9.985  0.0926  0.2812  0.1368
  475POPI   GL1 7587  10.294   1.401   9.603 -0.2703 -0.2486 -0.2925
  475POPI   GL2 7588  10.627   1.542   9.514 -0.0953  0.0471  0.1560
  475POPI   C1A 7589  10.090   1.378   9.132  0.0611 -0.0559  0.0528
  475POPI   D2A 7590  10.210   1.199   8.756  0.2756 -0.2153 -0.2762
  475POPI   C3A 7591  10.104   1.105   8.352  0.0239 -0.0588  0.2071
  475POPI   C4A 7592  10.108   1.129   7.961  0.1200 -0.1424 -0.1904
  475POPI   C1B 7593  10.596   1.488   9.068  0.3132  0.1370  0.0879
  475POPI   C2B 7594  10.501   1.592   8.668  0.0934  0.4797  0.1719
  475POPI   C3B 7595  10.579   1.333   8.277  0.0713  0.2557  0.0096
  475POPI   C4B 7596  10.528   1.348   7.868  0.2296  0.0894  0.1645
  476POPI    C1 7597  17.613   7.449  10.803 -0.3912  0.2284 -0.1052
  476POPI    C2 7598  17.728   7.679  11.110 -0.1690  0.0067 -0.0191
  476POPI    C3 7599  17.521   7.344  11.178 -0.1964  0.0033 -0.1181
  476POPI   PO4 7600  17.585   7.610  10.589 -0.1150  0.0655 -0.0576
  476POPI   GL1 7601  17.728   7.596  10.111 -0.0458  0.0692  0.0342
  476POPI   GL2 7602  17.564   7.434   9.901  0.0203  0.0178  0.0518
  476POPI   C1A 7603  17.719   8.078   9.851 -0.1401  0.1068  0.4459
  476POPI   D2A 7604  17.888   8.425   9.644 -0.1370 -0.1069 -0.0522
  476POPI   C3A 7605  18.282   8.435   9.478 -0.3351 -0.0108 -0.0128
  476POPI   C4A 7606  18.578   8.554   9.082 -0.1014 -0.0065 -0.1684
  476POPI   C1B 7607  17.749   7.630   9.560  0.0092 -0.2574 -0.2341
  476POPI   C2B 7608  17.819   7.585   9.130  0.0724  0.0794 -0.1785
  476POPI   C3B 7609  18.008   7.378   8.814  0.2034  0.1918  0.0653
  476POPI   C4B 7610  18.309   7.241   8.479  0.3302 -0.2042 -0.1982
  477POPI    C1 7611  12.901   5.113  10.235  0.2927  0.0312 -0.0017
  477POPI    C2 7612  13.218   5.307  10.384  0.3166 -0.1493  0.1884
  477POPI    C3 7613  13.049   5.010  10.592  0.1403 -0.1825  0.0021
  477POPI   PO4 7614  13.037   4.990   9.998 -0.4074  0.3181 -0.3125
  477POPI   GL1 7615  13.346   4.854   9.767  0.1139 -0.0208  0.0633
  477POPI   GL2 7616  13.601   4.850   9.613 -0.2075  0.1345 -0.0456
  477POPI   C1A 7617  13.202   4.673   9.387 -0.1553  0.4654 -0.0178
  477POPI   D2A 7618  13.219   4.767   8.957 -0.0365 -0.0347  0.0247
  477POPI   C3A 7619  13.205   4.949   8.568  0.0669 -0.0150 -0.1046
  477POPI   C4A 7620  13.120   5.186   8.221 -0.0498  0.0499 -0.0009
  477POPI   C1B 7621  13.738   4.851   9.156  0.2062 -0.1255 -0.0508
  477POPI   C2B 7622  13.709   4.961   8.685 -0.3351 -0.3157  0.0354
  477POPI   C3B 7623  13.599   5.338   8.560  0.1733  0.4407 -0.1184
  477POPI   C4B 7624  13.896   5.664   8.487 -0.1668  0.0195  0.0600
  478POPI    C1 7625  16.849   8.874  10.260  0.0618 -0.1075 -0.3106
  478POPI    C2 7626  16.863   8.933  10.655 -0.3262  0.1956 -0.3361
  478POPI    C3 7627  16.717   8.591  10.509 -0.0436  0.0214 -0.2182
  478POPI   PO4 7628  17.008   9.003  10.218  0.0430 -0.0496  0.0024
  478POPI   GL1 7629  17.085   9.277   9.755 -0.1880  0.0789 -0.2789
  478POPI   GL2 7630  16.871   9.299   9.670  0.0046  0.2242 -0.2119
  478POPI   C1A 7631  17.301   9.085   9.402 -0.1051 -0.0324 -0.0998
  478POPI   D2A 7632  17.662   9.085   9.100 -0.6901  0.1189  0.1230
  478POPI   C3A 7633  17.699   9.011   8.629 -0.1348  0.2714 -0.0035
  478POPI   C4A 7634  17.696   8.741   8.209  0.1985 -0.2134  0.5071
  478POPI   C1B 7635  16.807   8.973   9.247 -0.2027  0.0053 -0.1692
  478POPI   C2B 7636  16.796   9.070   8.703  0.1035  0.1165 -0.0033
  478POPI   C3B 7637  16.804   9.364   8.411 -0.0469  0.1066  0.3529
  478POPI   C4B 7638  16.973   9.751   8.268  0.2119 -0.0364  0.0778
  479POPI    C1 7639   4.781   3.921   9.860  0.2761 -0.4555  0.0020
  479POPI    C2 7640   4.563   4.118  10.132  0.1436 -0.1604 -0.3109
  479POPI    C3 7641   4.595   3.719  10.151  0.0039 -0.1576  0.0400
  479POPI   PO4 7642   4.645   3.957   9.663 -0.0474  0.1420  0.2756
  479POPI   GL1 7643   4.779   4.195   9.282  0.2879 -0.4445 -0.1146
  479POPI   GL2 7644   4.676   3.929   9.178  0.2445 -0.3947  0.2226
  479POPI   C1A 7645   4.767   4.288   8.810 -0.3068  0.0973  0.0351
  479POPI   D2A 7646   4.740   4.096   8.328 -0.3609 -0.1869  0.1176
  479POPI   C3A 7647   4.587   3.936   8.026  0.2239  0.2493  0.2518
  479POPI   C4A 7648   4.250   3.958   7.742  0.0871  0.0810 -0.0925
  479POPI   C1B 7649   4.637   3.830   8.862 -0.1614  0.0085 -0.0911
  479POPI   C2B 7650   4.551   3.646   8.507  0.0081  0.0824  0.1299
  479POPI   C3B 7651   4.255   3.646   8.209  0.3312 -0.0444  0.1889
  479POPI   C4B 7652   3.878   3.727   7.958 -0.0204 -0.0777  0.0900
  480POPI    C1 7653   4.192   8.590  10.553 -0.0603  0.0338  0.0674
  480POPI    C2 7654   4.079   8.305  10.295 -0.2400  0.2184 -0.0615
  480POPI    C3 7655   4.228   8.204  10.653 -0.0647 -0.0390 -0.2036
  480POPI   PO4 7656   4.424   8.713  10.380  0.3505  0.3773  0.0856
  480POPI   GL1 7657   4.177   8.941  10.035  0.2127  0.0593 -0.2910
  480POPI   GL2 7658   4.335   8.646   9.934  0.2209  0.0551  0.1282
  480POPI   C1A 7659   4.256   9.069   9.667 -0.0133  0.0530  0.1848
  480POPI   D2A 7660   4.262   9.117   9.211 -0.1873 -0.1006 -0.2528
  480POPI   C3A 7661   4.359   9.055   8.854  0.1056  0.1386 -0.1639
  480POPI   C4A 7662   4.518   8.929   8.424 -0.1340 -0.1602 -0.1204
  480POPI   C1B 7663   4.519   8.296   9.620 -0.0497  0.4272 -0.1598
  480POPI   C2B 7664   4.468   8.251   9.147  0.1357  0.3188  0.1024
  480POPI   C3B 7665   4.577   8.040   8.760  0.0382  0.0812  0.0942
  480POPI   C4B 7666   4.398   7.996   8.322  0.0360 -0.0067 -0.0182
  481POPI    C1 7667   1.424  10.126  10.518 -0.2179 -0.0607  0.0502
  481POPI    C2 7668   1.223   9.781  10.498 -0.0719 -0.1518  0.1381
  481POPI    C3 7669   1.459   9.857  10.811  0.1311 -0.1017 -0.0248
  481POPI   PO4 7670   1.258  10.405  10.457 -0.2712 -0.0997 -0.0701
  481POPI   GL1 7671   1.250  10.621  10.059 -0.2032  0.0483 -0.1439
  481POPI   GL2 7672   1.627  10.665  10.097  0.0789 -0.1453 -0.0919
  481POPI   C1A 7673   1.408  10.391   9.741  0.0269  0.0305 -0.0760
  481POPI   D2A 7674   1.266  10.286   9.421 -0.0866  0.0487 -0.2488
  481POPI   C3A 7675   1.229  10.323   8.996 -0.1984 -0.0678 -0.0257
  481POPI   C4A 7676   1.165  10.323   8.623 -0.1012  0.0938  0.0730
  481POPI   C1B 7677   1.661  10.797   9.595 -0.0517  0.2061 -0.0360
  481POPI   C2B 7678   1.600  10.694   9.185 -0.0581 -0.2003 -0.1487
  481POPI   C3B 7679   1.615  10.698   8.817 -0.4899 -0.1060  0.1635
  481POPI   C4B 7680   1.461  10.741   8.346 -0.0890  0.2240 -0.0640
  482POPI    C1 7681   0.338   3.875  10.160 -0.0617  0.2395  0.0538
  482POPI    C2 7682  -0.030   3.775  10.038  0.0157 -0.0274  0.0337
  482POPI    C3 7683   0.109   3.640  10.388  0.1170  0.0231  0.0133
  482POPI   PO4 7684   0.534   3.866   9.914  0.1219  0.1052  0.2250
  482POPI   GL1 7685   0.351   3.642   9.546  0.0145 -0.5016 -0.3056
  482POPI   GL2 7686   0.054   3.647   9.575 -0.0595  0.1008  0.1502
  482POPI   C1A 7687   0.382   3.864   9.172  0.1539 -0.0132  0.4276
  482POPI   D2A 7688   0.222   3.909   8.727  0.1791  0.0757 -0.1195
  482POPI   C3A 7689   0.380   3.940   8.268  0.1141  0.1400 -0.3800
  482POPI   C4A 7690   0.143   3.936   7.936  0.3318  0.3684  0.0139
  482POPI   C1B 7691  -0.135   3.665   9.243  0.2761  0.3303  0.0984
  482POPI   C2B 7692  -0.247   3.737   8.804  0.2429 -0.2114 -0.0770
  482POPI   C3B 7693  -0.109   3.664   8.405  0.1459 -0.2574  0.0842
  482POPI   C4B 7694  -0.177   3.546   7.942 -0.1036  0.1223  0.1854
  483POPI    C1 7695   6.321   4.527   9.510  0.0044  0.1447 -0.3472
  483POPI    C2 7696   6.058   4.455   9.217 -0.2575  0.0210 -0.0864
  483POPI    C3 7697   5.930   4.572   9.577  0.0435 -0.0672  0.0530
  483POPI   PO4 7698   6.553   4.629   9.399  0.1409  0.4471  0.4701
  483POPI   GL1 7699   6.826   4.514   9.211 -0.1719  0.0938  0.2758
  483POPI   GL2 7700   7.109   4.637   9.165 -0.1847  0.0430  0.4068
  483POPI   C1A 7701   6.687   4.244   8.889  0.0657 -0.2053 -0.0240
  483POPI   D2A 7702   6.219   4.147   8.843  0.5222 -0.0238 -0.1438
  483POPI   C3A 7703   6.052   4.279   8.433  0.0527 -0.4137 -0.2263
  483POPI   C4A 7704   6.316   4.178   8.042  0.2106 -0.2109  0.1220
  483POPI   C1B 7705   7.145   4.440   8.767 -0.0544 -0.0043 -0.3232
  483POPI   C2B 7706   7.027   4.286   8.423 -0.2705  0.2218 -0.0987
  483POPI   C3B 7707   7.219   4.459   8.057 -0.4159  0.0036 -0.1260
  483POPI   C4B 7708   7.496   4.419   7.690  0.2125 -0.2149 -0.1145
  484POPI    C1 7709  18.049   7.441  10.524 -0.2743  0.1562  0.0132
  484POPI    C2 7710  18.009   7.072  10.674  0.0512  0.0579 -0.1314
  484POPI    C3 7711  18.101   7.378  10.916 -0.0978  0.0234 -0.0299
  484POPI   PO4 7712  18.113   7.300  10.268  0.0449 -0.1277  0.2790
  484POPI   GL1 7713  17.984   7.139   9.984 -0.2249 -0.2197 -0.1860
  484POPI   GL2 7714  18.099   7.398   9.736  0.0269  0.0804  0.0386
  484POPI   C1A 7715  18.242   6.781   9.771  0.1432 -0.0927 -0.3515
  484POPI   D2A 7716  18.398   6.528   9.469 -0.2255  0.3927 -0.1830
  484POPI   C3A 7717  18.287   6.374   9.053 -0.0031 -0.0239  0.4684
  484POPI   C4A 7718  18.366   6.404   8.574 -0.0111 -0.0747  0.0203
  484POPI   C1B 7719  18.300   7.553   9.350 -0.2537 -0.1242  0.1533
  484POPI   C2B 7720  18.531   7.342   8.930 -0.1192  0.0270 -0.1326
  484POPI   C3B 7721  18.823   7.390   8.560 -0.2285 -0.1498 -0.0641
  484POPI   C4B 7722  19.272   7.307   8.348  0.1515 -0.0020  0.1664
  485POPI    C1 7723   7.305  10.599  10.496 -0.2685 -0.1847  0.1036
  485POPI    C2 7724   7.260  10.941  10.700  0.2270 -0.0359 -0.0214
  485POPI    C3 7725   7.400  10.615  10.884 -0.0176 -0.1082  0.0410
  485POPI   PO4 7726   7.149  10.574  10.320  0.3896 -0.0838  0.0793
  485POPI   GL1 7727   6.765  10.749   9.980  0.0612 -0.1761 -0.0204
  485POPI   GL2 7728   6.518  10.733   9.769 -0.0706 -0.0353  0.0334
  485POPI   C1A 7729   7.023  10.884   9.678  0.0262 -0.2888  0.2164
  485POPI   D2A 7730   7.168  10.816   9.250 -0.0018  0.2708  0.0115
  485POPI   C3A 7731   7.045  10.743   8.868  0.0138 -0.0591 -0.0295
  485POPI   C4A 7732   7.110  10.503   8.508  0.1285  0.0359 -0.0134
  485POPI   C1B 7733   6.660  10.687   9.321 -0.0656  0.1027  0.0020
  485POPI   C2B 7734   6.588  10.485   8.926 -0.2854 -0.2565  0.3165
  485POPI   C3B 7735   6.652  10.369   8.593  0.0614  0.0616  0.2562
  485POPI   C4B 7736   6.711  10.436   8.192  0.2236  0.3001  0.1676
  486POPI    C1 7737  16.461   6.087  10.557 -0.0186 -0.0472 -0.1639
  486POPI    C2 7738  16.631   6.132  10.917  0.1682 -0.1146 -0.2428
  486POPI    C3 7739  16.590   6.447  10.674 -0.1405 -0.0286 -0.0841
  486POPI   PO4 7740  16.598   5.842  10.372 -0.2013  0.2189  0.0456
  486POPI   GL1 7741  16.349   5.836   9.926  0.0618 -0.0344  0.0491
  486POPI   GL2 7742  16.594   6.072   9.744 -0.1193  0.1480  0.1573
  486POPI   C1A 7743  16.385   5.675   9.455 -0.1922 -0.2196 -0.1695
  486POPI   D2A 7744  16.481   5.456   9.170  0.3295  0.1309  0.2087
  486POPI   C3A 7745  16.096   5.315   9.106 -0.0947 -0.3946  0.0650
  486POPI   C4A 7746  15.837   5.074   8.840 -0.0868 -0.1097 -0.0871
  486POPI   C1B 7747  16.709   6.138   9.317 -0.0212 -0.1946 -0.1678
  486POPI   C2B 7748  16.461   5.910   9.037 -0.2034  0.0316 -0.0891
  486POPI   C3B 7749  16.284   5.646   8.696 -0.1359 -0.0868  0.0117
  486POPI   C4B 7750  16.085   5.329   8.443  0.2438 -0.3221  0.1495
  487POPI    C1 7751   3.085   4.122  10.044  0.0383 -0.1028  0.1738
  487POPI    C2 7752   2.936   4.178  10.411  0.0030  0.0283  0.1402
  487POPI    C3 7753   2.847   3.845  10.207 -0.1667  0.0618  0.1582
  487POPI   PO4 7754   2.962   4.421   9.933 -0.1146 -0.2039  0.0031
  487POPI   GL1 7755   2.660   4.652   9.691 -0.3489 -0.1788 -0.1121
  487POPI   GL2 7756   2.370   4.626   9.823  0.1012  0.0538 -0.0576
  487POPI   C1A 7757   2.870   4.845   9.424  0.2443  0.0926 -0.0537
  487POPI   D2A 7758   3.015   4.731   8.971 -0.0093 -0.0134 -0.0532
  487POPI   C3A 7759   3.350   4.662   8.630 -0.4230  0.0885 -0.1126
  487POPI   C4A 7760   3.559   4.413   8.380 -0.1256  0.0780  0.3832
  487POPI   C1B 7761   2.069   4.592   9.507  0.2545  0.1427 -0.1421
  487POPI   C2B 7762   2.046   4.598   9.012  0.1637  0.1232 -0.1938
  487POPI   C3B 7763   2.016   4.860   8.530  0.2099  0.3054 -0.5203
  487POPI   C4B 7764   2.200   5.303   8.273 -0.2129 -0.1765  0.1652
  488POPI    C1 7765   3.760   4.028   9.727 -0.0477 -0.0090  0.1418
  488POPI    C2 7766   3.402   4.202   9.687 -0.0697  0.0120  0.4101
  488POPI    C3 7767   3.735   4.421   9.656 -0.0717 -0.0350  0.0041
  488POPI   PO4 7768   3.704   3.751   9.638 -0.0069 -0.0969 -0.0444
  488POPI   GL1 7769   3.599   3.778   9.182  0.1389  0.2260  0.0993
  488POPI   GL2 7770   3.393   3.964   9.265  0.3215 -0.2130 -0.2219
  488POPI   C1A 7771   3.573   3.602   8.712 -0.0140 -0.1281  0.1010
  488POPI   D2A 7772   3.537   3.384   8.250  0.1556  0.0976 -0.0550
  488POPI   C3A 7773   3.195   3.556   8.111  0.1648 -0.0149  0.2368
  488POPI   C4A 7774   2.990   3.505   7.826 -0.1396 -0.1234  0.1629
  488POPI   C1B 7775   3.324   4.057   8.894 -0.1470  0.2410 -0.0485
  488POPI   C2B 7776   3.136   3.897   8.565 -0.0845  0.0588 -0.0888
  488POPI   C3B 7777   2.817   3.821   8.248  0.0186  0.0565 -0.3640
  488POPI   C4B 7778   2.341   3.805   8.030  0.1229  0.3155  0.0187
  489POPI    C1 7779  12.360  18.288  10.248 -0.0349 -0.0282  0.0350
  489POPI    C2 7780  12.736  18.409  10.188 -0.0966  0.1638  0.0297
  489POPI    C3 7781  12.571  18.442  10.550 -0.1041  0.0665  0.0354
  489POPI   PO4 7782  12.336  18.010  10.202  0.4102  0.2661  0.0893
  489POPI   GL1 7783  12.251  17.704   9.917 -0.0732 -0.1632  0.0898
  489POPI   GL2 7784  12.428  17.388   9.876  0.0361 -0.4269  0.0055
  489POPI   C1A 7785  12.215  17.744   9.401  0.1319 -0.0607 -0.0357
  489POPI   D2A 7786  11.872  17.567   9.138  0.0988 -0.1489  0.2061
  489POPI   C3A 7787  11.967  17.595   8.612  0.0965 -0.2158  0.0202
  489POPI   C4A 7788  12.287  17.766   8.303  0.0075  0.2791 -0.0421
  489POPI   C1B 7789  12.339  17.310   9.512  0.0626 -0.2310 -0.0836
  489POPI   C2B 7790  12.477  17.431   9.120  0.0791  0.0614 -0.0094
  489POPI   C3B 7791  12.505  17.437   8.630  0.2649 -0.2459  0.0441
  489POPI   C4B 7792  12.644  17.395   8.149 -0.2027 -0.1996 -0.1983
  490POPI    C1 7793   8.842   1.820  10.317  0.0169 -0.3110 -0.2866
  490POPI    C2 7794   8.880   1.580  10.636  0.0684 -0.3492 -0.3213
  490POPI    C3 7795   9.169   1.594  10.360  0.1149 -0.1662 -0.2649
  490POPI   PO4 7796   8.570   1.809  10.231 -0.2397  0.4695 -0.4655
  490POPI   GL1 7797   8.394   1.761   9.861  0.2042 -0.2364  0.0534
  490POPI   GL2 7798   8.099   1.795   9.669 -0.2747  0.1847  0.0807
  490POPI   C1A 7799   8.799   1.772   9.541  0.2155 -0.4271 -0.0083
  490POPI   D2A 7800   9.069   2.070   9.406 -0.2755 -0.0566  0.0150
  490POPI   C3A 7801   9.540   2.055   9.210 -0.2323  0.1266  0.1664
  490POPI   C4A 7802   9.723   1.733   9.040  0.0086  0.3564  0.0499
  490POPI   C1B 7803   7.973   1.677   9.169  0.1240 -0.0459 -0.2188
  490POPI   C2B 7804   7.898   1.690   8.701 -0.2975 -0.0689  0.0006
  490POPI   C3B 7805   7.655   1.676   8.275 -0.0133  0.1780 -0.1462
  490POPI   C4B 7806   7.310   1.415   8.348 -0.0991 -0.2566 -0.0107
  491POPI    C1 7807   4.904   7.250   9.845 -0.1377  0.0406 -0.2121
  491POPI    C2 7808   4.740   7.187  10.205 -0.0341 -0.0857 -0.1862
  491POPI    C3 7809   4.607   6.984   9.886 -0.1006 -0.0010 -0.2128
  491POPI   PO4 7810   4.880   7.446   9.746  0.0785  0.4049  0.0241
  491POPI   GL1 7811   4.811   7.689   9.423  0.0064  0.1279  0.0712
  491POPI   GL2 7812   4.522   7.792   9.423  0.0148  0.1801  0.1960
  491POPI   C1A 7813   5.116   7.713   9.062 -0.2491 -0.0227  0.0460
  491POPI   D2A 7814   5.185   7.771   8.659  0.2531  0.0299  0.0543
  491POPI   C3A 7815   4.882   7.910   8.384 -0.2747  0.0597 -0.2337
  491POPI   C4A 7816   4.707   8.321   8.075 -0.1774  0.2121  0.2866
  491POPI   C1B 7817   4.489   7.662   9.074 -0.0559 -0.3173 -0.1197
  491POPI   C2B 7818   4.723   7.506   8.743  0.0349  0.1757 -0.1148
  491POPI   C3B 7819   4.960   7.370   8.369  0.1588  0.0228  0.2655
  491POPI   C4B 7820   5.114   7.484   8.073 -0.4479 -0.2942 -0.4123
  492POPI    C1 7821  11.933   3.769  10.267  0.0094 -0.0568 -0.1348
  492POPI    C2 7822  12.230   3.986  10.423 -0.0189  0.1443 -0.3554
  492POPI    C3 7823  11.914   3.889  10.648  0.0911  0.1521 -0.1955
  492POPI   PO4 7824  12.020   3.631  10.108 -0.1312  0.1518  0.3628
  492POPI   GL1 7825  12.023   3.396   9.701  0.4311 -0.1819  0.2429
  492POPI   GL2 7826  11.807   3.676   9.662 -0.0276 -0.1151 -0.1833
  492POPI   C1A 7827  12.032   3.433   9.284 -0.2027 -0.1146  0.0527
  492POPI   D2A 7828  12.027   3.393   8.956 -0.2710 -0.0250  0.1006
  492POPI   C3A 7829  12.322   3.731   8.797  0.0980 -0.3890  0.2577
  492POPI   C4A 7830  12.394   3.760   8.345  0.3489  0.0593 -0.0387
  492POPI   C1B 7831  11.777   3.883   9.303 -0.0493 -0.1955  0.1748
  492POPI   C2B 7832  11.840   3.867   8.915 -0.1788 -0.2491  0.0073
  492POPI   C3B 7833  11.905   3.698   8.558 -0.0568  0.0413  0.0331
  492POPI   C4B 7834  11.854   3.314   8.261  0.0804  0.1126 -0.0508
  493POPI    C1 7835  12.980   1.871  10.592 -0.0269 -0.0712 -0.0127
  493POPI    C2 7836  13.257   1.881  10.881 -0.0136  0.1434 -0.0310
  493POPI    C3 7837  13.091   1.533  10.775  0.2655  0.0090 -0.0364
  493POPI   PO4 7838  13.113   2.041  10.273  0.1891  0.0620 -0.0845
  493POPI   GL1 7839  12.945   1.931   9.922 -0.0958 -0.0636 -0.1536
  493POPI   GL2 7840  12.973   2.255   9.879 -0.3190 -0.1691  0.0519
  493POPI   C1A 7841  12.892   1.542   9.781 -0.0152  0.1543 -0.2407
  493POPI   D2A 7842  12.831   1.399   9.440 -0.0365 -0.0133  0.1471
  493POPI   C3A 7843  12.557   1.544   9.171 -0.2988 -0.1639  0.3847
  493POPI   C4A 7844  12.289   1.585   8.811  0.0838 -0.2311 -0.1139
  493POPI   C1B 7845  13.195   2.279   9.498  0.1739  0.0842  0.1229
  493POPI   C2B 7846  13.614   2.180   9.291 -0.0447 -0.0990  0.0832
  493POPI   C3B 7847  13.819   2.061   8.852  0.2852  0.3527 -0.0361
  493POPI   C4B 7848  13.783   1.650   8.584  0.2239  0.1205 -0.1698
  494POPI    C1 7849   9.423  10.234  10.491  0.2218 -0.0143  0.1462
  494POPI    C2 7850   9.523  10.058  10.835  0.1296  0.0839  0.2241
  494POPI    C3 7851   9.138  10.102  10.739  0.1544 -0.3230 -0.0890
  494POPI   PO4 7852   9.613  10.123  10.266  0.0661 -0.0035  0.2702
  494POPI   GL1 7853   9.805  10.346   9.943  0.0366 -0.0329 -0.2445
  494POPI   GL2 7854   9.644  10.561   9.824  0.0575 -0.2792 -0.2762
  494POPI   C1A 7855   9.700  10.120   9.475  0.2340  0.2135  0.2650
  494POPI   D2A 7856   9.305   9.928   9.341  0.0911 -0.0124  0.3233
  494POPI   C3A 7857   9.219   9.973   8.816 -0.0911  0.3398  0.1464
  494POPI   C4A 7858   9.532   9.954   8.459 -0.3862 -0.0062 -0.3376
  494POPI   C1B 7859   9.860  10.660   9.399  0.0342  0.1929  0.0661
  494POPI   C2B 7860   9.824  10.607   8.943 -0.0952  0.0298  0.0694
  494POPI   C3B 7861   9.841  10.354   8.617  0.1028 -0.0354 -0.0649
  494POPI   C4B 7862   9.947  10.208   8.217 -0.0415  0.1596 -0.4100
  495POPI    C1 7863  16.266   8.753  10.344  0.0563  0.0442 -0.0844
  495POPI    C2 7864  16.112   9.114  10.420  0.3697  0.1492  0.0678
  495POPI    C3 7865  16.345   8.934  10.691  0.2626 -0.1437 -0.0308
  495POPI   PO4 7866  16.314   8.725  10.088  0.0104 -0.0222  0.0357
  495POPI   GL1 7867  16.301   8.382   9.780  0.2840 -0.1228  0.0336
  495POPI   GL2 7868  16.518   8.120   9.883 -0.0250  0.1070  0.1617
  495POPI   C1A 7869  16.459   8.520   9.359 -0.2036 -0.0207  0.1671
  495POPI   D2A 7870  16.412   8.610   9.020  0.1404  0.2652  0.1425
  495POPI   C3A 7871  16.704   8.570   8.758  0.2859  0.1640  0.0452
  495POPI   C4A 7872  16.848   8.442   8.390 -0.0341 -0.3330 -0.3838
  495POPI   C1B 7873  16.759   8.085   9.484 -0.1899 -0.2265 -0.1434
  495POPI   C2B 7874  16.831   7.818   9.264  0.0432 -0.3002 -0.1775
  495POPI   C3B 7875  16.848   7.823   8.795 -0.2374 -0.0456 -0.0455
  495POPI   C4B 7876  17.012   7.536   8.468  0.3625 -0.1976  0.3343
  496POPI    C1 7877  13.485   0.420  10.405 -0.2574  0.0787 -0.1363
  496POPI    C2 7878  13.545   0.651  10.726  0.0448 -0.0729 -0.0799
  496POPI    C3 7879  13.273   0.756  10.452 -0.0388  0.1873  0.0990
  496POPI   PO4 7880  13.726   0.305  10.276  0.3216 -0.2792 -0.0714
  496POPI   GL1 7881  13.706   0.286   9.880 -0.1193  0.1307 -0.2969
  496POPI   GL2 7882  14.009   0.210   9.859 -0.2807  0.1378  0.1064
  496POPI   C1A 7883  13.664   0.522   9.487  0.0320 -0.0559 -0.1034
  496POPI   D2A 7884  13.656   0.528   9.067 -0.1141  0.0037 -0.4418
  496POPI   C3A 7885  13.845   0.132   8.820  0.1719  0.1033  0.1893
  496POPI   C4A 7886  13.962   0.053   8.378  0.1936  0.0704  0.2479
  496POPI   C1B 7887  14.171   0.302   9.465  0.2058 -0.1923  0.2001
  496POPI   C2B 7888  14.200   0.422   9.068 -0.1261 -0.1811 -0.1409
  496POPI   C3B 7889  14.055   0.596   8.632 -0.0338 -0.1767 -0.2220
  496POPI   C4B 7890  13.941   0.663   8.259  0.3214 -0.1542 -0.3124
  497POPI    C1 7891  15.005  16.628   9.822  0.1838 -0.0033  0.1351
  497POPI    C2 7892  15.220  16.676  10.155  0.0796 -0.0200  0.2054
  497POPI    C3 7893  15.378  16.771   9.800  0.2119 -0.0572  0.2533
  497POPI   PO4 7894  14.909  16.298   9.848  0.1679  0.0084 -0.0062
  497POPI   GL1 7895  14.951  16.070   9.497 -0.3578  0.2914  0.1411
  497POPI   GL2 7896  14.556  16.218   9.436 -0.0190  0.3110 -0.2364
  497POPI   C1A 7897  15.255  15.967   9.151  0.0430 -0.0150  0.0953
  497POPI   D2A 7898  15.292  15.718   8.766 -0.1475  0.0439  0.0279
  497POPI   C3A 7899  15.026  15.517   8.557 -0.2229 -0.2120 -0.0586
  497POPI   C4A 7900  14.626  15.405   8.384 -0.0650 -0.0349 -0.1671
  497POPI   C1B 7901  14.760  16.186   9.070  0.1656  0.4446 -0.2391
  497POPI   C2B 7902  15.086  16.222   8.676 -0.0976 -0.0911 -0.1468
  497POPI   C3B 7903  15.110  16.019   8.377 -0.3702  0.1365 -0.0008
  497POPI   C4B 7904  15.485  15.698   8.196  0.1656  0.0425  0.0040
  498POPI    C1 7905  14.167  11.829  10.209 -0.0936  0.0580  0.1880
  498POPI    C2 7906  14.110  11.730  10.593 -0.1403  0.0153  0.1701
  498POPI    C3 7907  14.481  11.754  10.446 -0.1149  0.2012  0.2627
  498POPI   PO4 7908  14.001  11.992  10.157  0.2079  0.2458  0.0083
  498POPI   GL1 7909  13.866  12.027   9.838  0.1546 -0.1177  0.0715
  498POPI   GL2 7910  13.843  11.625   9.833  0.1174  0.1426  0.3191
  498POPI   C1A 7911  13.922  11.971   9.442  0.2725  0.2884  0.2830
  498POPI   D2A 7912  13.923  11.855   9.001 -0.2024  0.0490 -0.0802
  498POPI   C3A 7913  14.138  11.722   8.690  0.1946 -0.0154 -0.0017
  498POPI   C4A 7914  14.526  11.748   8.367  0.0600 -0.0400 -0.0184
  498POPI   C1B 7915  13.687  11.504   9.456 -0.0568 -0.3526  0.0755
  498POPI   C2B 7916  13.618  11.422   8.967 -0.3982 -0.0787  0.0152
  498POPI   C3B 7917  13.660  11.555   8.564  0.4023  0.3358 -0.2588
  498POPI   C4B 7918  13.704  11.597   8.105 -0.1083  0.1254  0.0900
  499POPI    C1 7919  17.766  17.097  10.071  0.0351 -0.2358 -0.2037
  499POPI    C2 7920  17.748  17.123  10.470  0.0697  0.0614 -0.2197
  499POPI    C3 7921  18.060  16.944  10.295  0.0385 -0.0987 -0.1135
  499POPI   PO4 7922  17.477  17.027   9.958 -0.2452  0.2081  0.3119
  499POPI   GL1 7923  17.160  17.059   9.531 -0.1405 -0.0988 -0.2564
  499POPI   GL2 7924  16.999  16.688   9.612  0.5320  0.3392  0.0296
  499POPI   C1A 7925  17.379  16.959   9.104  0.1799  0.0125  0.0172
  499POPI   D2A 7926  17.469  16.958   8.721 -0.1407 -0.0578  0.4822
  499POPI   C3A 7927  17.691  16.680   8.446 -0.1799  0.5314  0.3499
  499POPI   C4A 7928  17.808  16.630   8.012 -0.1410 -0.0131 -0.1303
  499POPI   C1B 7929  17.052  16.617   9.190 -0.2901 -0.1730 -0.0436
  499POPI   C2B 7930  17.118  16.591   8.738 -0.3473  0.1403 -0.0924
  499POPI   C3B 7931  16.916  16.696   8.408  0.2977 -0.3319  0.2018
  499POPI   C4B 7932  16.666  16.866   8.054  0.0052 -0.4197  0.1019
  500POPI    C1 7933   0.801  13.620  10.293 -0.1320  0.1001 -0.4213
  500POPI    C2 7934   0.431  13.521  10.176 -0.0870 -0.2573 -0.2726
  500POPI    C3 7935   0.484  13.766  10.488 -0.1987 -0.3212 -0.2031
  500POPI   PO4 7936   0.922  13.375  10.216 -0.4550  0.1181  0.1404
  500POPI   GL1 7937   0.914  13.120   9.780 -0.1458  0.0706 -0.0694
  500POPI   GL2 7938   0.687  13.271   9.818 -0.1735  0.1920  0.1350
  500POPI   C1A 7939   0.989  13.090   9.369 -0.1412  0.3945  0.0206
  500POPI   D2A 7940   1.049  12.906   8.938 -0.2192  0.0359 -0.1220
  500POPI   C3A 7941   0.707  13.068   8.651 -0.2056 -0.2263  0.0663
  500POPI   C4A 7942   0.744  13.466   8.409  0.0504  0.0928 -0.0771
  500POPI   C1B 7943   0.523  13.274   9.360 -0.0214 -0.0025 -0.0854
  500POPI   C2B 7944   0.598  13.393   8.995 -0.0866  0.4131  0.0976
  500POPI   C3B 7945   1.013  13.420   8.856 -0.1458  0.1310  0.0874
  500POPI   C4B 7946   1.271  13.202   8.469  0.1886 -0.3755  0.2394
  501POPI    C1 7947   4.127  13.546  10.481  0.0598 -0.0936 -0.2123
  501POPI    C2 7948   3.994  13.208  10.648 -0.0781  0.0801  0.0353
  501POPI    C3 7949   4.354  13.351  10.747 -0.0567  0.0527 -0.0030
  501POPI   PO4 7950   3.962  13.542  10.300 -0.2299 -0.0617 -0.1110
  501POPI   GL1 7951   3.650  13.792  10.149 -0.0011 -0.0327 -0.1544
  501POPI   GL2 7952   3.800  13.893   9.885  0.1822 -0.1484 -0.0691
  501POPI   C1A 7953   3.359  13.757   9.761  0.0871  0.1509  0.1206
  501POPI   D2A 7954   3.385  13.742   9.347  0.3276  0.2209  0.0957
  501POPI   C3A 7955   3.464  13.686   8.847  0.3379  0.3507  0.2218
  501POPI   C4A 7956   3.476  13.684   8.463  0.0859  0.2119 -0.0670
  501POPI   C1B 7957   3.907  13.968   9.456  0.3311  0.1176  0.1960
  501POPI   C2B 7958   3.980  13.941   9.018 -0.0417 -0.0225  0.2570
  501POPI   C3B 7959   3.990  13.862   8.574 -0.2536 -0.0919 -0.0441
  501POPI   C4B 7960   3.822  13.704   8.135 -0.1434  0.1837 -0.1985
  502POPI    C1 7961  13.884   4.979  10.734 -0.1134 -0.0830 -0.0857
  502POPI    C2 7962  13.498   5.002  10.836 -0.0684  0.1023  0.0473
  502POPI    C3 7963  13.718   4.689  10.954 -0.1755 -0.0008 -0.0239
  502POPI   PO4 7964  13.915   5.027  10.456  0.0580  0.2520  0.0944
  502POPI   GL1 7965  13.878   5.083  10.022 -0.0758 -0.0992  0.0871
  502POPI   GL2 7966  14.227   5.177   9.957 -0.0097  0.0521  0.2311
  502POPI   C1A 7967  14.110   4.748   9.681 -0.0591  0.0252 -0.2091
  502POPI   D2A 7968  14.119   4.544   9.308 -0.2276  0.2263  0.2074
  502POPI   C3A 7969  14.046   4.557   8.876  0.0895 -0.0744  0.2379
  502POPI   C4A 7970  14.209   4.922   8.702 -0.0960  0.1798 -0.0345
  502POPI   C1B 7971  13.923   5.273   9.605  0.1030 -0.1062  0.1846
  502POPI   C2B 7972  13.527   5.289   9.377 -0.1469  0.1128 -0.0269
  502POPI   C3B 7973  13.357   5.337   9.045  0.1689  0.1031  0.1944
  502POPI   C4B 7974  13.178   5.600   8.736 -0.1319 -0.1421  0.2215
  503POPI    C1 7975   0.175  16.866   9.990 -0.1442 -0.0414  0.0219
  503POPI    C2 7976   0.015  16.590  10.231  0.1337  0.0391  0.3054
  503POPI    C3 7977   0.094  16.956  10.372  0.0614  0.1675  0.0185
  503POPI   PO4 7978   0.010  16.900   9.768  0.3400  0.3533  0.0390
  503POPI   GL1 7979   0.036  16.638   9.358  0.1450  0.1926 -0.0718
  503POPI   GL2 7980   0.177  16.320   9.523 -0.1128  0.1904 -0.3265
  503POPI   C1A 7981  -0.089  16.760   8.938 -0.0467  0.1358 -0.1972
  503POPI   D2A 7982  -0.108  16.715   8.467 -0.1426  0.0739  0.1960
  503POPI   C3A 7983  -0.198  16.446   8.126  0.1825  0.0482  0.2346
  503POPI   C4A 7984  -0.203  16.399   7.741  0.0139 -0.0725 -0.0788
  503POPI   C1B 7985   0.210  16.269   9.089 -0.2665 -0.0158 -0.4448
  503POPI   C2B 7986   0.255  16.410   8.666 -0.1410 -0.1921  0.0446
  503POPI   C3B 7987   0.312  16.507   8.256 -0.0280  0.0705  0.1023
  503POPI   C4B 7988   0.057  16.848   8.010 -0.0307  0.2695  0.0578
  504POPI    C1 7989  15.784  15.637  10.032 -0.2762  0.1143  0.1955
  504POPI    C2 7990  15.478  15.421   9.891 -0.1009 -0.0037 -0.0098
  504POPI    C3 7991  15.407  15.746  10.113 -0.3777  0.0430 -0.1618
  504POPI   PO4 7992  15.996  15.542   9.867  0.1788 -0.0372  0.1604
  504POPI   GL1 7993  15.892  15.599   9.424 -0.2330  0.0315 -0.2772
  504POPI   GL2 7994  16.205  15.389   9.320 -0.1640 -0.1353 -0.0164
  504POPI   C1A 7995  15.434  15.492   9.265  0.1729  0.0835  0.0398
  504POPI   D2A 7996  15.087  15.422   9.067 -0.0185  0.1986 -0.0554
  504POPI   C3A 7997  14.772  15.709   8.933 -0.2018 -0.0049  0.1805
  504POPI   C4A 7998  14.593  15.872   8.613 -0.0896 -0.1938  0.3603
  504POPI   C1B 7999  16.226  15.463   8.914  0.1379 -0.2354  0.0457
  504POPI   C2B 8000  16.459  15.666   8.635 -0.0724  0.3307 -0.2173
  504POPI   C3B 8001  16.757  16.053   8.482 -0.0872  0.1494  0.3721
  504POPI   C4B 8002  16.702  16.377   8.131 -0.3167  0.0796 -0.0204
  505POPI    C1 8003  11.899   3.234  10.409  0.0373 -0.3530 -0.0053
  505POPI    C2 8004  12.150   3.060  10.668 -0.0209 -0.0681  0.2481
  505POPI    C3 8005  12.202   3.443  10.566 -0.2082 -0.0775  0.1115
  505POPI   PO4 8006  11.826   3.004  10.206 -0.1619 -0.0190 -0.0461
  505POPI   GL1 8007  11.967   2.883   9.876 -0.0459  0.1253 -0.0040
  505POPI   GL2 8008  11.832   2.657   9.785 -0.1257 -0.2484 -0.1743
  505POPI   C1A 8009  11.886   2.973   9.388  0.1502  0.2852  0.0522
  505POPI   D2A 8010  12.001   2.800   9.048 -0.3334  0.0745  0.0283
  505POPI   C3A 8011  12.086   2.959   8.683 -0.0859 -0.1002  0.0541
  505POPI   C4A 8012  12.287   3.307   8.475  0.1427  0.0553  0.0146
  505POPI   C1B 8013  11.793   2.358   9.448  0.0779  0.2331 -0.0472
  505POPI   C2B 8014  11.911   2.322   9.013  0.2549 -0.2152 -0.1240
  505POPI   C3B 8015  12.068   2.449   8.580  0.2934  0.2223  0.0513
  505POPI   C4B 8016  11.950   2.421   8.078 -0.2862  0.0459 -0.0758
  506POPI    C1 8017   5.117   8.556  10.586 -0.1565 -0.0924 -0.2438
  506POPI    C2 8018   4.877   8.536  10.906  0.1656  0.0765  0.0142
  506POPI    C3 8019   5.270   8.594  10.954  0.2214  0.0841 -0.4142
  506POPI   PO4 8020   5.039   8.712  10.456 -0.2284 -0.2751  0.0041
  506POPI   GL1 8021   5.012   8.831  10.029  0.0347 -0.2182 -0.2297
  506POPI   GL2 8022   5.275   8.830   9.828  0.1019  0.1701 -0.1611
  506POPI   C1A 8023   4.733   8.887   9.690 -0.0638  0.1023  0.1734
  506POPI   D2A 8024   4.597   8.723   9.251  0.1834 -0.0965  0.1920
  506POPI   C3A 8025   4.699   8.663   8.917  0.0490 -0.0790 -0.0527
  506POPI   C4A 8026   4.705   8.474   8.536  0.0994 -0.1065 -0.2645
  506POPI   C1B 8027   5.136   8.753   9.448  0.1179 -0.1660  0.1943
  506POPI   C2B 8028   5.195   8.592   9.069  0.0082  0.0514  0.0657
  506POPI   C3B 8029   5.137   8.747   8.620  0.0268  0.2084 -0.1145
  506POPI   C4B 8030   5.167   8.793   8.134  0.1976  0.0934  0.0232
  507POPI    C1 8031  13.881   6.038  10.489 -0.0468 -0.1269  0.0712
  507POPI    C2 8032  14.119   6.355  10.543 -0.0729 -0.0456 -0.2665
  507POPI    C3 8033  13.736   6.372  10.656 -0.0712  0.0386 -0.2726
  507POPI   PO4 8034  13.922   5.976  10.249 -0.3125 -0.2260 -0.1254
  507POPI   GL1 8035  13.940   5.635   9.939 -0.2129  0.0277 -0.2644
  507POPI   GL2 8036  14.210   5.677   9.879  0.3273  0.1871  0.1238
  507POPI   C1A 8037  13.872   5.803   9.557 -0.0025 -0.1205  0.0595
  507POPI   D2A 8038  14.140   5.956   9.123 -0.0383  0.2417  0.2060
  507POPI   C3A 8039  13.890   6.117   8.793 -0.2444 -0.0589  0.2110
  507POPI   C4A 8040  14.071   6.233   8.407 -0.0211  0.1042 -0.2908
  507POPI   C1B 8041  14.334   5.584   9.467 -0.0615  0.1227  0.3610
  507POPI   C2B 8042  14.391   5.574   9.034  0.0423 -0.0915  0.2039
  507POPI   C3B 8043  14.356   5.904   8.662  0.0631  0.0828  0.0363
  507POPI   C4B 8044  14.674   6.011   8.319 -0.2965 -0.1992 -0.1101
  508POPI    C1 8045   7.277   8.188  10.497  0.1402  0.3667  0.1499
  508POPI    C2 8046   7.480   8.303  10.822  0.2915 -0.0447  0.2068
  508POPI    C3 8047   7.371   7.920  10.779  0.1906  0.0237 -0.1848
  508POPI   PO4 8048   7.268   8.476  10.304  0.1888  0.1638 -0.0680
  508POPI   GL1 8049   7.412   8.465   9.861  0.0848 -0.1147  0.0935
  508POPI   GL2 8050   7.437   8.214   9.596  0.0674  0.2883 -0.1836
  508POPI   C1A 8051   7.695   8.718   9.514 -0.0207 -0.0628  0.0857
  508POPI   D2A 8052   8.071   8.735   9.254 -0.0015  0.4064  0.1494
  508POPI   C3A 8053   8.035   9.150   8.910 -0.0917  0.1384 -0.3332
  508POPI   C4A 8054   8.238   9.064   8.518 -0.0041  0.0335 -0.0899
  508POPI   C1B 8055   7.498   7.933   9.148  0.2442  0.0947  0.1403
  508POPI   C2B 8056   7.526   7.913   8.776  0.0697 -0.1228  0.0283
  508POPI   C3B 8057   7.685   8.171   8.437 -0.1615  0.2696  0.1256
  508POPI   C4B 8058   7.538   8.435   8.058  0.1174 -0.0265 -0.1040
  509POPI    C1 8059  12.359  15.147  10.356  0.2268  0.1849 -0.1581
  509POPI    C2 8060  12.383  15.544  10.400  0.1728  0.1442  0.2920
  509POPI    C3 8061  12.068  15.345  10.546 -0.0405 -0.0149 -0.3517
  509POPI   PO4 8062  12.704  14.986  10.373  0.1702  0.0463  0.0004
  509POPI   GL1 8063  12.916  14.787  10.080 -0.1286  0.2182 -0.0536
  509POPI   GL2 8064  12.727  14.928   9.763  0.3283 -0.0866 -0.0614
  509POPI   C1A 8065  12.996  14.509   9.683 -0.0023  0.1493 -0.1328
  509POPI   D2A 8066  13.064  14.418   9.260  0.3093 -0.1410 -0.1093
  509POPI   C3A 8067  13.061  14.024   9.163  0.2040  0.2460  0.0680
  509POPI   C4A 8068  13.226  13.628   9.360 -0.1882  0.0541 -0.1790
  509POPI   C1B 8069  12.669  14.772   9.406 -0.0127  0.2866  0.3501
  509POPI   C2B 8070  12.472  14.587   8.978 -0.1859  0.1632 -0.1186
  509POPI   C3B 8071  12.494  14.551   8.574  0.0477 -0.0451 -0.0849
  509POPI   C4B 8072  12.848  14.643   8.289 -0.0464  0.3615 -0.0761
  510POPI    C1 8073  15.715  16.127  10.250 -0.3303 -0.1381  0.0422
  510POPI    C2 8074  15.541  16.339  10.541 -0.1062 -0.0235  0.0947
  510POPI    C3 8075  15.924  16.229  10.575 -0.1535 -0.2356 -0.0394
  510POPI   PO4 8076  15.651  16.227  10.048  0.1024  0.1034  0.1535
  510POPI   GL1 8077  15.356  16.275   9.788 -0.0749  0.0570 -0.2853
  510POPI   GL2 8078  15.417  15.965   9.652 -0.3013 -0.0768 -0.3088
  510POPI   C1A 8079  15.363  16.421   9.297  0.2213  0.0783 -0.2584
  510POPI   D2A 8080  15.451  16.546   8.938  0.0020  0.1318 -0.0703
  510POPI   C3A 8081  15.596  16.172   8.718  0.4448 -0.0529  0.0329
  510POPI   C4A 8082  15.751  16.106   8.333  0.0081 -0.1050  0.0603
  510POPI   C1B 8083  15.680  16.059   9.362  0.2250  0.2043 -0.0431
  510POPI   C2B 8084  15.814  15.824   9.045 -0.1200 -0.0174 -0.0912
  510POPI   C3B 8085  15.768  15.671   8.637  0.1729  0.1758 -0.4281
  510POPI   C4B 8086  16.017  15.394   8.290  0.1296 -0.0051 -0.0572
  511POPI    C1 8087   4.922   5.656   9.962  0.1220  0.0809 -0.2830
  511POPI    C2 8088   5.312   5.747   9.958  0.2226 -0.3253 -0.1568
  511POPI    C3 8089   5.115   5.727  10.306  0.0971 -0.1615 -0.2173
  511POPI   PO4 8090   4.868   5.563   9.689 -0.0035  0.2021 -0.1854
  511POPI   GL1 8091   4.516   5.731   9.345  0.0864 -0.1128  0.1937
  511POPI   GL2 8092   4.368   5.496   9.342 -0.1397 -0.2278  0.0388
  511POPI   C1A 8093   4.666   5.815   9.019  0.2041  0.0529 -0.3860
  511POPI   D2A 8094   4.666   5.948   8.650  0.1120  0.1522 -0.0153
  511POPI   C3A 8095   4.709   5.577   8.337  0.0606  0.0071  0.1215
  511POPI   C4A 8096   4.452   5.476   8.085  0.0396 -0.0953 -0.1547
  511POPI   C1B 8097   4.111   5.614   8.974 -0.2815  0.2834  0.1703
  511POPI   C2B 8098   4.223   5.830   8.577  0.1300  0.1333 -0.0925
  511POPI   C3B 8099   4.076   5.877   8.106  0.0930  0.3234 -0.1899
  511POPI   C4B 8100   3.734   6.051   7.887 -0.3159  0.1501  0.0770
  512POPI    C1 8101  17.004   7.228  10.453  0.2371 -0.2054  0.0088
  512POPI    C2 8102  17.134   7.039  10.780  0.1244  0.1586  0.2711
  512POPI    C3 8103  17.132   7.439  10.768 -0.1407  0.1514 -0.0672
  512POPI   PO4 8104  17.126   7.119  10.261 -0.6374 -0.1536 -0.1719
  512POPI   GL1 8105  17.429   6.772  10.099 -0.0320  0.0426 -0.0305
  512POPI   GL2 8106  17.239   6.957   9.817 -0.1841 -0.0470 -0.0253
  512POPI   C1A 8107  17.698   6.962   9.688  0.0361  0.2074  0.0867
  512POPI   D2A 8108  18.046   7.021   9.415  0.1059 -0.0658  0.1785
  512POPI   C3A 8109  18.034   6.815   9.021 -0.0047  0.0099  0.0309
  512POPI   C4A 8110  17.849   6.749   8.652 -0.2174  0.2094 -0.0300
  512POPI   C1B 8111  17.260   6.839   9.425  0.0232  0.1007 -0.0278
  512POPI   C2B 8112  17.199   6.852   9.027  0.2561 -0.3447  0.1406
  512POPI   C3B 8113  17.363   6.623   8.689 -0.2505  0.1322 -0.0387
  512POPI   C4B 8114  17.307   6.708   8.305 -0.0828 -0.0808 -0.3799
  513POPI    C1 8115  12.140  14.419  10.156  0.0648 -0.1346  0.0398
  513POPI    C2 8116  12.315  14.763  10.053 -0.0878 -0.0828 -0.0486
  513POPI    C3 8117  12.437  14.567  10.379 -0.0139  0.0651  0.0134
  513POPI   PO4 8118  12.148  14.217   9.930  0.3946 -0.1531  0.2101
  513POPI   GL1 8119  11.982  14.322   9.594 -0.2128 -0.1123  0.1252
  513POPI   GL2 8120  11.701  14.367   9.424  0.0205  0.0034  0.0482
  513POPI   C1A 8121  12.083  14.231   9.139  0.0940 -0.1188  0.4341
  513POPI   D2A 8122  12.093  14.238   8.754  0.3538 -0.2587  0.1261
  513POPI   C3A 8123  12.034  14.619   8.424 -0.0368 -0.2192  0.0675
  513POPI   C4A 8124  11.677  14.850   8.364 -0.0499 -0.0485 -0.1180
  513POPI   C1B 8125  11.606  14.051   9.031  0.0873  0.2985 -0.0472
  513POPI   C2B 8126  11.706  13.966   8.579 -0.1503  0.0262 -0.0813
  513POPI   C3B 8127  11.741  13.879   8.141  0.1762  0.3122  0.2903
  513POPI   C4B 8128  11.501  13.733   7.762  0.0523  0.0383 -0.0888
  514POPI    C1 8129  11.143   8.544  10.175  0.1532  0.0720  0.1330
  514POPI    C2 8130  11.144   8.628  10.566 -0.2762  0.2048  0.1110
  514POPI    C3 8131  10.929   8.320  10.427  0.0566  0.0158  0.0027
  514POPI   PO4 8132  11.199   8.899  10.090 -0.1058 -0.0931  0.2349
  514POPI   GL1 8133  11.515   9.135   9.718  0.2199 -0.0227 -0.2149
  514POPI   GL2 8134  11.716   9.377   9.713 -0.0517  0.0690 -0.2980
  514POPI   C1A 8135  11.332   9.091   9.304 -0.3916 -0.2986  0.1407
  514POPI   D2A 8136  11.082   9.027   8.966 -0.2714 -0.2138  0.3611
  514POPI   C3A 8137  11.243   9.305   8.623 -0.2676 -0.1777 -0.1767
  514POPI   C4A 8138  11.236   9.596   8.264  0.1838  0.3539  0.0188
  514POPI   C1B 8139  11.658   9.438   9.180 -0.1191 -0.0151  0.2996
  514POPI   C2B 8140  11.968   9.504   8.826  0.1494  0.0409 -0.2688
  514POPI   C3B 8141  11.745   9.604   8.422 -0.2483  0.2359  0.0211
  514POPI   C4B 8142  11.649   9.729   8.040 -0.0447 -0.2729  0.3654
  515POPI    C1 8143   1.969  16.095  10.186  0.1163  0.0382  0.3107
  515POPI    C2 8144   1.748  16.259  10.477  0.0032  0.1078  0.1869
  515POPI    C3 8145   1.815  15.864  10.474 -0.2742  0.0592  0.1252
  515POPI   PO4 8146   1.955  16.227  10.036  0.0304  0.3466  0.0384
  515POPI   GL1 8147   2.030  16.026   9.700 -0.0354 -0.1977  0.1008
  515POPI   GL2 8148   2.229  16.299   9.624 -0.2168 -0.0772  0.1266
  515POPI   C1A 8149   1.857  16.029   9.310  0.1831 -0.1342  0.0242
  515POPI   D2A 8150   1.542  16.084   9.099 -0.0503  0.0671 -0.0526
  515POPI   C3A 8151   1.593  16.130   8.615  0.0450 -0.1490  0.1920
  515POPI   C4A 8152   1.682  16.353   8.239  0.1999  0.0678 -0.0618
  515POPI   C1B 8153   2.282  16.293   9.131  0.2646  0.0558  0.1618
  515POPI   C2B 8154   2.437  16.248   8.744 -0.1822  0.0685 -0.0800
  515POPI   C3B 8155   2.665  16.326   8.305 -0.1894  0.0486 -0.0207
  515POPI   C4B 8156   2.822  16.276   7.828  0.0133 -0.1177  0.0633
  516POPI    C1 8157   6.881  16.642  10.258  0.0770  0.0039 -0.0872
  516POPI    C2 8158   7.150  16.938  10.282 -0.0269  0.0772  0.2224
  516POPI    C3 8159   7.033  16.746  10.613 -0.0689 -0.2156  0.0421
  516POPI   PO4 8160   6.707  16.652  10.130 -0.0062  0.0968 -0.0182
  516POPI   GL1 8161   6.640  16.823   9.610 -0.0339 -0.3151  0.0368
  516POPI   GL2 8162   6.318  16.941   9.478 -0.1580  0.1837 -0.1733
  516POPI   C1A 8163   6.709  16.878   9.199 -0.4457  0.0507  0.4689
  516POPI   D2A 8164   6.782  16.887   8.683  0.4783 -0.1014  0.0022
  516POPI   C3A 8165   6.906  16.783   8.272  0.0441 -0.0050  0.0304
  516POPI   C4A 8166   6.717  16.904   7.870  0.3166 -0.0334  0.0930
  516POPI   C1B 8167   6.212  16.755   9.123 -0.0657  0.2738 -0.2887
  516POPI   C2B 8168   6.197  16.625   8.632  0.0904  0.1249  0.0417
  516POPI   C3B 8169   6.396  16.627   8.265  0.2110 -0.1659  0.2417
  516POPI   C4B 8170   6.385  16.547   7.798 -0.1280 -0.0135 -0.0172
  517POPI    C1 8171   4.782   3.012  10.348  0.0438  0.0656 -0.1035
  517POPI    C2 8172   4.796   3.381  10.501  0.1335  0.0809 -0.1476
  517POPI    C3 8173   5.096   3.125  10.569  0.0403 -0.0065 -0.0612
  517POPI   PO4 8174   4.742   3.025  10.134 -0.3081  0.0117  0.0750
  517POPI   GL1 8175   4.955   2.888   9.818  0.2983  0.1694 -0.0842
  517POPI   GL2 8176   4.713   3.011   9.661 -0.2836  0.1178  0.1421
  517POPI   C1A 8177   5.100   2.748   9.336 -0.0589 -0.0451  0.3920
  517POPI   D2A 8178   5.180   2.442   9.051 -0.1363 -0.0821  0.0973
  517POPI   C3A 8179   5.054   2.549   8.622  0.1220  0.0375 -0.0456
  517POPI   C4A 8180   4.992   2.469   8.148  0.0164 -0.1735 -0.2631
  517POPI   C1B 8181   4.697   3.089   9.329  0.0631 -0.4487  0.1230
  517POPI   C2B 8182   4.806   2.976   8.923 -0.1626 -0.0641  0.1729
  517POPI   C3B 8183   4.770   3.089   8.466 -0.2380  0.3487 -0.2642
  517POPI   C4B 8184   5.025   3.032   8.040 -0.2370  0.0728 -0.0990
  518POPI    C1 8185  16.754   9.490  10.106 -0.2920  0.0787 -0.1233
  518POPI    C2 8186  16.476   9.208  10.054 -0.4073  0.1872 -0.1010
  518POPI    C3 8187  16.591   9.309  10.423 -0.1965  0.0061 -0.1154
  518POPI   PO4 8188  16.639   9.687   9.910 -0.0472 -0.2472 -0.0910
  518POPI   GL1 8189  16.220   9.600   9.629 -0.0344  0.2452  0.0430
  518POPI   GL2 8190  16.381   9.301   9.563  0.0275 -0.6085 -0.0504
  518POPI   C1A 8191  16.577   9.761   9.235 -0.0552 -0.2593 -0.1494
  518POPI   D2A 8192  16.919  10.061   9.087  0.1448 -0.1836 -0.1754
  518POPI   C3A 8193  16.937  10.085   8.656  0.0726 -0.2058  0.5052
  518POPI   C4A 8194  17.197  10.202   8.295 -0.4077  0.0100  0.0276
  518POPI   C1B 8195  16.310   9.095   9.192  0.3503 -0.0341 -0.0358
  518POPI   C2B 8196  16.293   8.999   8.704 -0.1196 -0.0447 -0.2792
  518POPI   C3B 8197  16.296   9.235   8.340 -0.0684 -0.0433 -0.0987
  518POPI   C4B 8198  16.165   9.360   7.943  0.3014 -0.3800 -0.2888
  519POPI    C1 8199  14.627  15.835  10.007 -0.1460 -0.1153  0.0599
  519POPI    C2 8200  14.608  15.517  10.248  0.2109  0.0260  0.2825
  519POPI    C3 8201  14.905  15.782  10.289 -0.0172  0.3301  0.0255
  519POPI   PO4 8202  14.561  15.772   9.759  0.0602 -0.0028 -0.2150
  519POPI   GL1 8203  14.603  15.726   9.417 -0.0539 -0.1378 -0.0045
  519POPI   GL2 8204  14.372  15.775   9.275 -0.1286  0.1356 -0.0425
  519POPI   C1A 8205  14.591  15.290   9.152  0.0730 -0.2329 -0.1265
  519POPI   D2A 8206  14.607  15.102   8.836  0.0111 -0.2045 -0.1066
  519POPI   C3A 8207  14.358  14.993   8.596  0.3647  0.0094 -0.1025
  519POPI   C4A 8208  14.286  14.614   8.336  0.0072 -0.2983  0.2378
  519POPI   C1B 8209  14.219  16.089   9.012  0.1834  0.0346 -0.1834
  519POPI   C2B 8210  14.122  16.231   8.616  0.0703 -0.0684 -0.1817
  519POPI   C3B 8211  14.048  16.610   8.611  0.1596 -0.1505  0.0414
  519POPI   C4B 8212  14.069  17.039   8.551  0.2035  0.0435 -0.2319
  520POPI    C1 8213   3.187   6.067  10.161  0.0488  0.0662  0.2918
  520POPI    C2 8214   3.116   6.173  10.540 -0.1286  0.1348  0.2404
  520POPI    C3 8215   2.915   5.868  10.376 -0.0244  0.0804  0.2129
  520POPI   PO4 8216   3.190   6.342  10.045 -0.0422  0.0661 -0.0439
  520POPI   GL1 8217   3.033   6.516   9.781  0.0322  0.2459  0.2019
  520POPI   GL2 8218   3.023   6.825   9.729 -0.0840  0.2047  0.3563
  520POPI   C1A 8219   2.908   6.460   9.365 -0.0206 -0.4800  0.0414
  520POPI   D2A 8220   2.761   6.662   9.066  0.1222 -0.2189 -0.1923
  520POPI   C3A 8221   2.924   6.685   8.599 -0.3439  0.1404  0.0562
  520POPI   C4A 8222   3.033   6.688   8.106  0.0293 -0.0023 -0.2198
  520POPI   C1B 8223   3.157   6.871   9.367 -0.6297 -0.1126  0.1436
  520POPI   C2B 8224   3.301   6.785   8.901  0.2158 -0.0989 -0.1656
  520POPI   C3B 8225   3.362   6.910   8.430 -0.0738  0.1072 -0.1210
  520POPI   C4B 8226   3.700   6.994   8.275 -0.1433 -0.0967  0.0920
  521POPI    C1 8227   8.548   6.559  10.245  0.2482  0.1424  0.0376
  521POPI    C2 8228   8.367   6.865  10.427  0.1356  0.0571  0.0695
  521POPI    C3 8229   8.631   6.641  10.627 -0.0135 -0.0577  0.1398
  521POPI   PO4 8230   8.391   6.565  10.021  0.0732  0.2358 -0.1446
  521POPI   GL1 8231   8.449   6.338   9.676 -0.1374  0.1326  0.5771
  521POPI   GL2 8232   8.598   6.190   9.496  0.0543  0.2342  0.0654
  521POPI   C1A 8233   8.204   6.506   9.305  0.2184  0.0902 -0.2850
  521POPI   D2A 8234   8.324   6.474   8.846 -0.0743  0.0192 -0.0117
  521POPI   C3A 8235   8.177   6.479   8.406  0.0569  0.0535 -0.1036
  521POPI   C4A 8236   7.842   6.579   8.091 -0.1954  0.1697 -0.1621
  521POPI   C1B 8237   8.683   6.160   8.965  0.0061 -0.5089  0.0927
  521POPI   C2B 8238   8.754   6.333   8.649  0.0977 -0.0556  0.0033
  521POPI   C3B 8239   8.834   6.489   8.315 -0.0842  0.2335 -0.0110
  521POPI   C4B 8240   8.939   6.349   7.924  0.0067  0.3318 -0.0652
  522POPI    C1 8241  11.523   6.783  10.586  0.0362  0.0840  0.0381
  522POPI    C2 8242  11.162   6.636  10.495  0.0260  0.0992  0.0533
  522POPI    C3 8243  11.198   7.014  10.621  0.0227  0.0352  0.2497
  522POPI   PO4 8244  11.678   6.704  10.336  0.1456 -0.3457  0.0680
  522POPI   GL1 8245  11.741   6.768   9.841 -0.1867 -0.0149 -0.2368
  522POPI   GL2 8246  11.475   6.866   9.679  0.0793  0.0781  0.3377
  522POPI   C1A 8247  11.934   6.513   9.485 -0.0270  0.2435 -0.1946
  522POPI   D2A 8248  11.845   6.704   9.157 -0.1402 -0.0289  0.1360
  522POPI   C3A 8249  11.992   6.595   8.767 -0.0682 -0.0032  0.0245
  522POPI   C4A 8250  11.923   6.610   8.292 -0.0258  0.2059 -0.3431
  522POPI   C1B 8251  11.668   7.127   9.377 -0.1409 -0.0658  0.0569
  522POPI   C2B 8252  11.769   7.112   8.893  0.1781  0.0910 -0.0932
  522POPI   C3B 8253  11.757   7.153   8.467  0.0020  0.3103 -0.0071
  522POPI   C4B 8254  11.616   7.359   8.096 -0.0391  0.0440  0.1622
  523POPI    C1 8255  17.972  14.226  10.533 -0.0143  0.3675 -0.1187
  523POPI    C2 8256  17.610  14.388  10.482 -0.1240  0.1688  0.0171
  523POPI    C3 8257  17.836  14.499  10.792 -0.0022  0.4070 -0.1536
  523POPI   PO4 8258  18.111  14.274  10.291 -0.1693 -0.2978  0.0639
  523POPI   GL1 8259  18.286  14.270   9.858  0.1987 -0.1252 -0.1847
  523POPI   GL2 8260  18.388  14.420   9.570  0.0982  0.2610 -0.2134
  523POPI   C1A 8261  18.657  14.045   9.693  0.1125  0.1857  0.2573
  523POPI   D2A 8262  19.050  14.211   9.638  0.3203  0.1326 -0.0660
  523POPI   C3A 8263  19.048  14.622   9.443 -0.0090 -0.0727  0.1557
  523POPI   C4A 8264  18.904  14.767   9.002  0.1463  0.0860 -0.1536
  523POPI   C1B 8265  18.690  14.300   9.214  0.0636 -0.1482  0.0271
  523POPI   C2B 8266  18.893  14.212   8.903 -0.0319  0.0964  0.0134
  523POPI   C3B 8267  19.262  14.378   9.009 -0.1389  0.0120 -0.1045
  523POPI   C4B 8268  19.534  14.631   9.300  0.1223 -0.2412  0.0214
  524DPPI    C1 8269  15.126   6.070  10.250 -0.2911  0.1041  0.2168
  524DPPI    C2 8270  15.030   6.456  10.294 -0.0856  0.2186 -0.2807
  524DPPI    C3 8271  15.414   6.344  10.294 -0.1535 -0.0415  0.2301
  524DPPI   PO4 8272  14.913   5.971  10.146 -0.0686  0.0300  0.2119
  524DPPI   GL1 8273  14.610   5.984   9.781 -0.2535 -0.0492 -0.0377
  524DPPI   GL2 8274  14.327   6.120   9.699 -0.1536  0.2531 -0.0870
  524DPPI   C1A 8275  14.795   5.911   9.403 -0.0326 -0.0003  0.0174
  524DPPI   C2A 8276  15.017   5.996   8.975  0.1323 -0.0290  0.3873
  524DPPI   C3A 8277  15.332   5.864   8.658  0.2533  0.4173 -0.3333
  524DPPI   C4A 8278  15.593   5.805   8.269 -0.2101 -0.2356 -0.1520
  524DPPI   C1B 8279  14.093   6.308   9.434  0.1105  0.0382  0.0309
  524DPPI   C2B 8280  13.920   6.525   9.082 -0.1192  0.2137  0.0138
  524DPPI   C3B 8281  14.088   6.682   8.788  0.1620 -0.0466 -0.0867
  524DPPI   C4B 8282  14.212   6.852   8.414  0.0100  0.1652 -0.0071
  525DPPI    C1 8283   8.291   7.489  10.434 -0.0287  0.1289 -0.1032
  525DPPI    C2 8284   8.018   7.220  10.550 -0.1324  0.3267  0.1193
  525DPPI    C3 8285   8.363   7.255  10.750  0.0625  0.0762 -0.1622
  525DPPI   PO4 8286   8.356   7.405  10.166  0.0081  0.0768  0.3472
  525DPPI   GL1 8287   8.363   7.407   9.713  0.0807 -0.0460  0.2743
  525DPPI   GL2 8288   8.161   7.581   9.737  0.2196 -0.1669 -0.0116
  525DPPI   C1A 8289   8.351   7.271   9.306  0.2657 -0.2166 -0.1413
  525DPPI   C2A 8290   8.444   7.099   8.886 -0.0300  0.2362  0.1754
  525DPPI   C3A 8291   8.474   6.835   8.502  0.3167  0.1266  0.0617
  525DPPI   C4A 8292   8.462   6.840   8.099  0.0507  0.1823  0.0908
  525DPPI   C1B 8293   8.201   7.819   9.320  0.1588 -0.1648  0.0311
  525DPPI   C2B 8294   8.037   7.859   8.930 -0.0220  0.2035  0.1189
  525DPPI   C3B 8295   8.164   8.055   8.624 -0.1386  0.1006  0.2751
  525DPPI   C4B 8296   8.442   8.279   8.359  0.2459 -0.0718 -0.4396
  526DPPI    C1 8297   0.485  14.116  10.185  0.0445 -0.1741 -0.0250
  526DPPI    C2 8298   0.423  14.256  10.555  0.0253  0.1291 -0.1401
  526DPPI    C3 8299   0.147  14.312  10.270  0.0934  0.0040 -0.2320
  526DPPI   PO4 8300   0.746  14.135  10.192 -0.2487 -0.0351  0.0871
  526DPPI   GL1 8301   1.038  14.106   9.862  0.2967  0.2561 -0.0594
  526DPPI   GL2 8302   0.963  13.801   9.823  0.1561  0.0528 -0.2550
  526DPPI   C1A 8303   1.052  14.046   9.372 -0.3664 -0.1089 -0.0508
  526DPPI   C2A 8304   1.295  13.863   8.951  0.2316  0.2522  0.4241
  526DPPI   C3A 8305   1.224  13.741   8.493  0.0889  0.1927  0.0945
  526DPPI   C4A 8306   1.087  13.724   8.144 -0.2464 -0.0823 -0.0664
  526DPPI   C1B 8307   0.958  13.546   9.452  0.1678  0.1642 -0.1291
  526DPPI   C2B 8308   1.341  13.385   9.236 -0.2537 -0.1601  0.2520
  526DPPI   C3B 8309   1.504  13.416   8.798 -0.3850 -0.0737 -0.3749
  526DPPI   C4B 8310   1.603  13.534   8.323  0.0898  0.2223  0.3106
  527DPPI    C1 8311   3.534  16.331  10.374 -0.0453  0.0272  0.0140
  527DPPI    C2 8312   3.714  16.192  10.703 -0.0890 -0.0608  0.0010
  527DPPI    C3 8313   3.671  16.586  10.650 -0.1880 -0.0497  0.1573
  527DPPI   PO4 8314   3.445  16.039  10.270  0.1585 -0.0942  0.0447
  527DPPI   GL1 8315   3.453  15.929   9.933 -0.0575  0.2859  0.0654
  527DPPI   GL2 8316   3.249  15.603   9.991  0.1933 -0.2987 -0.0919
  527DPPI   C1A 8317   3.564  15.957   9.534 -0.1078 -0.0645 -0.2534
  527DPPI   C2A 8318   3.690  15.954   9.125 -0.2342  0.0092 -0.1056
  527DPPI   C3A 8319   3.938  15.985   8.709 -0.1594  0.2063  0.0259
  527DPPI   C4A 8320   4.017  16.150   8.414 -0.0359 -0.0345 -0.0657
  527DPPI   C1B 8321   3.195  15.679   9.499 -0.0596 -0.0077 -0.3151
  527DPPI   C2B 8322   3.131  15.583   9.095  0.1729  0.1036 -0.1144
  527DPPI   C3B 8323   3.124  15.474   8.634  0.1295  0.0726  0.3565
  527DPPI   C4B 8324   3.083  15.552   8.272  0.0234  0.1338  0.0212
  528DPPI    C1 8325   5.970   9.089  10.602  0.1485  0.0581  0.1661
  528DPPI    C2 8326   6.111   8.856  10.895  0.3061  0.1932  0.1995
  528DPPI    C3 8327   5.787   9.083  10.957  0.1894  0.0318  0.1868
  528DPPI   PO4 8328   6.068   8.952  10.323 -0.0340  0.2294  0.3392
  528DPPI   GL1 8329   6.111   8.784   9.914 -0.0991  0.1205  0.0661
  528DPPI   GL2 8330   5.725   8.851   9.999 -0.1364  0.1906 -0.2351
  528DPPI   C1A 8331   6.310   8.928   9.566 -0.1117 -0.0518 -0.2317
  528DPPI   C2A 8332   6.224   8.890   9.123  0.0986 -0.1446 -0.0085
  528DPPI   C3A 8333   6.409   8.841   8.783  0.0101  0.0011 -0.1647
  528DPPI   C4A 8334   6.530   8.801   8.369 -0.0744  0.0557 -0.0834
  528DPPI   C1B 8335   5.654   8.958   9.537 -0.1785  0.1810  0.0009
  528DPPI   C2B 8336   5.647   8.849   9.112  0.0895  0.0925  0.0906
  528DPPI   C3B 8337   5.643   8.628   8.708 -0.0619  0.3123 -0.1936
  528DPPI   C4B 8338   5.733   8.607   8.196 -0.1073 -0.3019 -0.1977
  529DPPI    C1 8339  13.960  18.257  10.364  0.0396  0.1864 -0.1407
  529DPPI    C2 8340  14.291  18.203  10.582 -0.0764  0.3018  0.0666
  529DPPI    C3 8341  13.943  18.047  10.704 -0.1501  0.4020 -0.0144
  529DPPI   PO4 8342  14.132  18.218  10.107  0.0331  0.0422  0.2696
  529DPPI   GL1 8343  13.986  18.173   9.659  0.3377  0.2569 -0.2697
  529DPPI   GL2 8344  13.943  17.949   9.466  0.1989 -0.0379 -0.0829
  529DPPI   C1A 8345  13.725  18.515   9.383  0.0518 -0.0042 -0.0113
  529DPPI   C2A 8346  13.340  18.608   9.117  0.2217  0.0640 -0.0087
  529DPPI   C3A 8347  13.336  18.820   8.733 -0.0723 -0.1439  0.2636
  529DPPI   C4A 8348  13.567  18.833   8.396  0.0116 -0.2893  0.0494
  529DPPI   C1B 8349  13.904  18.097   9.089 -0.1974 -0.3367 -0.1161
  529DPPI   C2B 8350  14.001  18.109   8.715 -0.1143 -0.1751  0.0872
  529DPPI   C3B 8351  14.163  17.737   8.351  0.0357 -0.0625  0.0244
  529DPPI   C4B 8352  14.388  17.701   7.962  0.1864  0.0972 -0.0015
  530DPPI    C1 8353   9.820   7.284  10.304  0.2326 -0.1494  0.3391
  530DPPI    C2 8354   9.523   7.539  10.388  0.3227  0.0448  0.0816
  530DPPI    C3 8355   9.445   7.150  10.337  0.1150  0.0918  0.0345
  530DPPI   PO4 8356   9.947   7.388  10.216  0.1392 -0.2761 -0.0273
  530DPPI   GL1 8357  10.051   7.349   9.868  0.2711  0.0845 -0.0289
  530DPPI   GL2 8358  10.343   7.383   9.838  0.1250  0.1873 -0.0704
  530DPPI   C1A 8359   9.897   7.452   9.501 -0.3118  0.0439  0.4044
  530DPPI   C2A 8360   9.768   7.612   9.042  0.2916  0.2097  0.1675
  530DPPI   C3A 8361   9.608   7.747   8.665 -0.1330 -0.0670  0.1233
  530DPPI   C4A 8362   9.753   8.021   8.299  0.2493 -0.2123  0.0935
  530DPPI   C1B 8363  10.231   7.144   9.353 -0.1995 -0.0088 -0.0443
  530DPPI   C2B 8364  10.361   6.977   8.931 -0.1115 -0.1276 -0.2671
  530DPPI   C3B 8365  10.442   6.942   8.577  0.1568  0.2169 -0.0551
  530DPPI   C4B 8366  10.552   6.866   8.154  0.2250  0.3004 -0.2305
  531DPPI    C1 8367  12.631  11.627  10.452 -0.0894  0.0205  0.0801
  531DPPI    C2 8368  12.359  11.555  10.736 -0.1785  0.0152 -0.0059
  531DPPI    C3 8369  12.677  11.785  10.816 -0.0508 -0.2222  0.1824
  531DPPI   PO4 8370  12.402  11.533  10.214 -0.1228 -0.0753 -0.3701
  531DPPI   GL1 8371  12.072  11.456   9.948  0.0567  0.1867 -0.2552
  531DPPI   GL2 8372  11.805  11.485   9.916 -0.2677 -0.0997 -0.0603
  531DPPI   C1A 8373  12.158  11.410   9.521  0.1198 -0.0464  0.0453
  531DPPI   C2A 8374  12.216  11.272   9.070  0.0036  0.0893 -0.2403
  531DPPI   C3A 8375  12.161  11.284   8.664  0.4696 -0.0426  0.1202
  531DPPI   C4A 8376  12.236  11.226   8.250  0.0141  0.0314 -0.0764
  531DPPI   C1B 8377  11.704  11.221   9.601 -0.0480 -0.2134  0.0137
  531DPPI   C2B 8378  11.682  11.195   9.182  0.0752 -0.1333 -0.0802
  531DPPI   C3B 8379  11.647  11.182   8.768 -0.1016  0.0287 -0.0400
  531DPPI   C4B 8380  11.469  11.273   8.457 -0.1864 -0.2765  0.3335
  532DPPI    C1 8381   7.835   0.884  10.510  0.0992  0.1450 -0.0953
  532DPPI    C2 8382   7.687   1.125  10.227 -0.2875 -0.2574 -0.2475
  532DPPI    C3 8383   7.491   1.078  10.573  0.0387  0.0143 -0.0186
  532DPPI   PO4 8384   7.933   0.740  10.366  0.0654  0.0283 -0.3607
  532DPPI   GL1 8385   8.064   0.836  10.001 -0.1736  0.1184  0.0846
  532DPPI   GL2 8386   7.931   1.016   9.780 -0.1982 -0.0322 -0.1546
  532DPPI   C1A 8387   7.966   0.548   9.552  0.1536 -0.0519 -0.0969
  532DPPI   C2A 8388   8.150   0.421   9.314 -0.0309  0.2993 -0.1833
  532DPPI   C3A 8389   8.158   0.525   8.867 -0.0617 -0.0017  0.2108
  532DPPI   C4A 8390   8.253   0.899   8.581 -0.1752  0.2375  0.3486
  532DPPI   C1B 8391   7.759   1.300   9.503  0.2419 -0.0332  0.0255
  532DPPI   C2B 8392   7.603   1.369   9.150  0.1546 -0.0327 -0.0570
  532DPPI   C3B 8393   7.551   1.331   8.820  0.1844 -0.0626 -0.0585
  532DPPI   C4B 8394   7.858   1.206   8.518 -0.3532  0.0021 -0.2138
  533DPPI    C1 8395  17.744  17.583  10.452 -0.2173  0.1371  0.1152
  533DPPI    C2 8396  17.775  17.411  10.811 -0.0951  0.1713  0.1213
  533DPPI    C3 8397  17.712  17.805  10.783 -0.1107  0.1678  0.1052
  533DPPI   PO4 8398  17.912  17.557  10.214 -0.0415 -0.2363 -0.0905
  533DPPI   GL1 8399  18.086  17.711   9.748  0.0284 -0.2359  0.1822
  533DPPI   GL2 8400  17.947  17.839   9.805  0.0110 -0.1193  0.1862
  533DPPI   C1A 8401  18.030  17.579   9.203 -0.0189  0.2973  0.0282
  533DPPI   C2A 8402  18.061  17.625   8.738 -0.3393 -0.1449  0.0789
  533DPPI   C3A 8403  18.116  17.711   8.333  0.1724 -0.0844 -0.0655
  533DPPI   C4A 8404  18.140  17.605   7.870  0.2023  0.2902  0.0690
  533DPPI   C1B 8405  18.146  18.080   9.446  0.1703 -0.0695 -0.0521
  533DPPI   C2B 8406  18.136  18.085   9.041  0.0961 -0.0466 -0.1757
  533DPPI   C3B 8407  18.115  18.148   8.614 -0.1065  0.0846  0.0710
  533DPPI   C4B 8408  18.215  18.407   8.265  0.2872 -0.1715  0.1325
  534DPPI    C1 8409  11.976  16.519  10.428  0.0693 -0.2691 -0.1144
  534DPPI    C2 8410  12.187  16.672  10.731  0.0054 -0.1509 -0.1292
  534DPPI    C3 8411  12.007  16.317  10.772  0.0173 -0.1466 -0.0373
  534DPPI   PO4 8412  12.158  16.595  10.164 -0.1803 -0.1553  0.0551
  534DPPI   GL1 8413  12.192  16.387   9.815 -0.1568 -0.0246  0.3564
  534DPPI   GL2 8414  12.473  16.204   9.600 -0.0753 -0.1793  0.3200
  534DPPI   C1A 8415  12.091  16.488   9.437  0.2753  0.0166  0.5391
  534DPPI   C2A 8416  11.925  16.670   9.036  0.1640 -0.0729  0.1090
  534DPPI   C3A 8417  11.674  16.635   8.639 -0.0129 -0.0220 -0.0246
  534DPPI   C4A 8418  11.664  16.422   8.363 -0.0657 -0.0395  0.0781
  534DPPI   C1B 8419  12.776  16.386   9.273  0.2097  0.0625  0.2699
  534DPPI   C2B 8420  12.780  16.534   8.882  0.2498 -0.1439 -0.1165
  534DPPI   C3B 8421  12.833  16.450   8.423 -0.0183 -0.2813  0.1529
  534DPPI   C4B 8422  13.274  16.430   8.099  0.1917  0.0022  0.1785
  535DPPI    C1 8423  17.278  13.400   9.921 -0.0095 -0.0905 -0.0125
  535DPPI    C2 8424  17.179  13.289  10.292  0.3816  0.0635  0.1439
  535DPPI    C3 8425  17.229  13.676  10.205  0.0202  0.0514 -0.1436
  535DPPI   PO4 8426  17.267  13.182   9.760  0.2418  0.0744  0.2353
  535DPPI   GL1 8427  17.071  12.932   9.447  0.0736 -0.0067 -0.2679
  535DPPI   GL2 8428  16.995  12.586   9.520  0.0291 -0.3908 -0.1700
  535DPPI   C1A 8429  16.810  13.130   9.144 -0.1784 -0.2887 -0.1357
  535DPPI   C2A 8430  16.895  13.244   8.648  0.0452 -0.2441 -0.0579
  535DPPI   C3A 8431  17.068  13.194   8.249 -0.0333 -0.1501  0.1650
  535DPPI   C4A 8432  17.113  13.296   7.758 -0.0200 -0.0247  0.0714
  535DPPI   C1B 8433  16.857  12.350   9.126 -0.0214 -0.1431  0.2266
  535DPPI   C2B 8434  16.911  12.373   8.733 -0.2671  0.1923 -0.1201
  535DPPI   C3B 8435  17.108  12.479   8.396  0.0244 -0.3139  0.1616
  535DPPI   C4B 8436  17.341  12.779   8.172  0.3920  0.0024 -0.1830
  536DPPI    C1 8437  13.485   3.436  10.054  0.0118  0.0445 -0.1248
  536DPPI    C2 8438  13.790   3.689  10.110 -0.0891  0.1513 -0.0545
  536DPPI    C3 8439  13.536   3.612  10.410 -0.0396 -0.0601 -0.0651
  536DPPI   PO4 8440  13.406   3.455   9.891  0.0241 -0.0548 -0.1117
  536DPPI   GL1 8441  13.461   3.176   9.537  0.3766 -0.0673 -0.1984
  536DPPI   GL2 8442  13.650   2.972   9.641 -0.1052 -0.3093 -0.0688
  536DPPI   C1A 8443  13.508   3.006   9.142  0.1155  0.2768 -0.1670
  536DPPI   C2A 8444  13.535   2.918   8.712 -0.0725  0.0679 -0.1239
  536DPPI   C3A 8445  13.603   2.861   8.276 -0.2720 -0.0557 -0.2731
  536DPPI   C4A 8446  13.728   2.693   7.852 -0.0132  0.2723 -0.0707
  536DPPI   C1B 8447  13.488   2.654   9.483  0.0188  0.0104 -0.0680
  536DPPI   C2B 8448  13.352   2.569   9.064 -0.1199 -0.1193 -0.1395
  536DPPI   C3B 8449  13.374   2.466   8.627 -0.0282  0.1961  0.1355
  536DPPI   C4B 8450  13.353   2.462   8.072  0.0880  0.0607 -0.0483
  537DPPI    C1 8451  16.695  10.375  10.864  0.0148  0.0099  0.1576
  537DPPI    C2 8452  17.025  10.378  11.091  0.0656 -0.2530  0.0907
  537DPPI    C3 8453  16.669  10.297  11.255  0.0175  0.1190  0.1802
  537DPPI   PO4 8454  16.843  10.312  10.582  0.1860  0.0131  0.1753
  537DPPI   GL1 8455  16.967  10.558  10.272  0.1059  0.0515 -0.2470
  537DPPI   GL2 8456  16.762  10.870  10.249 -0.1012  0.0512 -0.2286
  537DPPI   C1A 8457  16.990  10.603   9.840 -0.0194 -0.1491 -0.0455
  537DPPI   C2A 8458  17.220  10.455   9.473 -0.4071  0.0428  0.0503
  537DPPI   C3A 8459  17.263  10.627   9.162  0.1079 -0.0744 -0.0624
  537DPPI   C4A 8460  17.122  11.000   8.973  0.1605  0.1884 -0.3044
  537DPPI   C1B 8461  16.475  10.739   9.797 -0.1694  0.1942  0.1643
  537DPPI   C2B 8462  16.248  10.701   9.368  0.0987  0.3423 -0.2420
  537DPPI   C3B 8463  16.328  10.686   8.893  0.0021  0.3799  0.3017
  537DPPI   C4B 8464  16.581  10.751   8.543  0.2579 -0.3239  0.0033
  538DPPI    C1 8465   9.192  11.175  10.582  0.0779  0.0632  0.1342
  538DPPI    C2 8466   8.920  11.036  10.840 -0.0366 -0.0783 -0.0595
  538DPPI    C3 8467   9.293  11.110  10.963 -0.0815 -0.1737  0.1389
  538DPPI   PO4 8468   9.010  11.352  10.433  0.0203 -0.1192  0.4548
  538DPPI   GL1 8469   8.929  11.593  10.133 -0.1430  0.1783 -0.1324
  538DPPI   GL2 8470   8.637  11.375  10.129 -0.1867 -0.1618  0.4795
  538DPPI   C1A 8471   8.840  11.802   9.792  0.1556  0.4051 -0.0955
  538DPPI   C2A 8472   8.871  11.730   9.296  0.2046 -0.0573  0.0901
  538DPPI   C3A 8473   8.819  11.771   8.833 -0.3461  0.2072 -0.0802
  538DPPI   C4A 8474   8.656  11.839   8.422 -0.1000 -0.0760 -0.3248
  538DPPI   C1B 8475   8.621  11.293   9.734  0.0833  0.5799 -0.1040
  538DPPI   C2B 8476   8.642  11.263   9.334  0.1471  0.1982  0.0980
  538DPPI   C3B 8477   8.713  11.198   8.900  0.0763  0.0594 -0.0067
  538DPPI   C4B 8478   8.641  11.391   8.551  0.0227  0.0429 -0.0192
  539DPPI    C1 8479   7.479   4.449   9.471 -0.1015 -0.0625 -0.0546
  539DPPI    C2 8480   7.790   4.255   9.632 -0.2502  0.0042  0.3224
  539DPPI    C3 8481   7.523   4.056   9.410  0.0594 -0.0529 -0.0069
  539DPPI   PO4 8482   7.613   4.732   9.372  0.0122 -0.1543  0.1550
  539DPPI   GL1 8483   7.575   4.751   8.988 -0.1240 -0.0425  0.1577
  539DPPI   GL2 8484   7.544   5.167   9.090 -0.0968  0.2774  0.1190
  539DPPI   C1A 8485   7.639   4.589   8.613  0.0563 -0.0094 -0.2516
  539DPPI   C2A 8486   7.743   4.453   8.195  0.0592  0.0710 -0.3120
  539DPPI   C3A 8487   7.979   4.308   7.879 -0.0796  0.0097  0.1240
  539DPPI   C4A 8488   8.177   4.392   7.490  0.3450 -0.0246  0.0312
  539DPPI   C1B 8489   7.724   5.353   8.688 -0.0034 -0.2167  0.0821
  539DPPI   C2B 8490   7.693   5.402   8.173 -0.2687  0.2126 -0.0376
  539DPPI   C3B 8491   7.850   5.694   7.927 -0.1389 -0.1774  0.0725
  539DPPI   C4B 8492   8.143   5.890   7.670 -0.2216  0.1009 -0.3755
  540DPPI    C1 8493  10.148  13.094  10.138  0.0029  0.0318  0.0727
  540DPPI    C2 8494   9.842  13.330  10.244 -0.0421 -0.0129  0.0429
  540DPPI    C3 8495  10.215  13.474  10.245 -0.0699  0.0598  0.0200
  540DPPI   PO4 8496  10.131  13.068   9.898  0.2530  0.1807 -0.1077
  540DPPI   GL1 8497  10.133  13.088   9.539 -0.3449 -0.0480  0.0359
  540DPPI   GL2 8498  10.504  12.945   9.444  0.0375  0.0355 -0.1801
  540DPPI   C1A 8499  10.032  12.975   9.176 -0.2092  0.0954  0.1413
  540DPPI   C2A 8500  10.198  12.971   8.814 -0.0369 -0.0478  0.0315
  540DPPI   C3A 8501  10.355  12.749   8.440 -0.1948  0.2014 -0.1739
  540DPPI   C4A 8502  10.319  12.687   8.018  0.4615 -0.1307 -0.0692
  540DPPI   C1B 8503  10.659  12.720   9.020 -0.3788 -0.1761 -0.0254
  540DPPI   C2B 8504  10.535  12.357   8.673  0.0623 -0.0675  0.1235
  540DPPI   C3B 8505  10.613  12.266   8.263 -0.1288  0.1972  0.2001
  540DPPI   C4B 8506  10.633  12.367   7.811 -0.1144  0.0913  0.0385
  541DPPI    C1 8507  14.834  12.118  10.252 -0.0733  0.0979 -0.1032
  541DPPI    C2 8508  14.757  12.509  10.216  0.0913  0.1592  0.1770
  541DPPI    C3 8509  14.564  12.292  10.491 -0.1336  0.0010 -0.1003
  541DPPI   PO4 8510  14.771  12.001  10.036 -0.0840 -0.0562 -0.1144
  541DPPI   GL1 8511  14.622  11.976   9.619  0.3025 -0.2163 -0.0002
  541DPPI   GL2 8512  14.327  11.833   9.745 -0.1226  0.1781 -0.1421
  541DPPI   C1A 8513  14.409  11.968   9.217  0.1728  0.1222  0.2536
  541DPPI   C2A 8514  14.565  11.974   8.811  0.0907 -0.3922 -0.0172
  541DPPI   C3A 8515  14.661  12.163   8.504 -0.1416 -0.0641 -0.0679
  541DPPI   C4A 8516  14.611  12.151   8.061  0.1225  0.2588  0.3355
  541DPPI   C1B 8517  14.299  11.483   9.572 -0.0054 -0.0822  0.2105
  541DPPI   C2B 8518  14.076  11.204   9.280  0.3613 -0.1127  0.0428
  541DPPI   C3B 8519  14.050  11.221   8.767 -0.1720  0.1199 -0.0888
  541DPPI   C4B 8520  13.900  11.080   8.367  0.0945  0.3089  0.0211
  542DPPI    C1 8521  12.613  13.679  10.265 -0.0387 -0.0471 -0.0444
  542DPPI    C2 8522  12.987  13.806  10.329  0.0310 -0.1514 -0.2356
  542DPPI    C3 8523  12.777  13.643  10.628  0.1329 -0.0806 -0.1244
  542DPPI   PO4 8524  12.612  13.496  10.057 -0.0693  0.2009  0.0736
  542DPPI   GL1 8525  12.528  13.613   9.646  0.1622  0.1467  0.2124
  542DPPI   GL2 8526  12.382  13.872   9.717  0.0014 -0.2187 -0.0188
  542DPPI   C1A 8527  12.676  13.616   9.186 -0.0558 -0.0279 -0.0467
  542DPPI   C2A 8528  12.631  13.557   8.728  0.2302  0.1681 -0.0506
  542DPPI   C3A 8529  12.854  13.806   8.371  0.0916 -0.2592  0.0850
  542DPPI   C4A 8530  13.141  13.908   8.060 -0.0842  0.0800 -0.3116
  542DPPI   C1B 8531  12.537  14.176   9.344  0.3729 -0.1087  0.4132
  542DPPI   C2B 8532  12.510  14.042   8.851 -0.0772  0.0837  0.1442
  542DPPI   C3B 8533  12.332  13.911   8.444 -0.0059 -0.0562 -0.0159
  542DPPI   C4B 8534  12.088  14.201   8.132  0.0160  0.1157  0.3029
  543DPPI    C1 8535   6.426  15.174  10.481 -0.0141  0.3583  0.0060
  543DPPI    C2 8536   6.429  14.827  10.680 -0.1546  0.2508 -0.1758
  543DPPI    C3 8537   6.769  15.033  10.631 -0.0397  0.0547 -0.2130
  543DPPI   PO4 8538   6.319  15.127  10.305 -0.0599  0.1614 -0.1695
  543DPPI   GL1 8539   6.086  15.334   9.894  0.0097  0.0641 -0.2525
  543DPPI   GL2 8540   6.373  15.437   9.830  0.0009 -0.0366  0.1427
  543DPPI   C1A 8541   6.040  15.205   9.403 -0.0367 -0.1287 -0.1343
  543DPPI   C2A 8542   6.145  15.185   8.958 -0.3891  0.2406  0.3253
  543DPPI   C3A 8543   6.383  15.093   8.600 -0.1941 -0.2204  0.0092
  543DPPI   C4A 8544   6.591  15.290   8.216  0.0131 -0.7265  0.0210
  543DPPI   C1B 8545   6.610  15.405   9.432  0.4064  0.1306 -0.0169
  543DPPI   C2B 8546   6.656  15.368   8.964  0.2290  0.2599  0.1162
  543DPPI   C3B 8547   6.878  15.494   8.538  0.2467  0.0865  0.2341
  543DPPI   C4B 8548   7.044  15.504   8.166 -0.3692  0.0270  0.1273
  544DPPI    C1 8549   9.683  18.031  10.222 -0.2046  0.0037  0.1719
  544DPPI    C2 8550   9.842  17.880  10.557 -0.1069  0.2734  0.2494
  544DPPI    C3 8551   9.468  18.020  10.559 -0.1349  0.1993  0.2241
  544DPPI   PO4 8552   9.714  17.794  10.017  0.1301  0.0271  0.0403
  544DPPI   GL1 8553   9.915  17.639   9.703 -0.0644  0.0656 -0.0869
  544DPPI   GL2 8554   9.634  17.843   9.527 -0.1963  0.0306  0.1635
  544DPPI   C1A 8555  10.008  17.422   9.351 -0.0166  0.2032  0.2344
  544DPPI   C2A 8556  10.122  17.147   9.105 -0.2045  0.2141 -0.4068
  544DPPI   C3A 8557  10.054  16.934   8.787 -0.2643 -0.1223  0.3002
  544DPPI   C4A 8558  10.126  16.947   8.430  0.1633  0.0417 -0.0844
  544DPPI   C1B 8559   9.605  17.649   9.153 -0.0681 -0.2190 -0.2057
  544DPPI   C2B 8560   9.845  17.533   8.874 -0.4447 -0.0454  0.3116
  544DPPI   C3B 8561   9.920  17.413   8.534 -0.2677  0.0134  0.1600
  544DPPI   C4B 8562  10.117  17.384   8.166 -0.0750 -0.2670 -0.1408
  545DPPI    C1 8563   5.123  12.601  10.762  0.0612  0.1141  0.0175
  545DPPI    C2 8564   5.396  12.341  10.897 -0.3298 -0.1533  0.3181
  545DPPI    C3 8565   5.101  12.463  11.137 -0.3019  0.3768  0.0977
  545DPPI   PO4 8566   5.261  12.563  10.405  0.0811 -0.1207 -0.1203
  545DPPI   GL1 8567   5.205  12.725  10.003 -0.2214  0.1944 -0.2781
  545DPPI   GL2 8568   5.582  12.894  10.024  0.0259 -0.2698 -0.2967
  545DPPI   C1A 8569   5.354  12.694   9.532 -0.0435 -0.1957  0.0347
  545DPPI   C2A 8570   5.655  12.760   9.231 -0.2582 -0.0065 -0.0332
  545DPPI   C3A 8571   5.715  12.672   8.828 -0.5183  0.4205 -0.0486
  545DPPI   C4A 8572   5.732  12.749   8.466  0.0076 -0.0907  0.1648
  545DPPI   C1B 8573   5.747  12.567   9.858 -0.1942  0.1873 -0.0614
  545DPPI   C2B 8574   6.045  12.389   9.561  0.2307 -0.1290  0.1817
  545DPPI   C3B 8575   6.131  12.488   9.100  0.0793  0.1062 -0.1464
  545DPPI   C4B 8576   6.203  12.416   8.719 -0.2629  0.1617  0.0120
  546DPPI    C1 8577  14.209   6.444  10.083 -0.0804 -0.2489 -0.0792
  546DPPI    C2 8578  14.453   6.623  10.345 -0.2697  0.2474 -0.2284
  546DPPI    C3 8579  14.604   6.446  10.019 -0.0720  0.0579 -0.0371
  546DPPI   PO4 8580  13.989   6.637  10.146  0.1153  0.0520  0.3340
  546DPPI   GL1 8581  13.631   6.829   9.906  0.0478  0.4522  0.1136
  546DPPI   GL2 8582  13.825   7.049   9.821  0.0847  0.0666 -0.0748
  546DPPI   C1A 8583  13.695   6.770   9.438  0.0761  0.4573 -0.2583
  546DPPI   C2A 8584  13.639   6.926   9.073  0.0996 -0.2104 -0.0563
  546DPPI   C3A 8585  13.760   7.029   8.622 -0.2140  0.1307  0.0916
  546DPPI   C4A 8586  13.789   7.208   8.229  0.0942  0.1056  0.0495
  546DPPI   C1B 8587  13.956   7.170   9.522  0.1032  0.0672 -0.0783
  546DPPI   C2B 8588  14.032   7.165   9.004  0.0704 -0.0038  0.0131
  546DPPI   C3B 8589  14.188   7.332   8.608 -0.1329  0.0454  0.2678
  546DPPI   C4B 8590  14.302   7.120   8.031  0.0889 -0.0199 -0.0050
  547DPPI    C1 8591  13.902   9.003  10.294 -0.0301  0.2341  0.1274
  547DPPI    C2 8592  14.148   9.319  10.291  0.3300 -0.0337  0.4671
  547DPPI    C3 8593  13.906   9.256  10.604 -0.0847  0.1551  0.1929
  547DPPI   PO4 8594  13.808   8.971  10.005 -0.1055  0.1008  0.1360
  547DPPI   GL1 8595  13.763   9.182   9.612  0.1640  0.0453 -0.0266
  547DPPI   GL2 8596  13.998   9.427   9.731 -0.2793  0.2610 -0.0876
  547DPPI   C1A 8597  13.816   9.207   9.173  0.0905  0.1691 -0.0992
  547DPPI   C2A 8598  13.775   9.267   8.744 -0.3222 -0.0172 -0.3563
  547DPPI   C3A 8599  13.874   9.345   8.334  0.3492  0.2410 -0.0357
  547DPPI   C4A 8600  13.714   9.233   7.957  0.1024  0.1771  0.0469
  547DPPI   C1B 8601  13.925   9.649   9.308 -0.1171  0.1954  0.0684
  547DPPI   C2B 8602  13.728   9.717   8.951 -0.0747  0.1117 -0.1551
  547DPPI   C3B 8603  13.672   9.742   8.591  0.0587  0.1073 -0.0499
  547DPPI   C4B 8604  13.621   9.773   8.268 -0.1260  0.2024 -0.0356
  548DPPI    C1 8605  16.978  11.434  10.614 -0.0979  0.1087  0.0692
  548DPPI    C2 8606  17.121  11.808  10.615 -0.0252  0.0828  0.3856
  548DPPI    C3 8607  16.814  11.711  10.852  0.0332 -0.0870  0.3936
  548DPPI   PO4 8608  17.030  11.318  10.243 -0.0894 -0.1475 -0.0512
  548DPPI   GL1 8609  17.161  11.159   9.950  0.0496 -0.0625  0.1809
  548DPPI   GL2 8610  17.379  10.873   9.801 -0.0788 -0.0882 -0.1681
  548DPPI   C1A 8611  16.988  11.023   9.579  0.2083  0.2263 -0.0773
  548DPPI   C2A 8612  16.762  10.761   9.234  0.1899  0.0973  0.0910
  548DPPI   C3A 8613  16.815  10.551   8.923 -0.0530  0.0265 -0.3010
  548DPPI   C4A 8614  17.109  10.585   8.650  0.1638 -0.2256 -0.4865
  548DPPI   C1B 8615  17.430  11.087   9.427  0.2700 -0.1796 -0.0655
  548DPPI   C2B 8616  17.618  11.036   8.960  0.0055 -0.0072 -0.1898
  548DPPI   C3B 8617  17.523  10.896   8.579  0.2116  0.1304  0.0615
  548DPPI   C4B 8618  17.396  10.653   8.205  0.2114 -0.2938 -0.0968
  549DPPI    C1 8619  13.807  12.416  10.368  0.0203 -0.0317  0.0798
  549DPPI    C2 8620  14.087  12.238  10.591  0.0184 -0.1781 -0.0329
  549DPPI    C3 8621  13.795  12.448  10.767  0.1345 -0.1187  0.0906
  549DPPI   PO4 8622  13.894  12.478  10.128  0.2263  0.1545  0.1103
  549DPPI   GL1 8623  13.968  12.494   9.694 -0.0535  0.0274 -0.2039
  549DPPI   GL2 8624  14.279  12.369   9.516 -0.0999 -0.1018  0.1166
  549DPPI   C1A 8625  13.993  12.818   9.371 -0.2742  0.1838  0.1695
  549DPPI   C2A 8626  13.954  12.905   8.973  0.2256 -0.0367  0.2074
  549DPPI   C3A 8627  14.075  13.017   8.478  0.1769  0.0360 -0.1575
  549DPPI   C4A 8628  14.011  12.927   8.059  0.1173  0.2309 -0.1820
  549DPPI   C1B 8629  14.148  12.370   9.045  0.1335  0.1595 -0.3692
  549DPPI   C2B 8630  14.045  12.213   8.625  0.3293  0.0078 -0.0099
  549DPPI   C3B 8631  14.132  11.989   8.212  0.0358 -0.0720 -0.0854
  549DPPI   C4B 8632  14.171  11.439   8.135 -0.1512  0.2946 -0.1392
  550DPPI    C1 8633   0.966   5.474  10.328  0.0397 -0.0492  0.1956
  550DPPI    C2 8634   1.105   5.478  10.703  0.1500 -0.0158  0.1549
  550DPPI    C3 8635   1.354   5.408  10.398  0.0873  0.0986  0.0766
  550DPPI   PO4 8636   0.758   5.393  10.311 -0.0571 -0.1734  0.3546
  550DPPI   GL1 8637   0.552   5.349  10.022  0.0061 -0.1036  0.1084
  550DPPI   GL2 8638   0.853   5.418   9.776 -0.2570 -0.2454  0.0602
  550DPPI   C1A 8639   0.367   5.211   9.634 -0.0466  0.1635 -0.0438
  550DPPI   C2A 8640   0.411   5.244   9.138  0.1149  0.0377  0.2609
  550DPPI   C3A 8641   0.660   5.202   8.735 -0.1396 -0.0536 -0.0905
  550DPPI   C4A 8642   0.900   5.062   8.395  0.0246 -0.3166  0.2856
  550DPPI   C1B 8643   0.852   5.352   9.277 -0.2586  0.0366 -0.1529
  550DPPI   C2B 8644   1.011   4.928   9.075 -0.2113  0.0677  0.0920
  550DPPI   C3B 8645   0.840   4.631   8.802 -0.4702 -0.1869 -0.2357
  550DPPI   C4B 8646   0.793   4.510   8.403  0.2298 -0.2390  0.3323
  551DPPI    C1 8647  11.554  16.885  10.397 -0.0163  0.0062  0.1324
  551DPPI    C2 8648  11.374  16.984  10.741  0.0751  0.2684  0.1073
  551DPPI    C3 8649  11.752  16.854  10.743 -0.1701 -0.4940  0.1834
  551DPPI   PO4 8650  11.292  16.771  10.221  0.1429  0.1483  0.0553
  551DPPI   GL1 8651  10.936  16.655   9.983  0.1033 -0.1253  0.1593
  551DPPI   GL2 8652  10.889  16.956   9.977 -0.3339  0.0706  0.0167
  551DPPI   C1A 8653  11.249  16.593   9.623  0.0238  0.1176  0.3733
  551DPPI   C2A 8654  11.649  16.345   9.574  0.1384 -0.0644 -0.1746
  551DPPI   C3A 8655  11.734  16.197   9.148 -0.4440 -0.1815 -0.1856
  551DPPI   C4A 8656  11.913  16.232   8.750 -0.1200 -0.1058  0.1125
  551DPPI   C1B 8657  11.100  17.056   9.665 -0.0610  0.0455  0.0032
  551DPPI   C2B 8658  11.057  17.080   9.277  0.0457 -0.0916 -0.3629
  551DPPI   C3B 8659  11.134  16.853   8.825 -0.2509  0.0396  0.1734
  551DPPI   C4B 8660  11.280  16.775   8.385  0.2552 -0.1382 -0.0798
  552DPPI    C1 8661   4.468   6.048  10.419 -0.1028 -0.0952 -0.2672
  552DPPI    C2 8662   4.293   5.807  10.686  0.1682  0.0405  0.0406
  552DPPI    C3 8663   4.088   6.111  10.525  0.0110 -0.0261  0.1129
  552DPPI   PO4 8664   4.591   5.958  10.247 -0.0188  0.2533 -0.1642
  552DPPI   GL1 8665   4.696   6.064   9.804  0.0676  0.2351  0.0761
  552DPPI   GL2 8666   4.986   6.066   9.639  0.0204  0.2355  0.0403
  552DPPI   C1A 8667   4.412   6.244   9.437  0.1468  0.0954 -0.0622
  552DPPI   C2A 8668   4.192   6.124   9.086  0.3053 -0.1334  0.1139
  552DPPI   C3A 8669   3.866   6.029   8.819 -0.0497  0.0566 -0.1560
  552DPPI   C4A 8670   3.703   6.005   8.483 -0.1470  0.0148  0.0216
  552DPPI   C1B 8671   4.892   6.213   9.234 -0.0030  0.2870 -0.1175
  552DPPI   C2B 8672   5.073   6.279   8.715 -0.0951 -0.1660  0.0514
  552DPPI   C3B 8673   5.088   6.371   8.271  0.3884  0.3172 -0.0114
  552DPPI   C4B 8674   4.990   6.319   7.808  0.1372  0.2147  0.1275
  553DPPI    C1 8675  13.803  10.883  10.534 -0.1518 -0.0329 -0.0369
  553DPPI    C2 8676  14.040  10.584  10.655 -0.1048  0.0059 -0.0334
  553DPPI    C3 8677  13.660  10.600  10.778 -0.0464  0.0674  0.1432
  553DPPI   PO4 8678  13.771  10.881  10.270 -0.1980 -0.0723  0.2670
  553DPPI   GL1 8679  13.946  10.935   9.960 -0.2534  0.1289 -0.0209
  553DPPI   GL2 8680  13.970  11.156   9.818 -0.0511  0.2285  0.1338
  553DPPI   C1A 8681  14.045  10.804   9.562 -0.1600 -0.0943 -0.0917
  553DPPI   C2A 8682  14.047  10.660   9.131 -0.1248  0.1659  0.3266
  553DPPI   C3A 8683  13.987  10.672   8.769  0.2586  0.0499  0.2224
  553DPPI   C4A 8684  14.030  10.573   8.406 -0.0301  0.0901  0.0990
  553DPPI   C1B 8685  13.581  10.983   9.583  0.2267 -0.0466 -0.1877
  553DPPI   C2B 8686  13.467  10.881   9.188 -0.0687 -0.1211 -0.1894
  553DPPI   C3B 8687  13.484  10.986   8.715 -0.2416 -0.0129 -0.2522
  553DPPI   C4B 8688  13.529  10.750   8.353 -0.2558  0.2572 -0.0439
  554PYPI    C1 8689   0.445  16.023   9.904  0.3042 -0.0724  0.1349
  554PYPI    C2 8690   0.117  16.049  10.131  0.1752  0.0217 -0.0597
  554PYPI    C3 8691   0.458  16.219  10.253  0.1257  0.0118  0.0955
  554PYPI   PO4 8692   0.556  15.735   9.863 -0.1930 -0.2147  0.0233
  554PYPI   GL1 8693   0.677  15.439   9.645  0.0900  0.3288  0.0034
  554PYPI   GL2 8694   0.984  15.258   9.582 -0.2752 -0.2095  0.0098
  554PYPI   C1A 8695   0.663  15.581   9.235  0.0090  0.2843 -0.0235
  554PYPI   C2A 8696   0.561  15.564   8.863 -0.1488 -0.2799 -0.0716
  554PYPI   D3A 8697   0.457  15.565   8.429  0.2707  0.0076 -0.1793
  554PYPI   C4A 8698   0.507  15.289   8.213 -0.0879 -0.1185 -0.0757
  554PYPI   C1B 8699   0.801  15.053   9.245 -0.2190 -0.0361 -0.2369
  554PYPI   C2B 8700   0.798  15.101   8.880  0.2485  0.1936  0.1469
  554PYPI   C3B 8701   0.922  15.186   8.405  0.0277 -0.2108 -0.1021
  554PYPI   C4B 8702   0.841  14.929   8.080  0.0334 -0.4587  0.1149
  555PYPI    C1 8703   1.466   6.676  10.919  0.0496 -0.1023 -0.1724
  555PYPI    C2 8704   1.225   6.382  10.796 -0.0812 -0.1049  0.0830
  555PYPI    C3 8705   1.517   6.304  11.058  0.0349 -0.0514 -0.0292
  555PYPI   PO4 8706   1.423   6.824  10.642  0.0149  0.0589  0.0105
  555PYPI   GL1 8707   1.384   6.878  10.162  0.1687  0.0461  0.2661
  555PYPI   GL2 8708   1.575   7.098   9.989  0.1919  0.1591  0.3251
  555PYPI   C1A 8709   1.411   6.640   9.743 -0.1301 -0.0385  0.2439
  555PYPI   C2A 8710   1.442   6.620   9.338  0.0590  0.0625 -0.1965
  555PYPI   D3A 8711   1.275   6.440   9.010 -0.1375 -0.3445  0.1233
  555PYPI   C4A 8712   1.285   6.736   8.698  0.0590 -0.0368  0.0952
  555PYPI   C1B 8713   1.586   7.168   9.552 -0.1955  0.0834 -0.0719
  555PYPI   C2B 8714   1.585   7.067   9.100  0.1191  0.0461  0.3669
  555PYPI   C3B 8715   1.662   7.041   8.636  0.2599  0.0542 -0.2589
  555PYPI   C4B 8716   1.735   7.203   8.270 -0.0918 -0.0050  0.2917
  556PYPI    C1 8717  14.313   3.816  10.416 -0.0371 -0.0189  0.0088
  556PYPI    C2 8718  13.998   3.699  10.632 -0.0227  0.0279  0.0553
  556PYPI    C3 8719  14.325   3.837  10.815  0.0677 -0.1263  0.0119
  556PYPI   PO4 8720  14.328   3.564  10.180 -0.0672  0.2542 -0.1195
  556PYPI   GL1 8721  14.436   3.593   9.711 -0.1292 -0.0455  0.1345
  556PYPI   GL2 8722  14.536   3.336   9.577 -0.0239  0.0553 -0.1790
  556PYPI   C1A 8723  14.381   3.742   9.275 -0.0515 -0.0226  0.2702
  556PYPI   C2A 8724  14.214   3.502   8.920 -0.2489 -0.1817  0.4349
  556PYPI   D3A 8725  14.404   3.281   8.588 -0.1633 -0.0752  0.0535
  556PYPI   C4A 8726  14.678   3.113   8.294  0.0991  0.0537  0.0890
  556PYPI   C1B 8727  14.597   3.157   9.176 -0.1362  0.0640 -0.1226
  556PYPI   C2B 8728  14.821   3.022   8.744  0.2197  0.1499 -0.1628
  556PYPI   C3B 8729  15.133   3.162   8.508 -0.2404  0.0640 -0.0332
  556PYPI   C4B 8730  15.153   3.304   8.126 -0.0466  0.1247 -0.1550
  557PYPI    C1 8731  10.672  13.909   9.779 -0.2406 -0.3341 -0.1102
  557PYPI    C2 8732  10.647  13.814  10.167  0.2238  0.1684  0.0547
  557PYPI    C3 8733  10.649  14.198  10.055  0.1802  0.0304 -0.4423
  557PYPI   PO4 8734  10.874  13.750   9.684  0.2056 -0.1976  0.0731
  557PYPI   GL1 8735  10.966  13.704   9.273  0.0206 -0.2009  0.4423
  557PYPI   GL2 8736  10.604  13.856   9.288 -0.0304  0.1934 -0.0693
  557PYPI   C1A 8737  11.068  13.987   8.989 -0.0478 -0.1871 -0.0693
  557PYPI   C2A 8738  11.173  14.145   8.669  0.1034  0.2144 -0.1036
  557PYPI   D3A 8739  10.927  14.053   8.352  0.0683  0.0709  0.3146
  557PYPI   C4A 8740  11.262  13.966   8.111  0.0177 -0.4451  0.0683
  557PYPI   C1B 8741  10.582  13.868   8.842  0.0302  0.1712 -0.2386
  557PYPI   C2B 8742  10.443  13.926   8.356 -0.2346 -0.1482  0.0690
  557PYPI   C3B 8743  10.125  13.684   8.200  0.2742 -0.2946  0.3068
  557PYPI   C4B 8744   9.917  13.592   7.720  0.0609 -0.0900  0.0898
  558PYPI    C1 8745   0.300   8.739  10.680 -0.0803  0.0919  0.0652
  558PYPI    C2 8746  -0.082   8.790  10.787 -0.1338 -0.2085  0.0247
  558PYPI    C3 8747   0.195   8.715  11.065 -0.0944  0.0563  0.0592
  558PYPI   PO4 8748   0.258   8.570  10.465 -0.0318 -0.1398 -0.1411
  558PYPI   GL1 8749   0.274   8.483  10.044  0.0327  0.2043  0.1791
  558PYPI   GL2 8750   0.569   8.546   9.986 -0.1253  0.0390  0.0040
  558PYPI   C1A 8751   0.203   8.211   9.700 -0.1183  0.0456 -0.2934
  558PYPI   C2A 8752  -0.012   8.051   9.195  0.0803 -0.2144  0.0083
  558PYPI   D3A 8753  -0.221   7.807   8.865 -0.3061  0.0583 -0.0207
  558PYPI   C4A 8754  -0.088   7.708   8.432  0.1203 -0.3618 -0.2774
  558PYPI   C1B 8755   0.927   8.336   9.786  0.0220 -0.0783 -0.2950
  558PYPI   C2B 8756   0.785   7.850   9.746  0.0635  0.0736  0.2191
  558PYPI   C3B 8757   1.080   7.593   9.842 -0.1940 -0.3526 -0.3292
  558PYPI   C4B 8758   1.393   7.565   9.645 -0.0548 -0.3462  0.0234
  559PYPI    C1 8759   2.659  13.262  10.397  0.1237 -0.1623 -0.0124
  559PYPI    C2 8760   2.345  13.108  10.204  0.0137 -0.2339  0.2209
  559PYPI    C3 8761   2.523  12.899  10.495  0.1754 -0.1255  0.2010
  559PYPI   PO4 8762   2.686  13.444  10.255 -0.0894 -0.1012 -0.4213
  559PYPI   GL1 8763   2.772  13.650   9.892 -0.0951 -0.0111  0.0995
  559PYPI   GL2 8764   2.440  13.747   9.765  0.0484 -0.0256  0.1418
  559PYPI   C1A 8765   2.868  13.500   9.444 -0.3672 -0.0711 -0.0499
  559PYPI   C2A 8766   2.870  13.552   9.054 -0.3220 -0.2786 -0.0100
  559PYPI   D3A 8767   3.036  13.469   8.635  0.1699 -0.2877 -0.1778
  559PYPI   C4A 8768   2.948  13.620   8.296 -0.2665  0.1213  0.0201
  559PYPI   C1B 8769   2.432  13.837   9.357 -0.1022 -0.0893 -0.0918
  559PYPI   C2B 8770   2.463  13.820   8.967 -0.2882 -0.0232  0.1466
  559PYPI   C3B 8771   2.511  13.794   8.605  0.0798 -0.0423 -0.1660
  559PYPI   C4B 8772   2.591  13.992   8.191 -0.1239  0.3730 -0.1170
  560PYPI    C1 8773   7.994  13.631  10.473  0.2805 -0.0519 -0.0997
  560PYPI    C2 8774   7.645  13.516  10.632  0.1456 -0.0763 -0.4066
  560PYPI    C3 8775   7.977  13.306  10.706  0.1132 -0.0079 -0.0492
  560PYPI   PO4 8776   7.978  13.668  10.224  0.0551  0.0148  0.1342
  560PYPI   GL1 8777   7.688  13.632   9.889 -0.1265  0.0960 -0.3641
  560PYPI   GL2 8778   7.710  13.970   9.865 -0.2372  0.1508  0.2533
  560PYPI   C1A 8779   7.813  13.445   9.465 -0.1603  0.0052  0.0652
  560PYPI   C2A 8780   7.822  13.488   9.016  0.3235  0.1992 -0.0079
  560PYPI   D3A 8781   7.943  13.384   8.601  0.2027 -0.2937 -0.0464
  560PYPI   C4A 8782   7.809  13.292   8.160  0.2375  0.2032 -0.0335
  560PYPI   C1B 8783   7.851  13.946   9.469 -0.0806  0.0866  0.3761
  560PYPI   C2B 8784   7.955  13.940   9.036 -0.0612  0.1757  0.3525
  560PYPI   C3B 8785   7.995  14.004   8.539  0.1730  0.1043 -0.0589
  560PYPI   C4B 8786   7.955  13.797   8.135 -0.1929  0.2801 -0.3012
  561PYPI    C1 8787   9.647   1.684   9.714  0.2167 -0.0280 -0.0991
  561PYPI    C2 8788   9.597   1.606  10.103  0.1462  0.2307 -0.0543
  561PYPI    C3 8789   9.965   1.658   9.955  0.1884 -0.0824 -0.0675
  561PYPI   PO4 8790   9.578   1.478   9.630  0.2630 -0.1950  0.0597
  561PYPI   GL1 8791   9.562   1.189   9.394  0.1068  0.1124  0.1154
  561PYPI   GL2 8792   9.158   1.252   9.518 -0.0547  0.3702  0.0117
  561PYPI   C1A 8793   9.616   1.144   8.964  0.0605  0.1836  0.3416
  561PYPI   C2A 8794   9.774   1.320   8.668  0.0891 -0.1108 -0.0865
  561PYPI   D3A 8795  10.040   1.649   8.416  0.0652  0.0729 -0.2605
  561PYPI   C4A 8796  10.122   1.612   8.091  0.0608 -0.2951  0.0670
  561PYPI   C1B 8797   9.061   1.464   9.220 -0.2177 -0.1690  0.0116
  561PYPI   C2B 8798   9.234   1.448   8.869  0.0813 -0.1025  0.1573
  561PYPI   C3B 8799   9.333   1.489   8.372 -0.0169 -0.2892  0.1737
  561PYPI   C4B 8800   9.706   1.381   8.132  0.0763  0.0559 -0.1882
  562PYPI    C1 8801   8.613  12.389  10.737  0.0132 -0.0490 -0.1616
  562PYPI    C2 8802   8.816  12.070  10.868  0.2200  0.0836 -0.1544
  562PYPI    C3 8803   8.976  12.436  10.899 -0.0349  0.1947 -0.1193
  562PYPI   PO4 8804   8.458  12.227  10.528 -0.2307  0.3957 -0.2633
  562PYPI   GL1 8805   8.538  12.080  10.131  0.1827  0.1193 -0.1262
  562PYPI   GL2 8806   8.287  11.798  10.234  0.0731 -0.2631 -0.1466
  562PYPI   C1A 8807   8.500  12.274   9.700 -0.2787 -0.0346  0.2732
  562PYPI   C2A 8808   8.519  12.117   9.199  0.0267  0.0707 -0.0274
  562PYPI   D3A 8809   8.554  12.168   8.766 -0.0715  0.1465 -0.0381
  562PYPI   C4A 8810   8.170  12.025   8.459 -0.0990  0.0607 -0.0482
  562PYPI   C1B 8811   8.324  11.732   9.823 -0.0894  0.0542 -0.3571
  562PYPI   C2B 8812   8.410  11.680   9.413 -0.5396 -0.1640  0.1685
  562PYPI   C3B 8813   8.405  11.620   8.926 -0.1560  0.3500  0.0943
  562PYPI   C4B 8814   8.112  11.523   8.602  0.1395  0.0083  0.0605
  563PYPI    C1 8815   5.156  11.519  10.192  0.3529  0.0819 -0.0031
  563PYPI    C2 8816   5.285  11.157  10.079 -0.1407 -0.1455  0.1313
  563PYPI    C3 8817   5.108  11.204  10.435 -0.3543  0.1667 -0.0119
  563PYPI   PO4 8818   4.982  11.581  10.051 -0.0136  0.4210 -0.0390
  563PYPI   GL1 8819   5.038  11.465   9.619  0.2276 -0.0626 -0.0569
  563PYPI   GL2 8820   5.065  11.188   9.620 -0.0129 -0.1312 -0.0304
  563PYPI   C1A 8821   5.116  11.716   9.276  0.0666  0.0765  0.2502
  563PYPI   C2A 8822   5.100  11.928   8.933 -0.1255 -0.2098 -0.2177
  563PYPI   D3A 8823   5.193  12.089   8.555 -0.1663  0.0466  0.0609
  563PYPI   C4A 8824   5.060  11.842   8.230  0.3134 -0.0415 -0.0616
  563PYPI   C1B 8825   5.219  11.191   9.161 -0.2529  0.4718 -0.1819
  563PYPI   C2B 8826   5.460  11.117   8.858 -0.0972  0.0749 -0.0958
  563PYPI   C3B 8827   5.848  11.284   8.697 -0.1640 -0.0963  0.1012
  563PYPI   C4B 8828   6.220  11.280   8.583 -0.0733  0.2241  0.1744
  564PYPI    C1 8829   8.795  15.407  10.220  0.0088 -0.4167 -0.0743
  564PYPI    C2 8830   8.407  15.402  10.316  0.0463  0.2770  0.1710
  564PYPI    C3 8831   8.679  15.502  10.591  0.3917 -0.0609 -0.0381
  564PYPI   PO4 8832   8.844  15.182  10.092  0.0792 -0.0215  0.1251
  564PYPI   GL1 8833   9.065  14.965   9.740 -0.0423 -0.1144 -0.0312
  564PYPI   GL2 8834   9.286  15.185   9.526  0.0806 -0.3550 -0.0601
  564PYPI   C1A 8835   9.202  14.786   9.213 -0.2682  0.1949  0.0989
  564PYPI   C2A 8836   9.080  14.824   8.708 -0.3897 -0.0957 -0.0834
  564PYPI   D3A 8837   8.845  15.057   8.421  0.0253 -0.1635  0.3146
  564PYPI   C4A 8838   8.531  15.394   8.482 -0.1576 -0.2633  0.0592
  564PYPI   C1B 8839   9.545  15.328   9.224  0.0438 -0.0362 -0.0919
  564PYPI   C2B 8840   9.917  15.333   8.876 -0.1432  0.0696  0.0934
  564PYPI   C3B 8841   9.786  15.467   8.455  0.2005 -0.0143  0.3697
  564PYPI   C4B 8842   9.862  15.331   8.054  0.2000 -0.1841 -0.1220
  565PYPI    C1 8843   5.509  17.197  10.068  0.0328  0.1124  0.0254
  565PYPI    C2 8844   5.693  17.312  10.404 -0.0747  0.3199  0.0147
  565PYPI    C3 8845   5.908  17.222  10.079  0.0447 -0.1245  0.2096
  565PYPI   PO4 8846   5.287  17.368  10.075  0.1479  0.1483 -0.1511
  565PYPI   GL1 8847   5.024  17.246   9.723 -0.4199 -0.0000 -0.2736
  565PYPI   GL2 8848   5.318  17.285   9.590 -0.1615  0.2011  0.4149
  565PYPI   C1A 8849   4.944  17.483   9.386 -0.1260  0.2413  0.2719
  565PYPI   C2A 8850   5.036  17.602   8.916  0.1454 -0.4504 -0.2580
  565PYPI   D3A 8851   5.026  17.866   8.624 -0.1016  0.0771  0.0507
  565PYPI   C4A 8852   5.069  17.969   8.112 -0.1518  0.3013 -0.1454
  565PYPI   C1B 8853   5.426  17.242   9.118 -0.0192 -0.0923  0.4535
  565PYPI   C2B 8854   5.392  17.341   8.635  0.3010 -0.3034  0.1657
  565PYPI   C3B 8855   5.340  17.452   8.198  0.0355 -0.2237  0.1314
  565PYPI   C4B 8856   5.395  17.403   7.726  0.0130  0.1973  0.1480
  566PYPI    C1 8857   3.522  17.320  10.168 -0.0982  0.0965  0.0173
  566PYPI    C2 8858   3.352  17.579  10.421  0.0726  0.0684  0.1629
  566PYPI    C3 8859   3.733  17.467  10.475  0.0909  0.0133 -0.0707
  566PYPI   PO4 8860   3.485  17.424   9.996  0.1599  0.1907 -0.0475
  566PYPI   GL1 8861   3.596  17.573   9.657 -0.1084  0.1841  0.3520
  566PYPI   GL2 8862   3.825  17.360   9.561  0.0547 -0.1396  0.1485
  566PYPI   C1A 8863   3.547  17.702   9.226  0.2294  0.0896 -0.1987
  566PYPI   C2A 8864   3.500  17.647   8.766 -0.3316 -0.3543  0.0441
  566PYPI   D3A 8865   3.736  17.486   8.437 -0.0515 -0.0701  0.1774
  566PYPI   C4A 8866   3.532  17.253   8.006 -0.0680  0.0143 -0.0269
  566PYPI   C1B 8867   4.178  17.179   9.252  0.0088  0.2718 -0.0598
  566PYPI   C2B 8868   4.531  17.282   8.961  0.1346 -0.0008 -0.0649
  566PYPI   C3B 8869   4.569  17.511   8.611  0.0058 -0.3407  0.4351
  566PYPI   C4B 8870   4.587  17.416   8.087  0.0535 -0.3681 -0.1341
  567PYPI    C1 8871  10.709   8.743  10.247 -0.0820 -0.2316  0.0549
  567PYPI    C2 8872  10.786   9.127  10.328  0.0545 -0.1776 -0.3136
  567PYPI    C3 8873  10.581   8.905  10.590 -0.0108  0.1401 -0.0896
  567PYPI   PO4 8874  10.614   8.725   9.997 -0.1706  0.0017  0.1281
  567PYPI   GL1 8875  10.607   8.763   9.528  0.0338  0.0546 -0.0936
  567PYPI   GL2 8876  10.951   8.860   9.604 -0.3639 -0.1985  0.0707
  567PYPI   C1A 8877  10.717   8.752   9.108 -0.2306  0.1579  0.0439
  567PYPI   C2A 8878  10.947   8.485   8.743 -0.0646  0.0587 -0.1419
  567PYPI   D3A 8879  10.949   8.088   8.558 -0.0636 -0.1710  0.4581
  567PYPI   C4A 8880  11.092   7.659   8.767 -0.0847 -0.0612  0.0193
  567PYPI   C1B 8881  10.799   9.239   9.369 -0.3741 -0.2077  0.1507
  567PYPI   C2B 8882  10.821   9.484   9.026  0.1426 -0.0371  0.1071
  567PYPI   C3B 8883  10.836   9.635   8.655  0.2830  0.1660  0.1701
  567PYPI   C4B 8884  10.598   9.639   8.338 -0.1599 -0.1608 -0.1302
  568PYPI    C1 8885   1.417  18.003  10.591 -0.1506 -0.1586 -0.2435
  568PYPI    C2 8886   1.722  17.920  10.836 -0.0504  0.0147 -0.3080
  568PYPI    C3 8887   1.358  17.774  10.914 -0.0012 -0.0020 -0.1033
  568PYPI   PO4 8888   1.472  17.894  10.360 -0.0576  0.3818 -0.5199
  568PYPI   GL1 8889   1.645  17.978   9.912 -0.0235  0.0155 -0.2305
  568PYPI   GL2 8890   1.616  17.580   9.933 -0.1799 -0.1972  0.1806
  568PYPI   C1A 8891   1.578  18.030   9.475 -0.1014  0.1517 -0.0967
  568PYPI   C2A 8892   1.557  17.943   9.045  0.0797 -0.0774  0.0197
  568PYPI   D3A 8893   1.599  17.922   8.573  0.0183 -0.1680  0.0228
  568PYPI   C4A 8894   1.783  17.780   8.171 -0.0753 -0.0826 -0.2859
  568PYPI   C1B 8895   1.611  17.501   9.456  0.1917 -0.0437  0.0687
  568PYPI   C2B 8896   1.768  17.448   9.097 -0.0457 -0.1058 -0.1787
  568PYPI   C3B 8897   1.975  17.529   8.717  0.2397 -0.0777  0.0667
  568PYPI   C4B 8898   1.963  17.378   8.370  0.0148 -0.1502  0.0023
  569PYPI    C1 8899  14.987   0.639  10.462  0.1163 -0.1534  0.2210
  569PYPI    C2 8900  14.751   0.840  10.715  0.0887 -0.0303  0.0990
  569PYPI    C3 8901  15.096   1.001  10.594  0.0332 -0.0254 -0.0541
  569PYPI   PO4 8902  14.886   0.536  10.244  0.1263  0.0549 -0.1709
  569PYPI   GL1 8903  14.979   0.552   9.798 -0.1642 -0.1663  0.0464
  569PYPI   GL2 8904  14.749   0.809   9.776 -0.3750  0.0275 -0.1995
  569PYPI   C1A 8905  15.159   0.581   9.392  0.0684 -0.0850  0.1211
  569PYPI   C2A 8906  15.169   0.814   8.991  0.1114  0.0534  0.0744
  569PYPI   D3A 8907  15.126   0.937   8.498 -0.0810 -0.1299  0.1870
  569PYPI   C4A 8908  14.900   0.865   8.103 -0.1092  0.0183 -0.1237
  569PYPI   C1B 8909  14.839   0.977   9.380  0.0667  0.2643 -0.1343
  569PYPI   C2B 8910  14.800   1.174   9.034 -0.1125 -0.0355 -0.1936
  569PYPI   C3B 8911  14.728   1.161   8.583 -0.0318 -0.0999  0.2959
  569PYPI   C4B 8912  14.943   1.356   8.178 -0.0896  0.1470  0.1388
  570PYPI    C1 8913  13.747  13.264  10.413 -0.3052 -0.1799 -0.0826
  570PYPI    C2 8914  13.694  12.962  10.157  0.1234 -0.3160 -0.0188
  570PYPI    C3 8915  13.769  12.887  10.543  0.2153 -0.1286  0.0009
  570PYPI   PO4 8916  13.996  13.496  10.280 -0.0410  0.0646  0.0825
  570PYPI   GL1 8917  14.030  13.618   9.908 -0.2900  0.0135 -0.2799
  570PYPI   GL2 8918  14.066  13.884   9.781  0.4951  0.1064  0.2599
  570PYPI   C1A 8919  14.192  13.453   9.519 -0.2203  0.3632  0.1315
  570PYPI   C2A 8920  14.177  13.273   9.166 -0.0610  0.2595 -0.2022
  570PYPI   D3A 8921  14.246  13.467   8.724  0.0510 -0.0229  0.1571
  570PYPI   C4A 8922  14.602  13.566   8.448 -0.2132 -0.0009 -0.3024
  570PYPI   C1B 8923  13.899  13.994   9.365  0.0992 -0.2611  0.2125
  570PYPI   C2B 8924  13.652  13.863   9.084 -0.0437  0.0972  0.1687
  570PYPI   C3B 8925  13.858  13.851   8.640 -0.1142  0.0202  0.0343
  570PYPI   C4B 8926  14.191  13.935   8.395 -0.0571 -0.1363  0.0508
  571PYPI    C1 8927  11.350   9.421  10.070 -0.0083 -0.1172  0.1108
  571PYPI    C2 8928  11.243   9.294  10.434 -0.0879 -0.0914  0.0965
  571PYPI    C3 8929  11.569   9.144  10.258  0.0653  0.0428  0.2627
  571PYPI   PO4 8930  11.405   9.724  10.037  0.0481  0.1580 -0.1334
  571PYPI   GL1 8931  11.458  10.056   9.783  0.1511  0.1337  0.1799
  571PYPI   GL2 8932  11.136  10.078   9.738 -0.0277 -0.2447 -0.1890
  571PYPI   C1A 8933  11.542   9.909   9.391  0.0098 -0.3556  0.2011
  571PYPI   C2A 8934  11.867   9.945   9.071  0.0992 -0.0767 -0.0229
  571PYPI   D3A 8935  11.972   9.974   8.633 -0.1054  0.1885 -0.2479
  571PYPI   C4A 8936  12.310   9.626   8.483  0.1208  0.0835  0.0983
  571PYPI   C1B 8937  11.163  10.324   9.379  0.1874  0.3603 -0.1936
  571PYPI   C2B 8938  11.120  10.263   8.925 -0.1526 -0.1799  0.0806
  571PYPI   C3B 8939  11.079  10.090   8.504 -0.1719  0.0677 -0.1045
  571PYPI   C4B 8940  10.924   9.919   8.073  0.0831 -0.0779 -0.1267
  572PYPI    C1 8941   6.194  18.072  10.214  0.2364  0.0789  0.2773
  572PYPI    C2 8942   6.137  17.676  10.197  0.3326  0.0779 -0.1197
  572PYPI    C3 8943   6.256  17.846  10.539  0.0658 -0.2020  0.1188
  572PYPI   PO4 8944   6.269  18.113   9.915  0.1135  0.1311 -0.0261
  572PYPI   GL1 8945   6.523  18.015   9.573 -0.3517 -0.0107  0.0654
  572PYPI   GL2 8946   6.859  17.888   9.597 -0.0001  0.0716 -0.2001
  572PYPI   C1A 8947   6.359  17.784   9.276  0.0420 -0.3844  0.5405
  572PYPI   C2A 8948   6.450  17.667   8.855  0.1945  0.0297 -0.2284
  572PYPI   D3A 8949   6.501  17.583   8.499 -0.1633 -0.1650  0.3459
  572PYPI   C4A 8950   6.640  17.560   8.037 -0.1823 -0.0921 -0.0311
  572PYPI   C1B 8951   6.856  17.902   9.194 -0.2720  0.0158 -0.0110
  572PYPI   C2B 8952   6.884  17.930   8.752 -0.1376  0.1734 -0.0141
  572PYPI   C3B 8953   7.116  17.849   8.407 -0.1022  0.1327 -0.1801
  572PYPI   C4B 8954   7.147  17.841   8.021  0.2397 -0.0734 -0.1175
  573PYPI    C1 8955   5.700  17.933  10.224 -0.2523  0.1130  0.0564
  573PYPI    C2 8956   5.423  17.765  10.459  0.0491 -0.0986  0.2678
  573PYPI    C3 8957   5.761  17.908  10.618  0.0764  0.1334  0.0098
  573PYPI   PO4 8958   5.528  18.068  10.085 -0.3751 -0.2668  0.0893
  573PYPI   GL1 8959   5.596  18.144   9.615  0.1265 -0.0637 -0.0427
  573PYPI   GL2 8960   5.970  17.990   9.569  0.0173 -0.0128  0.2695
  573PYPI   C1A 8961   5.352  18.301   9.323 -0.2880 -0.0580  0.0603
  573PYPI   C2A 8962   5.419  18.337   8.881 -0.0459 -0.1191 -0.1468
  573PYPI   D3A 8963   5.785  18.457   8.617  0.1990  0.0126  0.2451
  573PYPI   C4A 8964   6.055  18.359   8.293  0.3831  0.0765  0.1973
  573PYPI   C1B 8965   5.833  17.677   9.300 -0.1098  0.0542 -0.2279
  573PYPI   C2B 8966   5.873  17.436   8.891 -0.0424 -0.2410  0.0380
  573PYPI   C3B 8967   5.849  17.460   8.450  0.3040  0.0299  0.2348
  573PYPI   C4B 8968   5.785  17.268   8.088  0.2905  0.1201  0.1508
  574ERGO   ROH 8969  17.234   7.970   9.901  0.1392  0.0782 -0.0155
  574ERGO    R1 8970  17.216   7.942   9.620  0.0902  0.0550 -0.0102
  574ERGO    R2 8971  17.287   8.144   9.446  0.1621  0.0032 -0.0417
  574ERGO    R3 8972  17.446   7.952   9.338  0.0595 -0.0832 -0.0409
  574ERGO    R4 8973  17.442   8.165   9.137  0.3140 -0.0049  0.0332
  574ERGO    R5 8974  17.394   7.955   9.104  0.1636  0.0426 -0.0631
  574ERGO    C1 8975  17.682   7.997   8.857  0.3063 -0.0908  0.0776
  574ERGO    C2 8976  17.864   7.957   8.591  0.1881 -0.1637  0.1693
  575ERGO   ROH 8977   0.214   4.124   9.679 -0.0019 -0.1509 -0.1369
  575ERGO    R1 8978   0.037   4.196   9.469  0.0392 -0.1633 -0.1760
  575ERGO    R2 8979   0.112   4.364   9.263  0.0624 -0.1304 -0.1423
  575ERGO    R3 8980   0.028   4.158   9.107  0.1402 -0.1320 -0.1820
  575ERGO    R4 8981  -0.009   4.396   8.941 -0.0488 -0.1030 -0.0979
  575ERGO    R5 8982  -0.160   4.246   8.988  0.0537 -0.2067 -0.1012
  575ERGO    C1 8983  -0.159   4.221   8.607 -0.0405 -0.0885 -0.1094
  575ERGO    C2 8984  -0.096   4.136   8.338  0.2206  0.0243 -0.0029
  576ERGO   ROH 8985   4.050  11.083   9.558 -0.2015  0.0016  0.0065
  576ERGO    R1 8986   4.216  11.124   9.332 -0.1727  0.2021  0.0625
  576ERGO    R2 8987   4.296  10.918   9.166  0.2844  0.2623  0.1929
  576ERGO    R3 8988   4.190  11.076   8.972  0.0725 -0.0191  0.0712
  576ERGO    R4 8989   4.399  10.922   8.836  0.3857  0.2613  0.2239
  576ERGO    R5 8990   4.378  11.139   8.837  0.0130  0.2316  0.1011
  576ERGO    C1 8991   4.360  11.073   8.462  0.2458 -0.0037  0.1278
  576ERGO    C2 8992   4.509  10.960   8.143  0.1749 -0.1362  0.0733
  577ERGO   ROH 8993   6.365   3.070   9.391 -0.0070 -0.1867  0.0899
  577ERGO    R1 8994   6.448   3.130   9.127  0.0435 -0.1926  0.1050
  577ERGO    R2 8995   6.479   2.935   8.934 -0.0938 -0.1741  0.0684
  577ERGO    R3 8996   6.311   3.094   8.791  0.0274 -0.0215  0.0914
  577ERGO    R4 8997   6.471   2.954   8.589 -0.1299 -0.1852  0.0682
  577ERGO    R5 8998   6.443   3.170   8.606  0.0729 -0.1527  0.0652
  577ERGO    C1 8999   6.307   3.114   8.254 -0.0370 -0.0484  0.0898
  577ERGO    C2 9000   6.210   3.089   7.912 -0.1393  0.0913 -0.1119
  578ERGO   ROH 9001   6.661  12.665   9.425  0.1548  0.1918  0.1140
  578ERGO    R1 9002   6.695  12.525   9.181  0.2585  0.2082  0.1184
  578ERGO    R2 9003   6.577  12.607   8.945  0.0536  0.0176  0.1529
  578ERGO    R3 9004   6.832  12.597   8.852  0.0366  0.3621  0.0572
  578ERGO    R4 9005   6.665  12.621   8.612 -0.1443 -0.4078  0.0757
  578ERGO    R5 9006   6.816  12.469   8.651  0.1883 -0.0453  0.2917
  578ERGO    C1 9007   6.956  12.620   8.330 -0.2754 -0.3321 -0.0591
  578ERGO    C2 9008   7.046  12.651   8.021  0.0942  0.1499  0.0423
  579ERGO   ROH 9009   9.728  11.775   9.779  0.4176 -0.0786 -0.0251
  579ERGO    R1 9010   9.780  11.680   9.518  0.2168 -0.1979 -0.0240
  579ERGO    R2 9011   9.631  11.480   9.399 -0.0655 -0.0460  0.0680
  579ERGO    R3 9012   9.601  11.664   9.202  0.0890 -0.0496  0.0392
  579ERGO    R4 9013   9.665  11.415   9.061  0.2018 -0.0530  0.0933
  579ERGO    R5 9014   9.768  11.606   9.040  0.2188 -0.0523  0.1706
  579ERGO    C1 9015   9.656  11.550   8.679  0.5025 -0.0605  0.0811
  579ERGO    C2 9016   9.753  11.380   8.435 -0.4220 -0.1447 -0.0503
  580ERGO   ROH 9017   0.757   0.796   9.700  0.1323  0.1489  0.0045
  580ERGO    R1 9018   0.830   0.944   9.470  0.0146  0.3409  0.0884
  580ERGO    R2 9019   0.778   0.855   9.214  0.4996  0.2103  0.0251
  580ERGO    R3 9020   0.657   1.098   9.189 -0.0818 -0.0722 -0.0863
  580ERGO    R4 9021   0.761   1.038   8.921  0.5078  0.2564  0.0531
  580ERGO    R5 9022   0.798   1.219   9.038 -0.1315  0.3314  0.1759
  580ERGO    C1 9023   0.638   1.372   8.727 -0.0332  0.0179 -0.0351
  580ERGO    C2 9024   0.722   1.365   8.375 -0.0684  0.0877 -0.0366
  581ERGO   ROH 9025  13.688   7.577   9.713 -0.0438  0.0797 -0.1397
  581ERGO    R1 9026  13.833   7.699   9.502 -0.0195 -0.0675 -0.2103
  581ERGO    R2 9027  13.933   7.556   9.288 -0.1937 -0.1843 -0.2165
  581ERGO    R3 9028  13.794   7.739   9.143 -0.1057 -0.1081 -0.2063
  581ERGO    R4 9029  14.010   7.652   8.965  0.0115 -0.0141 -0.1190
  581ERGO    R5 9030  13.962   7.857   9.020 -0.0253 -0.0407 -0.0385
  581ERGO    C1 9031  13.924   7.879   8.641  0.2135  0.1566 -0.0526
  581ERGO    C2 9032  14.038   7.863   8.317  0.1330 -0.1339 -0.0138
  582ERGO   ROH 9033  16.536   1.736  10.216  0.0451 -0.2421 -0.0504
  582ERGO    R1 9034  16.456   1.725   9.944  0.0375 -0.0058 -0.0597
  582ERGO    R2 9035  16.451   1.948   9.781  0.2589  0.0962  0.0690
  582ERGO    R3 9036  16.607   1.794   9.621  0.1113  0.0340 -0.0167
  582ERGO    R4 9037  16.431   1.938   9.436 -0.0712 -0.0505  0.0892
  582ERGO    R5 9038  16.461   1.722   9.446 -0.0556 -0.0456  0.1523
  582ERGO    C1 9039  16.566   1.787   9.085 -0.4020 -0.1944  0.0203
  582ERGO    C2 9040  16.619   1.687   8.775 -0.2474  0.0413  0.1249
  583ERGO   ROH 9041   7.039  16.506   9.780  0.4993 -0.0165 -0.0312
  583ERGO    R1 9042   7.175  16.453   9.537  0.2553 -0.0287 -0.1694
  583ERGO    R2 9043   7.081  16.272   9.350  0.0436 -0.0084 -0.0874
  583ERGO    R3 9044   7.104  16.484   9.182 -0.0896 -0.0052 -0.1014
  583ERGO    R4 9045   7.154  16.250   9.013  0.0204  0.0132 -0.0935
  583ERGO    R5 9046   7.282  16.424   9.034 -0.0726  0.0841 -0.1167
  583ERGO    C1 9047   7.217  16.436   8.659 -0.1182  0.0283 -0.1101
  583ERGO    C2 9048   7.215  16.372   8.334  0.0449  0.2261  0.1456
  584ERGO   ROH 9049   7.298  17.957   9.723  0.3109  0.1639  0.0571
  584ERGO    R1 9050   7.319  18.144   9.511  0.4201  0.0729 -0.0148
  584ERGO    R2 9051   7.524  18.137   9.326  0.3176 -0.2323 -0.1290
  584ERGO    R3 9052   7.320  18.132   9.147  0.2095 -0.0503 -0.0121
  584ERGO    R4 9053   7.562  18.174   8.985  0.1535 -0.2855 -0.1531
  584ERGO    R5 9054   7.381  18.297   8.984  0.2688 -0.1174 -0.0548
  584ERGO    C1 9055   7.392  18.192   8.618 -0.0436 -0.1459 -0.0574
  584ERGO    C2 9056   7.585  17.979   8.470 -0.1856  0.0852 -0.1881
  585ERGO   ROH 9057   7.987  16.978   9.846 -0.1901  0.0030 -0.1075
  585ERGO    R1 9058   7.964  17.020   9.567 -0.0856 -0.0430 -0.1228
  585ERGO    R2 9059   7.999  17.268   9.451 -0.0997 -0.0532 -0.1423
  585ERGO    R3 9060   8.181  17.135   9.298 -0.0037 -0.0283 -0.0522
  585ERGO    R4 9061   8.037  17.308   9.110 -0.0401 -0.1559 -0.1489
  585ERGO    R5 9062   8.065  17.093   9.092  0.0602 -0.1527 -0.0655
  585ERGO    C1 9063   8.230  17.207   8.768  0.0847 -0.1923 -0.0680
  585ERGO    C2 9064   8.244  17.179   8.378  0.1041  0.1096 -0.0353
  586ERGO   ROH 9065   2.630   5.587   9.738  0.0434 -0.1438  0.1051
  586ERGO    R1 9066   2.421   5.507   9.565  0.0373 -0.1486  0.1150
  586ERGO    R2 9067   2.264   5.688   9.426 -0.0103 -0.1509  0.1668
  586ERGO    R3 9068   2.343   5.542   9.211 -0.0105 -0.0980  0.1304
  586ERGO    R4 9069   2.150   5.735   9.104 -0.0095 -0.0711  0.1776
  586ERGO    R5 9070   2.144   5.519   9.079 -0.0102 -0.0650  0.1241
  586ERGO    C1 9071   2.158   5.626   8.713 -0.0091  0.0251  0.1499
  586ERGO    C2 9072   2.259   5.767   8.501  0.0138  0.0653 -0.0518
  587ERGO   ROH 9073   6.643  17.373   9.518  0.0892  0.1666 -0.0484
  587ERGO    R1 9074   6.751  17.447   9.267  0.2536 -0.0773 -0.0537
  587ERGO    R2 9075   6.950  17.303   9.142 -0.0082 -0.4877 -0.0192
  587ERGO    R3 9076   6.774  17.300   8.935 -0.0080 -0.1798 -0.0279
  587ERGO    R4 9077   7.037  17.318   8.808  0.0015 -0.2678 -0.0082
  587ERGO    R5 9078   6.867  17.451   8.775  0.1031 -0.1135  0.1007
  587ERGO    C1 9079   6.921  17.325   8.419  0.0073  0.1493 -0.0099
  587ERGO    C2 9080   7.043  17.269   8.159 -0.0187 -0.0524 -0.2686
  588ERGO   ROH 9081  11.537   3.084   9.719 -0.0446  0.1236 -0.0332
  588ERGO    R1 9082  11.426   3.175   9.474 -0.0834  0.0316 -0.0524
  588ERGO    R2 9083  11.537   3.382   9.329 -0.1434  0.0300 -0.1186
  588ERGO    R3 9084  11.536   3.199   9.128 -0.1040 -0.0313 -0.0608
  588ERGO    R4 9085  11.519   3.457   8.992 -0.2700 -0.0983 -0.1397
  588ERGO    R5 9086  11.384   3.289   8.966 -0.1858 -0.1679 -0.0510
  588ERGO    C1 9087  11.506   3.329   8.607 -0.3066 -0.2305 -0.0977
  588ERGO    C2 9088  11.405   3.154   8.246 -0.0964  0.0949 -0.2376
  589ERGO   ROH 9089  12.509   2.878   9.815 -0.1721 -0.2074 -0.0381
  589ERGO    R1 9090  12.420   2.919   9.549 -0.1484 -0.0293 -0.0197
  589ERGO    R2 9091  12.391   3.170   9.439  0.0700  0.0397  0.0753
  589ERGO    R3 9092  12.554   3.070   9.246 -0.0270 -0.0336  0.0310
  589ERGO    R4 9093  12.492   3.343   9.158  0.1300  0.0217  0.0859
  589ERGO    R5 9094  12.466   3.159   9.042 -0.0068  0.0557  0.0606
  589ERGO    C1 9095  12.704   3.349   8.812  0.0740 -0.0575  0.0504
  589ERGO    C2 9096  12.836   3.507   8.459  0.1366 -0.3698  0.1999
  590ERGO   ROH 9097  18.072   9.315  10.196 -0.0222  0.1084 -0.0677
  590ERGO    R1 9098  17.994   9.316   9.924  0.0154  0.0383 -0.0793
  590ERGO    R2 9099  18.004   9.543   9.767 -0.0692  0.0256 -0.1067
  590ERGO    R3 9100  18.152   9.384   9.604  0.0292  0.0740 -0.0644
  590ERGO    R4 9101  18.010   9.565   9.422 -0.0821 -0.0624 -0.1126
  590ERGO    R5 9102  18.012   9.348   9.413  0.0528 -0.0635 -0.0552
  590ERGO    C1 9103  18.154   9.429   9.068  0.0029 -0.0682 -0.0763
  590ERGO    C2 9104  18.239   9.373   8.805 -0.1365  0.1989  0.0996
  591ERGO   ROH 9105   4.053  15.945   9.857  0.0065  0.0203  0.0361
  591ERGO    R1 9106   4.198  15.801   9.661  0.1272  0.0362  0.1145
  591ERGO    R2 9107   4.105  15.767   9.403  0.1502 -0.1894  0.1410
  591ERGO    R3 9108   4.347  15.873   9.337  0.0589 -0.0186  0.0686
  591ERGO    R4 9109   4.233  15.784   9.082  0.0648 -0.1702  0.1066
  591ERGO    R5 9110   4.429  15.731   9.162  0.1285 -0.0045  0.0825
  591ERGO    C1 9111   4.534  15.893   8.833 -0.0707  0.0013  0.0187
  591ERGO    C2 9112   4.830  16.138   8.658  0.1152  0.0317 -0.2507
  592ERGO   ROH 9113   6.807  15.750   9.782 -0.0599 -0.0103 -0.0363
  592ERGO    R1 9114   6.854  15.890   9.541 -0.0470 -0.1108 -0.0925
  592ERGO    R2 9115   6.945  15.764   9.312 -0.1695 -0.2315 -0.0766
  592ERGO    R3 9116   6.725  15.879   9.200 -0.1378 -0.1516 -0.0573
  592ERGO    R4 9117   6.886  15.791   8.972 -0.0842 -0.0102 -0.0754
  592ERGO    R5 9118   6.808  15.992   9.006 -0.0851 -0.0286  0.0352
  592ERGO    C1 9119   6.646  15.914   8.670 -0.0047  0.1937 -0.0567
  592ERGO    C2 9120   6.693  15.882   8.286  0.3143  0.1717  0.0638
  593ERGO   ROH 9121  10.479  16.810   9.789 -0.0790 -0.0341  0.1088
  593ERGO    R1 9122  10.659  16.745   9.581 -0.0761  0.1235  0.0597
  593ERGO    R2 9123  10.736  16.485   9.527  0.1930  0.1926  0.0837
  593ERGO    R3 9124  10.650  16.545   9.277  0.0364  0.0530  0.1029
  593ERGO    R4 9125  10.901  16.402   9.235  0.1036  0.1990  0.0314
  593ERGO    R5 9126  10.849  16.597   9.156 -0.0562  0.1371 -0.0113
  593ERGO    C1 9127  10.916  16.410   8.830 -0.0955  0.0715  0.0190
  593ERGO    C2 9128  10.951  16.407   8.461 -0.0596  0.1243 -0.2469
  594ERGO   ROH 9129  17.640  18.261   9.782  0.1870 -0.0485  0.0174
  594ERGO    R1 9130  17.604  18.369   9.523  0.0596 -0.1482 -0.0083
  594ERGO    R2 9131  17.815  18.461   9.368 -0.0470  0.1161 -0.0091
  594ERGO    R3 9132  17.713  18.288   9.185  0.2059 -0.0681  0.0198
  594ERGO    R4 9133  17.809  18.515   9.027 -0.2153  0.0907 -0.0103
  594ERGO    R5 9134  17.609  18.429   9.022 -0.0715 -0.2512  0.0356
  594ERGO    C1 9135  17.709  18.385   8.656 -0.0763 -0.0972  0.0162
  594ERGO    C2 9136  17.720  18.451   8.375  0.0487 -0.1099 -0.1924
  595ERGO   ROH 9137   1.055  17.285   9.472  0.2690  0.1467  0.0525
  595ERGO    R1 9138   1.038  17.383   9.206  0.2955  0.2077  0.0727
  595ERGO    R2 9139   1.251  17.503   9.078  0.4023 -0.0350  0.0156
  595ERGO    R3 9140   1.201  17.314   8.888  0.1017  0.0503  0.0055
  595ERGO    R4 9141   1.348  17.524   8.747  0.2395 -0.0738 -0.0352
  595ERGO    R5 9142   1.156  17.440   8.690  0.1189  0.1348  0.0553
  595ERGO    C1 9143   1.358  17.360   8.376 -0.1375 -0.0161 -0.0745
  595ERGO    C2 9144   1.490  17.390   8.066 -0.3061  0.1944  0.1248
  596ERGO   ROH 9145   0.223  11.881   9.845  0.2748 -0.0316 -0.1532
  596ERGO    R1 9146   0.080  11.739   9.645  0.1162  0.0541 -0.1006
  596ERGO    R2 9147  -0.045  11.866   9.433  0.2493  0.1174 -0.1357
  596ERGO    R3 9148   0.104  11.694   9.285  0.0565 -0.0976 -0.0878
  596ERGO    R4 9149  -0.070  11.827   9.091  0.3237  0.1919 -0.1506
  596ERGO    R5 9150  -0.047  11.613   9.118 -0.0088  0.1442 -0.1572
  596ERGO    C1 9151   0.056  11.643   8.752  0.1860  0.0336 -0.1144
  596ERGO    C2 9152   0.260  11.622   8.528  0.1201  0.0935 -0.1358
  597ERGO   ROH 9153   7.381  11.427   9.741  0.2372  0.2282 -0.1566
  597ERGO    R1 9154   7.248  11.328   9.511  0.2049  0.1324 -0.0975
  597ERGO    R2 9155   7.164  11.492   9.305 -0.0025  0.0735 -0.0645
  597ERGO    R3 9156   7.310  11.320   9.152  0.0535  0.1742 -0.1245
  597ERGO    R4 9157   7.109  11.432   8.969 -0.0663  0.0699 -0.0534
  597ERGO    R5 9158   7.148  11.220   9.006  0.0706  0.0912 -0.0850
  597ERGO    C1 9159   7.213  11.236   8.630 -0.0508  0.1623 -0.1031
  597ERGO    C2 9160   7.269  11.199   8.346 -0.1354  0.2290 -0.1240
  598ERGO   ROH 9161   8.183  12.756  10.016 -0.1418  0.0484 -0.0048
  598ERGO    R1 9162   8.176  12.597   9.783  0.0538  0.0486 -0.0129
  598ERGO    R2 9163   7.998  12.644   9.575  0.0129 -0.1401 -0.0245
  598ERGO    R3 9164   8.225  12.649   9.426  0.0221  0.1218 -0.0065
  598ERGO    R4 9165   8.014  12.573   9.238  0.1425 -0.2550  0.0052
  598ERGO    R5 9166   8.200  12.466   9.274  0.2946  0.0221  0.0643
  598ERGO    C1 9167   8.236  12.536   8.901  0.2265 -0.0762  0.0392
  598ERGO    C2 9168   8.312  12.556   8.559  0.0021  0.2722  0.0574
  599ERGO   ROH 9169   1.962  11.952   9.555  0.2489  0.0234 -0.0112
  599ERGO    R1 9170   1.762  11.999   9.360  0.1815 -0.1560  0.0135
  599ERGO    R2 9171   1.779  12.204   9.175 -0.0680 -0.0811  0.0714
  599ERGO    R3 9172   1.742  12.002   8.997  0.1586 -0.0761  0.0148
  599ERGO    R4 9173   1.750  12.245   8.833  0.0074 -0.0302  0.0704
  599ERGO    R5 9174   1.593  12.094   8.833  0.1321 -0.1641 -0.0125
  599ERGO    C1 9175   1.698  12.080   8.467  0.2639  0.0043  0.0167
  599ERGO    C2 9176   1.566  12.185   8.207 -0.0471  0.1391 -0.1293
  600ERGO   ROH 9177   1.098   1.707   9.394  0.1745  0.2175 -0.0054
  600ERGO    R1 9178   1.154   1.706   9.117  0.0592  0.1212 -0.0284
  600ERGO    R2 9179   0.959   1.659   8.926 -0.0395  0.1562  0.0663
  600ERGO    R3 9180   1.047   1.895   8.825  0.0218  0.0917 -0.0348
  600ERGO    R4 9181   0.991   1.731   8.590 -0.1253  0.0377  0.0318
  600ERGO    R5 9182   1.177   1.834   8.634 -0.0661 -0.0217 -0.0619
  600ERGO    C1 9183   1.092   1.995   8.299 -0.1176 -0.0917 -0.0833
  600ERGO    C2 9184   1.166   1.961   8.023 -0.1432 -0.0852  0.0607
  601ERGO   ROH 9185   2.487   7.661   9.982 -0.2127 -0.2939  0.2421
  601ERGO    R1 9186   2.405   7.547   9.736 -0.1199 -0.1920  0.1636
  601ERGO    R2 9187   2.288   7.696   9.535 -0.0468 -0.1106  0.1844
  601ERGO    R3 9188   2.487   7.590   9.384  0.0090 -0.0440  0.2100
  601ERGO    R4 9189   2.292   7.690   9.190 -0.0556 -0.2023  0.1851
  601ERGO    R5 9190   2.374   7.489   9.199  0.0564 -0.1581  0.2399
  601ERGO    C1 9191   2.482   7.588   8.847 -0.0082 -0.1931  0.2095
  601ERGO    C2 9192   2.403   7.573   8.537 -0.0870  0.1525  0.0504
  602ERGO   ROH 9193   4.354  14.859   9.723  0.0367  0.1242 -0.0867
  602ERGO    R1 9194   4.294  14.862   9.446  0.0947  0.1998 -0.0981
  602ERGO    R2 9195   4.483  14.924   9.255  0.2071 -0.0208 -0.0577
  602ERGO    R3 9196   4.407  14.685   9.149 -0.0570  0.0686 -0.0797
  602ERGO    R4 9197   4.464  14.854   8.917  0.3905 -0.0414 -0.0647
  602ERGO    R5 9198   4.280  14.743   8.955  0.1880  0.2305 -0.1985
  602ERGO    C1 9199   4.383  14.589   8.621  0.2493  0.0303 -0.0894
  602ERGO    C2 9200   4.431  14.597   8.220  0.3259 -0.0667 -0.0126
  603ERGO   ROH 9201  13.304  11.712   9.828 -0.1517  0.1909 -0.0631
  603ERGO    R1 9202  13.272  11.723   9.547 -0.2791  0.1611 -0.0502
  603ERGO    R2 9203  13.238  11.960   9.410 -0.2419  0.1541 -0.0708
  603ERGO    R3 9204  13.450  11.869   9.265 -0.3481  0.0416 -0.1574
  603ERGO    R4 9205  13.303  12.044   9.081 -0.2800  0.2022 -0.0659
  603ERGO    R5 9206  13.361  11.837   9.045 -0.4384  0.1673 -0.1418
  603ERGO    C1 9207  13.539  12.008   8.753 -0.4018  0.1247 -0.1443
  603ERGO    C2 9208  13.577  12.109   8.410  0.0061 -0.2140 -0.0979
  604ERGO   ROH 9209  11.009   5.453   9.496 -0.1916 -0.1392 -0.0626
  604ERGO    R1 9210  10.879   5.429   9.245 -0.1084 -0.0868 -0.1116
  604ERGO    R2 9211  10.911   5.614   9.043 -0.1607  0.0381 -0.0078
  604ERGO    R3 9212  10.980   5.395   8.897  0.0089  0.1525 -0.1030
  604ERGO    R4 9213  10.933   5.604   8.698 -0.3033  0.1653 -0.0212
  604ERGO    R5 9214  10.841   5.406   8.703 -0.0918  0.0644 -0.0375
  604ERGO    C1 9215  11.010   5.393   8.361 -0.2271  0.3468 -0.1182
  604ERGO    C2 9216  10.983   5.319   7.980  0.4974  0.0890 -0.3581
  605ERGO   ROH 9217   8.660  18.043   9.732 -0.0153  0.3854 -0.1314
  605ERGO    R1 9218   8.632  17.943   9.468 -0.0865  0.1239 -0.0281
  605ERGO    R2 9219   8.526  18.092   9.263 -0.0454 -0.0410 -0.1739
  605ERGO    R3 9220   8.759  18.029   9.138 -0.0852 -0.2689 -0.1351
  605ERGO    R4 9221   8.567  18.076   8.920  0.0130  0.0005 -0.1684
  605ERGO    R5 9222   8.691  17.898   8.949 -0.1897 -0.1465 -0.1838
  605ERGO    C1 9223   8.810  18.007   8.603  0.0096 -0.1895 -0.1286
  605ERGO    C2 9224   8.708  18.126   8.256  0.2205  0.0516 -0.1123
  606ERGO   ROH 9225   2.896  11.840   9.386  0.0295  0.0213  0.0612
  606ERGO    R1 9226   2.763  11.810   9.138  0.1353  0.0492  0.0005
  606ERGO    R2 9227   2.677  12.026   8.988  0.1075  0.0653  0.0370
  606ERGO    R3 9228   2.824  11.907   8.793  0.2299  0.1852  0.0548
  606ERGO    R4 9229   2.667  12.110   8.653  0.0205  0.0028  0.0237
  606ERGO    R5 9230   2.677  11.898   8.604  0.2377  0.0052  0.0563
  606ERGO    C1 9231   2.799  12.048   8.275  0.0848  0.0791  0.0328
  606ERGO    C2 9232   2.928  12.038   7.966  0.0723 -0.1534  0.1860
  607ERGO   ROH 9233   6.213  13.392   9.942  0.1190  0.0136  0.0705
  607ERGO    R1 9234   6.277  13.342   9.670  0.0060 -0.0093  0.0480
  607ERGO    R2 9235   6.170  13.490   9.462  0.0847  0.1111  0.0950
  607ERGO    R3 9236   6.432  13.525   9.397  0.1007 -0.1125  0.0312
  607ERGO    R4 9237   6.285  13.593   9.153  0.0844  0.1378  0.1036
  607ERGO    R5 9238   6.447  13.449   9.171 -0.0455 -0.0301 -0.0093
  607ERGO    C1 9239   6.597  13.686   8.912  0.0992 -0.0567  0.0488
  607ERGO    C2 9240   6.517  13.777   8.576 -0.1552  0.4051  0.2051
  608ERGO   ROH 9241  14.427  18.404   9.765  0.0311  0.0285  0.0233
  608ERGO    R1 9242  14.502  18.350   9.498  0.0679  0.1126  0.0163
  608ERGO    R2 9243  14.318  18.324   9.294  0.0856  0.0363  0.0105
  608ERGO    R3 9244  14.471  18.515   9.176 -0.0228  0.1444  0.0408
  608ERGO    R4 9245  14.277  18.438   8.970  0.1127 -0.0417 -0.0209
  608ERGO    R5 9246  14.494  18.441   8.949  0.1203  0.1295  0.0585
  608ERGO    C1 9247  14.397  18.683   8.670  0.0268  0.0145 -0.0107
  608ERGO    C2 9248  14.432  18.707   8.322 -0.0366  0.2106 -0.4304
  609ERGO   ROH 9249  17.938   1.436   9.735  0.1290 -0.1616  0.0957
  609ERGO    R1 9250  18.011   1.338   9.480  0.0612 -0.0841  0.0462
  609ERGO    R2 9251  17.831   1.316   9.271 -0.0319 -0.1744  0.1353
  609ERGO    R3 9252  18.014   1.467   9.139 -0.1948 -0.0403  0.0584
  609ERGO    R4 9253  17.928   1.267   8.943 -0.2844  0.0270  0.0274
  609ERGO    R5 9254  18.133   1.310   9.002 -0.2495  0.0708 -0.1201
  609ERGO    C1 9255  18.156   1.380   8.628 -0.5845  0.2702 -0.1077
  609ERGO    C2 9256  18.092   1.421   8.330 -0.0230 -0.2912  0.2492
  610ERGO   ROH 9257   6.856   4.276   9.680  0.1415  0.0123  0.0766
  610ERGO    R1 9258   7.061   4.162   9.522  0.0927  0.0247  0.0037
  610ERGO    R2 9259   7.031   3.920   9.391  0.0576  0.0287  0.0036
  610ERGO    R3 9260   7.105   4.066   9.173 -0.0200  0.0391 -0.0143
  610ERGO    R4 9261   7.027   3.804   9.066  0.0458  0.0099  0.0109
  610ERGO    R5 9262   7.216   3.908   9.031  0.0076  0.0665 -0.0221
  610ERGO    C1 9263   7.093   3.873   8.672 -0.0340  0.0088 -0.0018
  610ERGO    C2 9264   7.062   3.778   8.315 -0.2467 -0.0799 -0.0002
  611ERGO   ROH 9265   1.862   0.859   9.223 -0.0066 -0.0715 -0.0694
  611ERGO    R1 9266   1.822   1.023   8.996  0.1052 -0.0210 -0.0543
  611ERGO    R2 9267   1.970   0.996   8.765  0.0604 -0.1279 -0.0758
  611ERGO    R3 9268   1.725   0.975   8.649  0.0283  0.0805 -0.0461
  611ERGO    R4 9269   1.894   1.100   8.444  0.1319 -0.1624 -0.1034
  611ERGO    R5 9270   1.704   1.175   8.519  0.2167  0.0556 -0.1132
  611ERGO    C1 9271   1.620   1.141   8.149  0.1435  0.0132 -0.0917
  611ERGO    C2 9272   1.445   1.127   7.873 -0.0553 -0.1113  0.2050
  612ERGO   ROH 9273   8.132   4.946   9.081  0.0003 -0.2427  0.0493
  612ERGO    R1 9274   8.003   5.020   8.841  0.0779  0.0112  0.0824
  612ERGO    R2 9275   8.141   5.104   8.617  0.1759 -0.1188  0.0926
  612ERGO    R3 9276   8.000   4.906   8.496 -0.1199  0.1107  0.0495
  612ERGO    R4 9277   8.136   5.045   8.276  0.2384 -0.1485  0.0969
  612ERGO    R5 9278   7.922   5.004   8.292  0.1512  0.2291 -0.0010
  612ERGO    C1 9279   8.000   4.825   7.964 -0.0030  0.0497  0.0590
  612ERGO    C2 9280   7.883   4.778   7.749  0.0999 -0.1585  0.0880
  613ERGO   ROH 9281   0.801   9.077  10.004 -0.2953  0.2510 -0.0443
  613ERGO    R1 9282   0.667   8.999   9.767 -0.1175  0.0771 -0.0890
  613ERGO    R2 9283   0.634   9.168   9.552 -0.0902 -0.0333 -0.1754
  613ERGO    R3 9284   0.751   8.965   9.415  0.0991 -0.0258 -0.0310
  613ERGO    R4 9285   0.618   9.128   9.209 -0.1063 -0.3108 -0.1445
  613ERGO    R5 9286   0.594   8.913   9.241  0.1170 -0.3203  0.0296
  613ERGO    C1 9287   0.719   8.913   8.881  0.0620 -0.4653  0.0089
  613ERGO    C2 9288   0.775   8.718   8.573  0.1589  0.2401  0.1172
  614ERGO   ROH 9289   3.592  13.371   9.935  0.0791 -0.2399 -0.0495
  614ERGO    R1 9290   3.741  13.449   9.708  0.0180 -0.1876 -0.0726
  614ERGO    R2 9291   3.890  13.271   9.558  0.0579 -0.1379 -0.0982
  614ERGO    R3 9292   3.742  13.370   9.353 -0.0105 -0.1869 -0.0721
  614ERGO    R4 9293   4.000  13.300   9.232  0.0311  0.0148 -0.0936
  614ERGO    R5 9294   3.899  13.493   9.221 -0.0966 -0.0508 -0.0461
  614ERGO    C1 9295   3.926  13.410   8.849 -0.0487  0.0579 -0.0665
  614ERGO    C2 9296   3.948  13.327   8.513 -0.1074 -0.0524 -0.0568
  615ERGO   ROH 9297   8.710  10.239   9.920  0.2138  0.0686  0.1525
  615ERGO    R1 9298   8.815  10.310   9.667  0.2372 -0.1973  0.0854
  615ERGO    R2 9299   8.865  10.123   9.470 -0.3624 -0.3392  0.0480
  615ERGO    R3 9300   8.707  10.286   9.320 -0.0536  0.0725  0.1533
  615ERGO    R4 9301   8.862  10.134   9.124 -0.5340 -0.3062  0.0494
  615ERGO    R5 9302   8.845  10.351   9.136  0.0083 -0.2526  0.0810
  615ERGO    C1 9303   8.713  10.293   8.783 -0.3442  0.0994  0.1489
  615ERGO    C2 9304   8.878  10.397   8.437  0.1844 -0.4979  0.1898
  616ERGO   ROH 9305  13.695  13.395   9.465  0.3471 -0.2290  0.1095
  616ERGO    R1 9306  13.677  13.277   9.208  0.3803 -0.1218  0.0589
  616ERGO    R2 9307  13.517  13.381   9.008  0.1946 -0.1960  0.1748
  616ERGO    R3 9308  13.749  13.379   8.866  0.1453  0.1241  0.0768
  616ERGO    R4 9309  13.542  13.435   8.667 -0.0533 -0.2860  0.1395
  616ERGO    R5 9310  13.690  13.277   8.658  0.2082 -0.0587  0.1405
  616ERGO    C1 9311  13.774  13.463   8.336 -0.2440 -0.0378  0.0267
  616ERGO    C2 9312  13.784  13.394   8.040 -0.2358 -0.0338 -0.1192
  617ERGO   ROH 9313  14.856  12.450   9.729  0.1364  0.3679 -0.0439
  617ERGO    R1 9314  14.908  12.352   9.469  0.1034  0.2354 -0.0028
  617ERGO    R2 9315  14.724  12.370   9.264  0.0389  0.0447  0.0318
  617ERGO    R3 9316  14.929  12.492   9.133 -0.0424  0.0504 -0.0894
  617ERGO    R4 9317  14.730  12.435   8.925 -0.0596 -0.1595 -0.0104
  617ERGO    R5 9318  14.941  12.379   8.923 -0.0396 -0.0711 -0.0215
  617ERGO    C1 9319  14.926  12.589   8.604 -0.1930 -0.2730 -0.1488
  617ERGO    C2 9320  14.794  12.635   8.383 -0.2775  0.3783  0.0053
  618ERGO   ROH 9321   9.071   4.824   9.327 -0.0391 -0.1080 -0.0774
  618ERGO    R1 9322   9.006   4.923   9.070 -0.1898 -0.1669 -0.0643
  618ERGO    R2 9323   9.197   4.963   8.873 -0.2308  0.1998 -0.0472
  618ERGO    R3 9324   9.031   4.805   8.727  0.0470 -0.0660 -0.0823
  618ERGO    R4 9325   9.175   4.965   8.528 -0.3491  0.3431 -0.0391
  618ERGO    R5 9326   8.959   4.945   8.547 -0.3037 -0.1156  0.0187
  618ERGO    C1 9327   9.007   4.818   8.190 -0.1571  0.1770 -0.0673
  618ERGO    C2 9328   8.994   4.856   7.759  0.1224  0.2550  0.0904
  619ERGO   ROH 9329   8.638  16.350   9.852  0.1222  0.0594 -0.0706
  619ERGO    R1 9330   8.748  16.420   9.601  0.0472  0.2587 -0.0490
  619ERGO    R2 9331   8.811  16.233   9.408  0.3521  0.3743 -0.0658
  619ERGO    R3 9332   8.652  16.388   9.252  0.1339  0.1592 -0.0643
  619ERGO    R4 9333   8.779  16.200   9.066  0.3785  0.3163 -0.0630
  619ERGO    R5 9334   8.778  16.417   9.050  0.0876  0.3193 -0.0721
  619ERGO    C1 9335   8.611  16.326   8.719  0.1891  0.0803 -0.0601
  619ERGO    C2 9336   8.573  16.391   8.361 -0.2299  0.2154  0.0398
  620ERGO   ROH 9337   6.881  10.235   9.967 -0.2248  0.2202 -0.0393
  620ERGO    R1 9338   6.906  10.362   9.715 -0.0971  0.1126 -0.0832
  620ERGO    R2 9339   7.131  10.336   9.556 -0.0413 -0.0130  0.0105
  620ERGO    R3 9340   6.949  10.259   9.369  0.0047 -0.0423 -0.0250
  620ERGO    R4 9341   7.210  10.199   9.249  0.0273 -0.1881  0.1053
  620ERGO    R5 9342   7.050  10.317   9.160  0.1031 -0.1775 -0.0149
  620ERGO    C1 9343   7.085  10.046   8.895  0.1106 -0.3176  0.1271
  620ERGO    C2 9344   7.187   9.732   8.751  0.1716  0.2235  0.3328
  621ERGO   ROH 9345  17.754  10.747  10.082 -0.2597 -0.0737  0.1718
  621ERGO    R1 9346  17.828  10.771   9.810 -0.1367  0.0855  0.2191
  621ERGO    R2 9347  17.910  10.555   9.658  0.0702  0.2004  0.1705
  621ERGO    R3 9348  17.713  10.640   9.491  0.1051  0.1488  0.1014
  621ERGO    R4 9349  17.900  10.493   9.319  0.1304  0.0580  0.1935
  621ERGO    R5 9350  17.827  10.697   9.288  0.1509  0.0563  0.0969
  621ERGO    C1 9351  17.709  10.535   8.964  0.1983 -0.0732  0.1421
  621ERGO    C2 9352  17.648  10.409   8.653 -0.0076 -0.0233 -0.2059
  622ERGO   ROH 9353  18.073   0.164   9.673 -0.2452 -0.1567 -0.2338
  622ERGO    R1 9354  18.271   0.137   9.472 -0.1328 -0.1350 -0.1286
  622ERGO    R2 9355  18.210   0.064   9.213  0.0128 -0.1313 -0.1691
  622ERGO    R3 9356  18.345   0.292   9.151  0.0273 -0.1172 -0.0822
  622ERGO    R4 9357  18.292   0.165   8.892  0.1488 -0.0813 -0.1185
  622ERGO    R5 9358  18.486   0.230   8.968  0.1094 -0.0816 -0.0278
  622ERGO    C1 9359  18.467   0.437   8.648  0.2413 -0.0390 -0.0075
  622ERGO    C2 9360  18.391   0.396   8.296  0.3093  0.0498 -0.1913
  623ERGO   ROH 9361   3.364  11.636   9.512  0.2440  0.1371 -0.1309
  623ERGO    R1 9362   3.411  11.625   9.233  0.1072 -0.0886 -0.1487
  623ERGO    R2 9363   3.319  11.418   9.075 -0.2617 -0.0564  0.0033
  623ERGO    R3 9364   3.208  11.620   8.931 -0.0393  0.0274 -0.0522
  623ERGO    R4 9365   3.271  11.414   8.732 -0.2925 -0.1019  0.0092
  623ERGO    R5 9366   3.332  11.623   8.726 -0.0534 -0.1764 -0.0608
  623ERGO    C1 9367   3.138  11.601   8.398 -0.1017 -0.0497 -0.0396
  623ERGO    C2 9368   3.097  11.634   8.153 -0.1769 -0.2722  0.1414
  624ERGO   ROH 9369   8.756   6.616   9.382  0.1133 -0.2067 -0.1595
  624ERGO    R1 9370   8.757   6.751   9.133  0.1249 -0.0138 -0.0563
  624ERGO    R2 9371   8.972   6.902   9.047  0.2002 -0.0949 -0.0059
  624ERGO    R3 9372   8.956   6.742   8.828  0.0199  0.0858 -0.1295
  624ERGO    R4 9373   9.111   6.974   8.739  0.3069 -0.0218  0.0583
  624ERGO    R5 9374   8.931   6.894   8.645  0.2109  0.2609 -0.0173
  624ERGO    C1 9375   9.177   6.865   8.354  0.1996  0.1903 -0.0203
  624ERGO    C2 9376   9.142   6.798   7.963 -0.1076  0.0652 -0.1141
  625ERGO   ROH 9377  10.868  11.868   9.678 -0.0245 -0.1191  0.0219
  625ERGO    R1 9378  10.859  11.699   9.451  0.0328 -0.1114  0.0134
  625ERGO    R2 9379  10.657  11.712   9.263  0.0622 -0.1271 -0.0208
  625ERGO    R3 9380  10.864  11.741   9.090  0.0886 -0.0961  0.0160
  625ERGO    R4 9381  10.663  11.587   8.941  0.0999 -0.0453 -0.0519
  625ERGO    R5 9382  10.872  11.533   8.972  0.0918 -0.0664 -0.0360
  625ERGO    C1 9383  10.861  11.541   8.591  0.1467  0.0313 -0.0354
  625ERGO    C2 9384  10.832  11.654   8.335 -0.2543 -0.1114  0.3784
  626ERGO   ROH 9385   2.535   9.221  10.014 -0.0916  0.0733  0.0044
  626ERGO    R1 9386   2.628   9.087   9.782 -0.0924  0.1277 -0.0266
  626ERGO    R2 9387   2.462   9.027   9.569 -0.0804  0.2230 -0.0593
  626ERGO    R3 9388   2.651   9.160   9.426 -0.0422  0.2308 -0.0032
  626ERGO    R4 9389   2.530   8.975   9.234 -0.0433  0.2873 -0.0628
  626ERGO    R5 9390   2.742   8.995   9.279 -0.0444  0.2491 -0.0281
  626ERGO    C1 9391   2.746   9.069   8.905  0.0142  0.3323 -0.0121
  626ERGO    C2 9392   2.454   8.951   8.633 -0.1917  0.0893 -0.2834
  627ERGO   ROH 9393  16.215   0.037   9.889 -0.0210 -0.1941  0.0240
  627ERGO    R1 9394  16.193  -0.076   9.630 -0.0580 -0.0915 -0.0171
  627ERGO    R2 9395  15.977  -0.028   9.464  0.0416  0.1794 -0.0655
  627ERGO    R3 9396  16.170   0.048   9.289  0.1704  0.0379  0.0109
  627ERGO    R4 9397  15.934  -0.006   9.122  0.1812  0.2256 -0.0813
  627ERGO    R5 9398  16.134  -0.091   9.097  0.1304  0.0690 -0.0090
  627ERGO    C1 9399  16.091   0.078   8.758  0.3833  0.1196 -0.0188
  627ERGO    C2 9400  16.006  -0.006   8.516  0.0714  0.1079 -0.2365
  628ERGO   ROH 9401  13.250   6.527   9.239 -0.1002  0.1189  0.0664
  628ERGO    R1 9402  13.396   6.424   9.019 -0.1175  0.0076  0.1051
  628ERGO    R2 9403  13.319   6.466   8.756 -0.1424 -0.1279  0.0850
  628ERGO    R3 9404  13.572   6.561   8.731 -0.1473 -0.1340  0.0208
  628ERGO    R4 9405  13.482   6.517   8.456 -0.2301 -0.0664  0.0479
  628ERGO    R5 9406  13.664   6.439   8.547 -0.2086 -0.0916 -0.0321
  628ERGO    C1 9407  13.815   6.637   8.258 -0.2856 -0.0362 -0.0339
  628ERGO    C2 9408  13.987   6.647   7.966 -0.1024 -0.2856  0.2346
  629ERGO   ROH 9409   7.976  12.285  10.161 -0.2055  0.3453 -0.1559
  629ERGO    R1 9410   8.060  12.157   9.923 -0.0439  0.1402  0.0074
  629ERGO    R2 9411   7.883  12.039   9.747  0.0613  0.1121 -0.0811
  629ERGO    R3 9412   8.005  12.200   9.566  0.3152 -0.0722 -0.0789
  629ERGO    R4 9413   7.917  11.968   9.411 -0.1332  0.0982 -0.0991
  629ERGO    R5 9414   8.119  12.050   9.419  0.0208 -0.2585 -0.1258
  629ERGO    C1 9415   8.053  12.079   9.045 -0.0080 -0.0830 -0.1075
  629ERGO    C2 9416   7.909  11.877   8.887 -0.0872 -0.1129 -0.3212
  630ERGO   ROH 9417   5.872   7.938   9.613  0.0704  0.2471  0.0846
  630ERGO    R1 9418   5.987   8.006   9.363 -0.0661  0.2029  0.0080
  630ERGO    R2 9419   6.218   7.887   9.268  0.0026  0.3369 -0.0005
  630ERGO    R3 9420   6.063   7.834   9.052 -0.0286  0.0886  0.0798
  630ERGO    R4 9421   6.314   7.938   8.940 -0.1355  0.1962 -0.0636
  630ERGO    R5 9422   6.112   8.011   8.899 -0.2010  0.0274 -0.0495
  630ERGO    C1 9423   6.224   7.919   8.546 -0.2452 -0.1189 -0.0247
  630ERGO    C2 9424   6.350   7.912   8.230 -0.0512 -0.0405 -0.0276
  631ERGO   ROH 9425   7.801  15.884   9.841 -0.1668 -0.0597  0.0690
  631ERGO    R1 9426   7.954  15.852   9.606 -0.1283  0.0695  0.0764
  631ERGO    R2 9427   7.939  15.626   9.447  0.0304  0.0797  0.0485
  631ERGO    R3 9428   7.888  15.806   9.251 -0.0718  0.0702  0.0650
  631ERGO    R4 9429   7.961  15.562   9.108  0.0334  0.1114  0.0421
  631ERGO    R5 9430   8.050  15.759   9.082 -0.0609  0.1575  0.0483
  631ERGO    C1 9431   7.926  15.694   8.727 -0.0607  0.1211  0.0540
  631ERGO    C2 9432   8.141  15.698   8.367 -0.0494 -0.1410 -0.0514
  632ERGO   ROH 9433   7.550   0.721   9.756 -0.1957  0.4202 -0.1219
  632ERGO    R1 9434   7.502   0.730   9.478 -0.0978  0.4195 -0.1409
  632ERGO    R2 9435   7.628   0.909   9.311  0.1062  0.2972 -0.1320
  632ERGO    R3 9436   7.697   0.684   9.174 -0.0308  0.2171 -0.0675
  632ERGO    R4 9437   7.689   0.897   8.970  0.1116  0.1575 -0.1251
  632ERGO    R5 9438   7.582   0.706   8.964 -0.0055  0.2267 -0.0754
  632ERGO    C1 9439   7.788   0.679   8.644 -0.0139  0.0010 -0.0604
  632ERGO    C2 9440   7.799   0.574   8.302  0.1006  0.2388 -0.2648
  633ERGO   ROH 9441   0.504   6.360   9.872  0.0636  0.0452 -0.1322
  633ERGO    R1 9442   0.390   6.385   9.614  0.0406  0.1245 -0.1138
  633ERGO    R2 9443   0.448   6.597   9.446  0.1875  0.0643 -0.1335
  633ERGO    R3 9444   0.511   6.398   9.271 -0.0086  0.0027 -0.1379
  633ERGO    R4 9445   0.387   6.607   9.106  0.2195  0.1561 -0.1372
  633ERGO    R5 9446   0.329   6.396   9.116 -0.0069  0.2089 -0.1513
  633ERGO    C1 9447   0.410   6.426   8.744  0.0540  0.1517 -0.1434
  633ERGO    C2 9448   0.392   6.499   8.380 -0.0834 -0.1901  0.2452
  634ERGO   ROH 9449  11.824  13.855   9.682 -0.2612 -0.0430 -0.2207
  634ERGO    R1 9450  11.911  13.885   9.414 -0.0946 -0.1238 -0.1764
  634ERGO    R2 9451  12.104  13.723   9.301 -0.1241 -0.2456 -0.0493
  634ERGO    R3 9452  11.913  13.683   9.112 -0.0402 -0.1597 -0.1530
  634ERGO    R4 9453  12.165  13.607   8.981  0.0256 -0.0862 -0.0802
  634ERGO    R5 9454  12.018  13.750   8.907  0.0511 -0.0531 -0.0748
  634ERGO    C1 9455  12.021  13.502   8.617  0.1914  0.0874 -0.1955
  634ERGO    C2 9456  12.102  13.461   8.307  0.0275  0.0686  0.0353
  635ERGO   ROH 9457  17.623  17.883   9.408  0.0638 -0.0428  0.1918
  635ERGO    R1 9458  17.607  17.807   9.136  0.1059 -0.0202  0.1818
  635ERGO    R2 9459  17.433  17.927   8.957  0.0490 -0.0802  0.1879
  635ERGO    R3 9460  17.660  17.966   8.813  0.0373  0.0449  0.2045
  635ERGO    R4 9461  17.448  17.947   8.613  0.0985 -0.2551  0.1792
  635ERGO    R5 9462  17.631  17.831   8.618  0.1983 -0.0842  0.2744
  635ERGO    C1 9463  17.670  17.996   8.277  0.1165 -0.2396  0.1898
  635ERGO    C2 9464  17.732  17.947   7.872 -0.0479 -0.0554 -0.1248
  636ERGO   ROH 9465  11.623  11.904   9.757  0.1992  0.0966 -0.0112
  636ERGO    R1 9466  11.796  11.914   9.533  0.2877 -0.0808  0.0484
  636ERGO    R2 9467  11.837  11.697   9.367 -0.0605 -0.0578 -0.0675
  636ERGO    R3 9468  11.765  11.872   9.173  0.3196  0.1976  0.0099
  636ERGO    R4 9469  11.875  11.642   9.028 -0.4045 -0.1217 -0.1003
  636ERGO    R5 9470  11.936  11.851   9.007  0.1827 -0.2675 -0.0916
  636ERGO    C1 9471  11.830  11.775   8.648 -0.2479  0.0810 -0.0467
  636ERGO    C2 9472  11.862  11.630   8.343  0.2028  0.2526  0.0938
  637ERGO   ROH 9473   3.278  10.244   9.601  0.0500  0.0090  0.0226
  637ERGO    R1 9474   3.190  10.390   9.375 -0.0083  0.0024  0.0410
  637ERGO    R2 9475   3.359  10.458   9.166 -0.0388  0.0828  0.0430
  637ERGO    R3 9476   3.169  10.334   9.016 -0.0011  0.0332  0.0355
  637ERGO    R4 9477   3.343  10.467   8.821 -0.0641  0.1346  0.0455
  637ERGO    R5 9478   3.126  10.487   8.837 -0.0721  0.0478  0.0635
  637ERGO    C1 9479   3.155  10.357   8.479 -0.0434  0.1183  0.0398
  637ERGO    C2 9480   3.240  10.347   8.185  0.0081  0.1203 -0.0576
  638ERGO   ROH 9481  18.459  17.126   9.305 -0.1382 -0.2241 -0.0433
  638ERGO    R1 9482  18.425  17.251   9.053 -0.1776 -0.2502 -0.0516
  638ERGO    R2 9483  18.638  17.327   8.895 -0.1892  0.1079  0.0899
  638ERGO    R3 9484  18.511  17.176   8.707  0.1643 -0.0830 -0.0058
  638ERGO    R4 9485  18.586  17.422   8.566 -0.2949  0.1298  0.1132
  638ERGO    R5 9486  18.386  17.335   8.578 -0.1262 -0.2824  0.0241
  638ERGO    C1 9487  18.436  17.336   8.200 -0.0244 -0.0367  0.0369
  638ERGO    C2 9488  18.578  17.382   7.833  0.0161 -0.0486 -0.3742
  639ERGO   ROH 9489  10.021   0.931   9.511  0.2583  0.0085 -0.1082
  639ERGO    R1 9490  10.106   0.898   9.243  0.1703 -0.0169 -0.1342
  639ERGO    R2 9491  10.142   0.649   9.128  0.0693 -0.0306 -0.1455
  639ERGO    R3 9492   9.973   0.747   8.940  0.0380  0.0163 -0.0920
  639ERGO    R4 9493  10.084   0.503   8.821 -0.1931 -0.1002 -0.0640
  639ERGO    R5 9494  10.083   0.702   8.732 -0.1031 -0.1335 -0.1339
  639ERGO    C1 9495   9.890   0.510   8.465 -0.3754 -0.0968  0.0335
  639ERGO    C2 9496   9.920   0.303   8.170  0.1111  0.1807  0.2211
  640ERGO   ROH 9497   7.787   3.710   9.035 -0.0926 -0.1122 -0.0986
  640ERGO    R1 9498   7.868   3.860   8.809 -0.1961 -0.0196 -0.0762
  640ERGO    R2 9499   8.094   3.798   8.662 -0.0945  0.2141 -0.0347
  640ERGO    R3 9500   7.919   3.796   8.454 -0.0568  0.0403 -0.0654
  640ERGO    R4 9501   8.183   3.793   8.328 -0.0463  0.3183 -0.0230
  640ERGO    R5 9502   8.022   3.934   8.288 -0.1800  0.1487 -0.0444
  640ERGO    C1 9503   8.071   3.789   7.939  0.0172  0.2158 -0.0450
  640ERGO    C2 9504   8.279   3.692   7.628 -0.0482  0.5356 -0.2820
  641ERGO   ROH 9505   2.893  14.136   9.957 -0.2234 -0.1133 -0.1190
  641ERGO    R1 9506   2.815  14.143   9.685 -0.0242  0.0635 -0.1725
  641ERGO    R2 9507   2.969  14.261   9.489  0.3185 -0.1753 -0.0447
  641ERGO    R3 9508   2.945  14.018   9.369 -0.0218 -0.1183 -0.1032
  641ERGO    R4 9509   3.041  14.197   9.156  0.2935 -0.1985 -0.0471
  641ERGO    R5 9510   2.864  14.069   9.149  0.0936  0.0606 -0.1117
  641ERGO    C1 9511   3.059  13.932   8.850 -0.0406 -0.1585 -0.1033
  641ERGO    C2 9512   3.082  13.975   8.621 -0.0650 -0.3983  0.1881
  642ERGO   ROH 9513   1.011  15.785   9.616 -0.5416  0.0614 -0.0193
  642ERGO    R1 9514   1.130  15.803   9.360 -0.3312  0.1872  0.0852
  642ERGO    R2 9515   1.144  15.588   9.187  0.1561  0.1671  0.1394
  642ERGO    R3 9516   1.023  15.760   9.015  0.0480 -0.0523 -0.0087
  642ERGO    R4 9517   1.137  15.552   8.843 -0.0921 -0.2974  0.1848
  642ERGO    R5 9518   1.168  15.767   8.825 -0.0854 -0.3193 -0.1266
  642ERGO    C1 9519   1.018  15.692   8.482 -0.3381 -0.7738  0.0723
  642ERGO    C2 9520   0.929  15.661   8.134 -0.0998 -0.1260  0.1758
  643ERGO   ROH 9521  13.252   9.263   9.805  0.0793  0.2041 -0.0436
  643ERGO    R1 9522  13.184   9.320   9.536  0.0948  0.2366 -0.0399
  643ERGO    R2 9523  13.334   9.488   9.376  0.2310  0.0734 -0.0790
  643ERGO    R3 9524  13.336   9.274   9.209  0.0039  0.0520 -0.0586
  643ERGO    R4 9525  13.293   9.506   9.034  0.4540  0.1173 -0.1058
  643ERGO    R5 9526  13.169   9.326   9.044  0.1701  0.2976 -0.1595
  643ERGO    C1 9527  13.270   9.316   8.677  0.3709  0.1227 -0.1022
  643ERGO    C2 9528  13.350   9.377   8.423 -0.0318 -0.0189 -0.1452
  644ERGO   ROH 9529  16.155  13.849   9.310  0.1032 -0.1058  0.0306
  644ERGO    R1 9530  16.223  13.991   9.075  0.0259 -0.1243 -0.0032
  644ERGO    R2 9531  16.461  14.130   9.050 -0.0999  0.0954  0.0082
  644ERGO    R3 9532  16.488  13.978   8.826  0.1041  0.0395  0.0686
  644ERGO    R4 9533  16.679  14.198   8.790 -0.1301  0.2426  0.0202
  644ERGO    R5 9534  16.523  14.137   8.650 -0.0434  0.0169  0.0158
  644ERGO    C1 9535  16.831  14.094   8.429  0.0437  0.2759  0.0840
  644ERGO    C2 9536  16.965  14.044   8.203 -0.3413 -0.2106 -0.0949
  645ERGO   ROH 9537   2.084  17.717   9.704 -0.2377 -0.1897  0.0973
  645ERGO    R1 9538   2.073  17.905   9.493 -0.1425 -0.1985  0.0868
  645ERGO    R2 9539   2.275  17.931   9.306 -0.1245 -0.2999  0.1029
  645ERGO    R3 9540   2.072  17.895   9.129 -0.1273 -0.2147  0.0854
  645ERGO    R4 9541   2.286  18.018   8.971  0.0600 -0.5750  0.0324
  645ERGO    R5 9542   2.081  18.088   8.988  0.1262 -0.3277 -0.0685
  645ERGO    C1 9543   2.102  18.034   8.611  0.1647 -0.6550 -0.0250
  645ERGO    C2 9544   2.086  18.150   8.358 -0.1629 -0.0961  0.1357
  646ERGO   ROH 9545   4.222   9.453  10.094 -0.0398  0.0620  0.1112
  646ERGO    R1 9546   4.149   9.616   9.874  0.0801  0.0333  0.0502
  646ERGO    R2 9547   4.214   9.551   9.614 -0.0543 -0.1665  0.0657
  646ERGO    R3 9548   3.946   9.580   9.574 -0.0369  0.1033  0.1202
  646ERGO    R4 9549   4.065   9.602   9.306 -0.0918 -0.3227  0.0565
  646ERGO    R5 9550   3.930   9.745   9.401  0.1029 -0.0601 -0.0525
  646ERGO    C1 9551   3.727   9.658   9.089 -0.0973 -0.1604  0.1023
  646ERGO    C2 9552   3.728   9.709   8.619 -0.0113  0.0144 -0.1018
  647ERGO   ROH 9553  16.312  12.836   9.649  0.0597  0.2066 -0.1147
  647ERGO    R1 9554  16.390  12.881   9.381  0.1369  0.0861 -0.1130
  647ERGO    R2 9555  16.561  12.711   9.245  0.0042 -0.0938 -0.0582
  647ERGO    R3 9556  16.359  12.707   9.063  0.0232  0.0531 -0.0843
  647ERGO    R4 9557  16.604  12.732   8.903  0.0711 -0.2111 -0.0574
  647ERGO    R5 9558  16.429  12.862   8.894  0.1915 -0.0484 -0.1106
  647ERGO    C1 9559  16.439  12.740   8.532  0.1278 -0.1415 -0.0815
  647ERGO    C2 9560  16.375  12.515   8.223  0.0606 -0.1287  0.1852
  648ERGO   ROH 9561   9.429  15.834   9.925 -0.0774  0.0233 -0.0619
  648ERGO    R1 9562   9.330  15.688   9.704  0.0961 -0.0190 -0.1125
  648ERGO    R2 9563   9.105  15.765   9.563  0.0285 -0.2147 -0.1091
  648ERGO    R3 9564   9.273  15.750   9.350  0.0631  0.0210 -0.1013
  648ERGO    R4 9565   9.020  15.846   9.238 -0.0677 -0.2997 -0.1060
  648ERGO    R5 9566   9.135  15.674   9.170  0.1659 -0.1501 -0.1139
  648ERGO    C1 9567   9.128  15.880   8.849 -0.0908 -0.1281 -0.0969
  648ERGO    C2 9568   9.010  16.044   8.618 -0.3322  0.1925  0.0369
  649ERGO   ROH 9569  11.435  13.651   9.673  0.0628  0.0152 -0.0087
  649ERGO    R1 9570  11.543  13.622   9.413  0.0333  0.3156 -0.0585
  649ERGO    R2 9571  11.475  13.413   9.246  0.5176  0.1243 -0.0296
  649ERGO    R3 9572  11.415  13.613   9.072 -0.1044 -0.0168 -0.0028
  649ERGO    R4 9573  11.450  13.376   8.903  0.5180  0.0661 -0.0236
  649ERGO    R5 9574  11.551  13.568   8.880 -0.0200  0.3708 -0.0458
  649ERGO    C1 9575  11.379  13.543   8.541 -0.0657 -0.1004  0.0050
  649ERGO    C2 9576  11.425  13.500   8.224 -0.1326  0.0238 -0.1014
  650ERGO   ROH 9577   5.282   3.904   9.311 -0.1093 -0.0423 -0.0145
  650ERGO    R1 9578   5.183   3.953   9.051 -0.1967 -0.3665 -0.0444
  650ERGO    R2 9579   5.325   4.096   8.862 -0.5694  0.0484 -0.0140
  650ERGO    R3 9580   5.284   3.875   8.710  0.1334 -0.1056 -0.0136
  650ERGO    R4 9581   5.298   4.097   8.518 -0.7092 -0.0014 -0.0056
  650ERGO    R5 9582   5.138   3.949   8.535 -0.2156 -0.5804  0.0494
  650ERGO    C1 9583   5.245   3.889   8.174 -0.1309 -0.1750 -0.0003
  650ERGO    C2 9584   5.124   3.872   7.879  0.1139 -0.0820 -0.1391
  651ERGO   ROH 9585   0.014  17.547   9.484 -0.0974  0.0412  0.0747
  651ERGO    R1 9586   0.053  17.736   9.277  0.1203  0.0195  0.0947
  651ERGO    R2 9587   0.246  17.706   9.082 -0.0809 -0.3186 -0.0569
  651ERGO    R3 9588   0.035  17.738   8.913 -0.1533  0.1408  0.1051
  651ERGO    R4 9589   0.273  17.793   8.749 -0.1333 -0.4738 -0.1034
  651ERGO    R5 9590   0.099  17.923   8.774  0.1869 -0.0393  0.0061
  651ERGO    C1 9591   0.090  17.874   8.396 -0.2318 -0.1331  0.0216
  651ERGO    C2 9592   0.050  17.888   8.008  0.1223 -0.1827 -0.3533
  652ERGO   ROH 9593   3.295  12.105   9.364 -0.1289 -0.0595  0.0496
  652ERGO    R1 9594   3.220  12.025   9.104 -0.1928  0.1138  0.0133
  652ERGO    R2 9595   3.126  12.203   8.914  0.0546  0.2939  0.0530
  652ERGO    R3 9596   3.326  12.098   8.763 -0.0496  0.0887  0.0527
  652ERGO    R4 9597   3.134  12.204   8.569  0.0147  0.1906  0.0511
  652ERGO    R5 9598   3.215  12.001   8.575 -0.1504  0.1277  0.0941
  652ERGO    C1 9599   3.327  12.106   8.226 -0.1064 -0.0621  0.0498
  652ERGO    C2 9600   3.447  12.219   7.955  0.0098  0.2211  0.1777
  653ERGO   ROH 9601   7.952  14.778   9.981 -0.1519  0.0810 -0.0149
  653ERGO    R1 9602   7.898  14.842   9.711 -0.0062  0.2573 -0.0037
  653ERGO    R2 9603   8.097  14.916   9.533  0.1265  0.1149  0.0859
  653ERGO    R3 9604   7.994  14.712   9.385 -0.0579  0.2902 -0.0329
  653ERGO    R4 9605   8.080  14.912   9.188  0.4014  0.2100  0.0692
  653ERGO    R5 9606   7.882  14.822   9.203  0.2472  0.4966 -0.1067
  653ERGO    C1 9607   7.974  14.719   8.847  0.3883  0.4300 -0.0521
  653ERGO    C2 9608   7.915  14.645   8.451 -0.3766 -0.1197 -0.0734
  654ERGO   ROH 9609   0.555   5.877  10.028 -0.2219 -0.0134 -0.1128
  654ERGO    R1 9610   0.471   5.804   9.768 -0.1202  0.0509 -0.1649
  654ERGO    R2 9611   0.484   5.978   9.553  0.0853  0.0637 -0.1476
  654ERGO    R3 9612   0.624   5.774   9.439  0.0436 -0.0004 -0.0836
  654ERGO    R4 9613   0.493   5.908   9.215  0.0932 -0.0392 -0.1262
  654ERGO    R5 9614   0.483   5.696   9.263  0.0410 -0.0192 -0.0688
  654ERGO    C1 9615   0.629   5.676   8.911  0.0587 -0.1593 -0.0536
  654ERGO    C2 9616   0.921   5.621   8.764 -0.1025 -0.1123 -0.1103
  655ERGO   ROH 9617   6.598   5.499   9.181  0.0234  0.1358 -0.0194
  655ERGO    R1 9618   6.673   5.534   8.910  0.1363  0.0332 -0.0032
  655ERGO    R2 9619   6.811   5.340   8.768  0.0745 -0.0832  0.0815
  655ERGO    R3 9620   6.604   5.368   8.593  0.1449  0.0021  0.0130
  655ERGO    R4 9621   6.823   5.260   8.432  0.1660 -0.0151  0.0692
  655ERGO    R5 9622   6.708   5.439   8.390  0.2279  0.0166  0.0650
  655ERGO    C1 9623   6.637   5.239   8.073  0.2853  0.1045 -0.0021
  655ERGO    C2 9624   6.478   5.038   7.968  0.5671  0.1092  0.1541
  656ERGO   ROH 9625   3.144   1.058   9.467  0.1855  0.0287 -0.0396
  656ERGO    R1 9626   3.193   0.864   9.266  0.3084  0.0891 -0.0698
  656ERGO    R2 9627   2.990   0.737   9.129  0.3785 -0.1866  0.0666
  656ERGO    R3 9628   3.123   0.829   8.911  0.1135 -0.0040 -0.0221
  656ERGO    R4 9629   3.016   0.569   8.829  0.4904 -0.1896  0.0786
  656ERGO    R5 9630   3.224   0.634   8.816  0.3803  0.1447 -0.0456
  656ERGO    C1 9631   3.157   0.557   8.448  0.3068 -0.0198  0.0023
  656ERGO    C2 9632   3.272   0.549   8.037  0.1259 -0.0070  0.0157
  657ERGO   ROH 9633   3.978   2.521   9.557 -0.0639 -0.2035 -0.1555
  657ERGO    R1 9634   3.833   2.432   9.332 -0.0710  0.1204 -0.2846
  657ERGO    R2 9635   3.822   2.575   9.096  0.3562  0.2113 -0.2582
  657ERGO    R3 9636   3.908   2.341   8.988  0.0121  0.0772 -0.2550
  657ERGO    R4 9637   3.847   2.511   8.757  0.4214  0.2294 -0.2568
  657ERGO    R5 9638   3.770   2.310   8.794  0.0556  0.3487 -0.3314
  657ERGO    C1 9639   3.943   2.255   8.458  0.1363  0.1141 -0.2529
  657ERGO    C2 9640   4.166   2.301   8.270 -0.0102 -0.0450  0.2089
  658ERGO   ROH 9641  13.860   0.926   9.616  0.2154 -0.0987  0.0359
  658ERGO    R1 9642  13.767   0.978   9.354  0.0587 -0.1041  0.0893
  658ERGO    R2 9643  13.846   1.200   9.210 -0.1251 -0.0385  0.0827
  658ERGO    R3 9644  13.914   1.014   9.023 -0.1212  0.0233  0.0224
  658ERGO    R4 9645  13.892   1.265   8.873 -0.1555  0.0593  0.0974
  658ERGO    R5 9646  13.791   1.077   8.828 -0.1393  0.0656  0.0502
  658ERGO    C1 9647  13.983   1.129   8.503 -0.1697  0.1744  0.0492
  658ERGO    C2 9648  14.125   1.295   8.247 -0.0160 -0.1767 -0.0433
  659ERGO   ROH 9649   3.501  12.359   9.709 -0.0238  0.0354 -0.0149
  659ERGO    R1 9650   3.531  12.471   9.451 -0.0970  0.0208 -0.0285
  659ERGO    R2 9651   3.755  12.429   9.295 -0.1326  0.0359 -0.0748
  659ERGO    R3 9652   3.573  12.345   9.112 -0.1631  0.0057 -0.0327
  659ERGO    R4 9653   3.809  12.418   8.954 -0.1199 -0.1778 -0.0682
  659ERGO    R5 9654   3.606  12.491   8.924 -0.0940 -0.1088 -0.1154
  659ERGO    C1 9655   3.669  12.333   8.583 -0.1411 -0.3307 -0.0247
  659ERGO    C2 9656   3.835  12.276   8.265  0.1114  0.0805 -0.0535
  660ERGO   ROH 9657  12.219   4.105   9.961 -0.2082 -0.1576 -0.0932
  660ERGO    R1 9658  12.127   4.116   9.693 -0.0083 -0.0877 -0.1595
  660ERGO    R2 9659  11.976   4.326   9.595 -0.1135 -0.1671 -0.1544
  660ERGO    R3 9660  12.172   4.336   9.407  0.0231  0.1125 -0.0045
  660ERGO    R4 9661  11.943   4.471   9.284 -0.0881 -0.2008 -0.1738
  660ERGO    R5 9662  12.056   4.306   9.199  0.2158 -0.0468 -0.0968
  660ERGO    C1 9663  12.107   4.566   8.925  0.0551  0.0422 -0.0446
  660ERGO    C2 9664  12.174   4.718   8.698 -0.1000 -0.1972 -0.0480
  661ERGO   ROH 9665   9.891  16.019  10.024  0.1509 -0.1910  0.1977
  661ERGO    R1 9666   9.837  16.048   9.747  0.1099 -0.1271  0.2130
  661ERGO    R2 9667   9.962  15.894   9.554  0.0731 -0.0863  0.1631
  661ERGO    R3 9668   9.706  15.838   9.481  0.0607 -0.0606  0.1827
  661ERGO    R4 9669   9.860  15.823   9.232  0.0631 -0.1575  0.1807
  661ERGO    R5 9670   9.681  15.943   9.267  0.0813 -0.1121  0.1506
  661ERGO    C1 9671   9.560  15.730   8.974  0.0456 -0.1750  0.2094
  661ERGO    C2 9672   9.391  15.449   8.747 -0.2248  0.0177  0.2103
  662ERGO   ROH 9673   5.983  11.914   9.327  0.0971  0.1080 -0.1798
  662ERGO    R1 9674   5.934  11.848   9.056  0.1604  0.0591 -0.1806
  662ERGO    R2 9675   6.038  11.994   8.846  0.1730  0.0507 -0.1860
  662ERGO    R3 9676   6.133  11.752   8.767  0.2352  0.0568 -0.1272
  662ERGO    R4 9677   6.161  11.923   8.531 -0.0441 -0.0659 -0.2457
  662ERGO    R5 9678   6.060  11.731   8.540  0.0647 -0.1114 -0.0557
  662ERGO    C1 9679   6.322  11.655   8.273 -0.1121 -0.1280 -0.2255
  662ERGO    C2 9680   6.530  11.708   8.159 -0.3059  0.1819  0.2024
  663ERGO   ROH 9681   0.270  15.830   9.415 -0.4522  0.0534 -0.0216
  663ERGO    R1 9682   0.161  15.697   9.190 -0.3030  0.0271 -0.0803
  663ERGO    R2 9683  -0.059  15.793   9.053 -0.2900 -0.0543 -0.1621
  663ERGO    R3 9684   0.107  15.774   8.839 -0.1915  0.0386 -0.0948
  663ERGO    R4 9685  -0.140  15.643   8.752 -0.2186  0.2445 -0.3335
  663ERGO    R5 9686   0.060  15.558   8.746 -0.2614  0.1420 -0.3026
  663ERGO    C1 9687  -0.031  15.538   8.376 -0.0845  0.5057 -0.3700
  663ERGO    C2 9688   0.025  15.418   8.025  0.0260 -0.0721  0.1458
  664ERGO   ROH 9689   2.406   1.814   9.559 -0.1500 -0.1652 -0.1787
  664ERGO    R1 9690   2.576   1.895   9.348 -0.0546  0.1065 -0.0041
  664ERGO    R2 9691   2.555   1.791   9.092  0.3404  0.1086 -0.0448
  664ERGO    R3 9692   2.536   2.053   9.023  0.0334  0.0952 -0.0204
  664ERGO    R4 9693   2.613   1.918   8.775  0.3562  0.2278  0.0057
  664ERGO    R5 9694   2.714   2.088   8.867  0.0803  0.3514  0.0864
  664ERGO    C1 9695   2.629   2.238   8.527  0.0772  0.2846  0.0580
  664ERGO    C2 9696   2.635   2.319   8.162  0.1534 -0.2573 -0.0749
  665ERGO   ROH 9697   2.966   4.318   9.418  0.0087 -0.1170 -0.0945
  665ERGO    R1 9698   2.932   4.235   9.149 -0.0543 -0.1624 -0.0730
  665ERGO    R2 9699   2.875   3.973   9.081 -0.1386 -0.1609 -0.0116
  665ERGO    R3 9700   2.666   4.087   8.950 -0.1257 -0.1280 -0.0035
  665ERGO    R4 9701   2.670   3.809   8.857 -0.0473 -0.0761 -0.1587
  665ERGO    R5 9702   2.672   3.988   8.732 -0.0485 -0.0054 -0.0584
  665ERGO    C1 9703   2.354   3.821   8.603  0.0180  0.0041 -0.2366
  665ERGO    C2 9704   2.176   3.617   8.704  0.2795  0.3745  0.2620
  666ERGO   ROH 9705   9.394  17.426   9.784 -0.0041 -0.0882 -0.1742
  666ERGO    R1 9706   9.555  17.350   9.565  0.0462 -0.2131 -0.0964
  666ERGO    R2 9707   9.595  17.086   9.494 -0.1973 -0.2470 -0.1336
  666ERGO    R3 9708   9.508  17.172   9.251  0.0347 -0.0907 -0.1635
  666ERGO    R4 9709   9.604  16.899   9.203 -0.1722 -0.1549 -0.1911
  666ERGO    R5 9710   9.664  17.079   9.095  0.0534 -0.1724 -0.0923
  666ERGO    C1 9711   9.528  16.871   8.806  0.0604  0.0453 -0.2525
  666ERGO    C2 9712   9.618  16.865   8.496 -0.1160  0.1046  0.1900
  667ERGO   ROH 9713   6.902   1.481   9.649 -0.0351  0.3451  0.1545
  667ERGO    R1 9714   6.952   1.635   9.416  0.2470  0.0855  0.0383
  667ERGO    R2 9715   7.103   1.540   9.205 -0.0230 -0.4002  0.0580
  667ERGO    R3 9716   6.882   1.605   9.060  0.0756  0.0081  0.0750
  667ERGO    R4 9717   7.100   1.606   8.865  0.0807 -0.4237  0.0513
  667ERGO    R5 9718   6.959   1.767   8.902  0.3797 -0.1416  0.0537
  667ERGO    C1 9719   6.891   1.705   8.532  0.2336 -0.0540  0.0633
  667ERGO    C2 9720   6.715   1.517   8.283 -0.0147  0.0059  0.3587
  668ERGO   ROH 9721   5.144   5.032   9.064 -0.4136  0.0817  0.1918
  668ERGO    R1 9722   5.105   4.985   8.787 -0.1030  0.0350  0.1512
  668ERGO    R2 9723   4.856   4.994   8.668  0.0091 -0.0851 -0.1176
  668ERGO    R3 9724   4.976   5.173   8.503  0.1127 -0.0480 -0.0009
  668ERGO    R4 9725   4.782   5.034   8.333  0.0991  0.1278 -0.1124
  668ERGO    R5 9726   4.995   5.057   8.294  0.1092  0.0622 -0.0566
  668ERGO    C1 9727   4.852   5.225   7.983  0.2488  0.2867  0.0001
  668ERGO    C2 9728   4.921   5.399   7.724  0.3085 -0.1553  0.2695
  669ERGO   ROH 9729   6.750   6.963   9.654 -0.2751  0.4286  0.0529
  669ERGO    R1 9730   6.796   7.113   9.419 -0.0802  0.2224 -0.0439
  669ERGO    R2 9731   6.990   7.046   9.234 -0.0886 -0.0776  0.0594
  669ERGO    R3 9732   6.781   7.054   9.061 -0.0313 -0.0188 -0.0092
  669ERGO    R4 9733   7.019   7.056   8.890  0.0377  0.1040  0.0732
  669ERGO    R5 9734   6.855   7.199   8.885  0.0147  0.0864  0.0905
  669ERGO    C1 9735   6.839   7.070   8.526  0.1652  0.2648  0.0169
  669ERGO    C2 9736   6.718   7.196   8.067 -0.2159 -0.0209  0.0550
  670ERGO   ROH 9737  12.937  17.059   9.423 -0.0024 -0.1658  0.0661
  670ERGO    R1 9738  13.087  17.151   9.201 -0.0081 -0.0705  0.1007
  670ERGO    R2 9739  13.103  17.011   8.963  0.1172 -0.0494  0.0925
  670ERGO    R3 9740  13.017  17.246   8.857  0.0069 -0.0901  0.0929
  670ERGO    R4 9741  13.246  17.168   8.691 -0.1151 -0.1073 -0.0646
  670ERGO    R5 9742  13.218  17.359   8.792 -0.0576 -0.0838 -0.0971
  670ERGO    C1 9743  13.249  17.480   8.432 -0.3541 -0.1790 -0.1557
  670ERGO    C2 9744  13.189  17.536   8.055  0.2435  0.1284 -0.2692
  671ERGO   ROH 9745  17.709  12.154   9.766  0.0370  0.0460 -0.1263
  671ERGO    R1 9746  17.849  12.102   9.525  0.0568  0.0432 -0.1143
  671ERGO    R2 9747  17.925  11.847   9.449  0.1169  0.0483 -0.0759
  671ERGO    R3 9748  17.790  11.909   9.221  0.1090 -0.0132 -0.0884
  671ERGO    R4 9749  17.906  11.644   9.170 -0.0452 -0.1038  0.0432
  671ERGO    R5 9750  17.928  11.822   9.046  0.0282 -0.1896 -0.0645
  671ERGO    C1 9751  17.769  11.584   8.794 -0.1467 -0.2500  0.1008
  671ERGO    C2 9752  17.698  11.573   8.535 -0.2836  0.0106  0.0414
  672ERGO   ROH 9753   8.207  14.186   9.928  0.1083 -0.1550  0.1519
  672ERGO    R1 9754   8.129  14.293   9.677  0.0702 -0.1007  0.1868
  672ERGO    R2 9755   8.303  14.435   9.516  0.0551 -0.0951  0.1764
  672ERGO    R3 9756   8.229  14.252   9.330 -0.0075 -0.0522  0.1583
  672ERGO    R4 9757   8.334  14.478   9.175  0.1018 -0.0840  0.1820
  672ERGO    R5 9758   8.139  14.382   9.150  0.0622 -0.0007  0.1594
  672ERGO    C1 9759   8.283  14.330   8.801  0.0703 -0.0372  0.1681
  672ERGO    C2 9760   8.442  14.256   8.467 -0.1086 -0.0502  0.0547
  673ERGO   ROH 9761   6.150   3.495   9.008  0.0295  0.0366 -0.0469
  673ERGO    R1 9762   6.091   3.514   8.732 -0.0172 -0.0032 -0.0398
  673ERGO    R2 9763   6.179   3.724   8.575 -0.0685 -0.0112 -0.0784
  673ERGO    R3 9764   6.281   3.525   8.421 -0.0684 -0.0162 -0.0719
  673ERGO    R4 9765   6.222   3.741   8.233  0.1493  0.0671 -0.0488
  673ERGO    R5 9766   6.153   3.535   8.219  0.0590  0.1021 -0.1485
  673ERGO    C1 9767   6.343   3.564   7.889  0.2762  0.1078 -0.0255
  673ERGO    C2 9768   6.397   3.461   7.598 -0.1462 -0.2006  0.2235
  674ERGO   ROH 9769  17.151  13.968   9.590  0.0317 -0.0166  0.2485
  674ERGO    R1 9770  17.187  13.834   9.343  0.1639  0.1149  0.1943
  674ERGO    R2 9771  17.396  13.660   9.298  0.1320  0.0577  0.2492
  674ERGO    R3 9772  17.197  13.489   9.229  0.1120  0.1773  0.0000
  674ERGO    R4 9773  17.444  13.343   9.169  0.0958  0.0372  0.2862
  674ERGO    R5 9774  17.278  13.379   9.032  0.2800  0.1423  0.0904
  674ERGO    C1 9775  17.284  12.997   9.029  0.0559  0.1376  0.0739
  674ERGO    C2 9776  17.194  12.678   9.063 -0.1500 -0.0095 -0.2799
  675PSPI    C1 9777   5.711   3.476   5.478  0.0297 -0.1645 -0.1014
  675PSPI    C2 9778   5.447   3.591   5.200 -0.0225 -0.2388 -0.0827
  675PSPI    C3 9779   5.832   3.692   5.163 -0.0878  0.0481 -0.0031
  675PSPI   PO4 9780   5.682   3.282   5.624 -0.1955  0.1872  0.0594
  675PSPI   GL1 9781   5.860   3.101   6.009  0.2334  0.1920  0.1803
  675PSPI   GL2 9782   5.815   2.924   5.919 -0.0233  0.0513 -0.0171
  675PSPI   C1A 9783   5.948   3.355   6.333 -0.0131  0.2042  0.0692
  675PSPI   C2A 9784   5.880   3.332   6.684 -0.2923  0.1135  0.2062
  675PSPI   C3A 9785   5.832   2.875   6.743  0.0151  0.1066 -0.0713
  675PSPI   C4A 9786   5.815   2.479   6.974 -0.0117 -0.1368 -0.1382
  675PSPI   C1B 9787   5.862   2.653   6.263  0.1430 -0.0017  0.0798
  675PSPI   C2B 9788   5.650   2.375   6.534  0.0093 -0.0715 -0.4343
  675PSPI   C3B 9789   5.240   2.133   6.463 -0.0745  0.2515 -0.3098
  675PSPI   C4B 9790   4.896   2.249   6.378  0.1964 -0.1214 -0.0925
  676PSPI    C1 9791   5.802  10.499   5.765 -0.0379  0.1406  0.0857
  676PSPI    C2 9792   6.093  10.235   5.691 -0.1841  0.0641 -0.2305
  676PSPI    C3 9793   6.112  10.602   5.534  0.0844  0.2936  0.3141
  676PSPI   PO4 9794   5.780  10.474   6.034 -0.3505  0.1118 -0.2271
  676PSPI   GL1 9795   5.545  10.175   6.323 -0.0541  0.1441  0.1806
  676PSPI   GL2 9796   5.545  10.553   6.477 -0.0846 -0.0755 -0.0797
  676PSPI   C1A 9797   5.708  10.191   6.807  0.1983 -0.1175  0.0203
  676PSPI   C2A 9798   5.696  10.007   7.185 -0.1852 -0.1006 -0.1050
  676PSPI   C3A 9799   5.758   9.993   7.683  0.1452  0.1450 -0.4306
  676PSPI   C4A 9800   5.744   9.920   8.143  0.0581 -0.0161 -0.0721
  676PSPI   C1B 9801   5.306  10.538   6.796 -0.2217 -0.0764 -0.0447
  676PSPI   C2B 9802   5.206  10.490   7.277  0.0931  0.0046 -0.0714
  676PSPI   C3B 9803   4.999  10.676   7.528 -0.2262 -0.0320  0.0580
  676PSPI   C4B 9804   5.041  10.935   7.895 -0.0052  0.0080  0.1033
  677PSPI    C1 9805  17.530   1.953   5.556 -0.4667  0.1218  0.2639
  677PSPI    C2 9806  17.438   1.891   5.172 -0.1153  0.0358  0.1895
  677PSPI    C3 9807  17.621   2.229   5.281  0.0386 -0.0619  0.2359
  677PSPI   PO4 9808  17.517   1.654   5.612 -0.0905 -0.0015  0.3712
  677PSPI   GL1 9809  17.676   1.464   5.914  0.1232  0.3512  0.2157
  677PSPI   GL2 9810  17.488   1.116   5.981 -0.2716 -0.1048  0.3107
  677PSPI   C1A 9811  17.785   1.398   6.379  0.2352 -0.1489 -0.0429
  677PSPI   C2A 9812  17.448   1.081   6.530 -0.0481  0.0996 -0.1661
  677PSPI   C3A 9813  17.320   0.846   6.960 -0.1171  0.2774  0.0078
  677PSPI   C4A 9814  17.469   0.985   7.387  0.1540  0.2977 -0.1071
  677PSPI   C1B 9815  17.269   0.741   6.188  0.3760  0.0723  0.0848
  677PSPI   C2B 9816  17.223   0.528   6.507  0.0927 -0.3822  0.0884
  677PSPI   C3B 9817  16.913   0.534   6.772 -0.1267  0.0632 -0.0549
  677PSPI   C4B 9818  16.710   0.754   6.974 -0.1259  0.2628  0.1980
  678PSPI    C1 9819  14.470  15.470   5.330 -0.1015  0.0181  0.0219
  678PSPI    C2 9820  14.820  15.303   5.233 -0.0734  0.0582  0.0535
  678PSPI    C3 9821  14.479  15.140   5.104 -0.0419  0.0375 -0.0044
  678PSPI   PO4 9822  14.313  15.404   5.586  0.2903  0.1117  0.1535
  678PSPI   GL1 9823  14.339  15.349   6.114 -0.0198  0.1547 -0.3913
  678PSPI   GL2 9824  14.117  15.609   6.154  0.3712 -0.0110 -0.5188
  678PSPI   C1A 9825  14.370  15.001   6.419 -0.1239  0.0659  0.1372
  678PSPI   C2A 9826  14.449  15.093   6.789  0.1825  0.2616  0.2264
  678PSPI   C3A 9827  14.594  15.325   7.099 -0.1156  0.0186 -0.0011
  678PSPI   C4A 9828  14.763  15.433   7.559  0.3274 -0.1897  0.0565
  678PSPI   C1B 9829  13.909  15.581   6.496  0.1211 -0.0695 -0.1630
  678PSPI   C2B 9830  13.702  15.768   6.969 -0.2478 -0.3000  0.1618
  678PSPI   C3B 9831  13.546  16.032   7.287  0.1320  0.0106  0.3150
  678PSPI   C4B 9832  13.377  16.149   7.608 -0.1143  0.1263 -0.1529
  679PSPI    C1 9833  16.675  10.047   6.221 -0.1243  0.1531 -0.1449
  679PSPI    C2 9834  16.410   9.826   6.423  0.1137  0.0004  0.0056
  679PSPI    C3 9835  16.323   9.956   6.055 -0.1648 -0.0541  0.0499
  679PSPI   PO4 9836  16.922   9.816   6.259 -0.0360 -0.0609 -0.0315
  679PSPI   GL1 9837  17.187   9.846   6.654  0.1953 -0.4246 -0.1019
  679PSPI   GL2 9838  16.926   9.615   6.686 -0.0974 -0.0954 -0.2718
  679PSPI   C1A 9839  17.229  10.093   7.058  0.1307  0.2152 -0.2562
  679PSPI   C2A 9840  17.316  10.129   7.470 -0.1322  0.0877 -0.1756
  679PSPI   C3A 9841  17.466  10.204   7.870 -0.1595  0.1413  0.1199
  679PSPI   C4A 9842  17.676  10.247   8.140  0.4655 -0.0934  0.2060
  679PSPI   C1B 9843  16.895   9.772   7.114  0.0645  0.1943  0.0701
  679PSPI   C2B 9844  16.813  10.041   7.404 -0.0653 -0.1413  0.1616
  679PSPI   C3B 9845  16.627  10.239   7.673  0.2792  0.0989 -0.1741
  679PSPI   C4B 9846  16.360  10.571   7.913 -0.0262  0.1665 -0.0197
  680PSPI    C1 9847  12.032  12.105   5.514 -0.1541  0.1875 -0.0652
  680PSPI    C2 9848  12.156  12.472   5.417 -0.0451  0.2353  0.2447
  680PSPI    C3 9849  12.147  12.185   5.139  0.3695  0.3371  0.1191
  680PSPI   PO4 9850  12.301  11.992   5.793 -0.4401 -0.0777 -0.2789
  680PSPI   GL1 9851  12.582  12.075   6.116 -0.4201 -0.5763 -0.0981
  680PSPI   GL2 9852  12.497  11.761   6.179 -0.0326 -0.2020  0.1812
  680PSPI   C1A 9853  12.589  12.021   6.564  0.1445  0.0512 -0.1149
  680PSPI   C2A 9854  12.638  11.825   6.979  0.1485  0.2696 -0.1857
  680PSPI   C3A 9855  12.488  11.750   7.357 -0.1154 -0.0586  0.1811
  680PSPI   C4A 9856  12.327  11.690   7.715 -0.1735 -0.1691 -0.0045
  680PSPI   C1B 9857  12.538  11.505   6.562 -0.0221  0.0643 -0.2316
  680PSPI   C2B 9858  12.553  11.329   6.931 -0.0062 -0.0854  0.1357
  680PSPI   C3B 9859  12.609  11.275   7.260  0.0228 -0.0504 -0.0059
  680PSPI   C4B 9860  12.778  11.377   7.631  0.2103  0.1584 -0.0085
  681PSPI    C1 9861   8.201   7.623   5.463  0.1324  0.0499  0.1334
  681PSPI    C2 9862   8.199   7.741   5.080  0.0821 -0.1163  0.0815
  681PSPI    C3 9863   8.544   7.649   5.259  0.1221  0.1063  0.1228
  681PSPI   PO4 9864   7.982   7.804   5.563 -0.2082 -0.1125  0.0100
  681PSPI   GL1 9865   7.779   7.916   5.992  0.1126  0.1278 -0.1367
  681PSPI   GL2 9866   7.743   7.611   6.220  0.1895  0.0643 -0.0438
  681PSPI   C1A 9867   7.829   8.060   6.444  0.2132  0.2736  0.0011
  681PSPI   C2A 9868   7.564   8.292   6.800 -0.0678  0.0931 -0.0153
  681PSPI   C3A 9869   7.357   8.224   7.176 -0.2150  0.1436 -0.0742
  681PSPI   C4A 9870   7.007   7.990   7.323  0.0420 -0.0156 -0.0547
  681PSPI   C1B 9871   7.730   7.554   6.582 -0.2894 -0.0067 -0.1776
  681PSPI   C2B 9872   7.761   7.857   6.958  0.1992 -0.0286  0.1507
  681PSPI   C3B 9873   7.608   7.782   7.338 -0.0452  0.0625 -0.0224
  681PSPI   C4B 9874   7.423   7.461   7.544 -0.2032 -0.0192 -0.0352
  682PSPI    C1 9875   7.607   2.524   5.452  0.1005  0.1359  0.4845
  682PSPI    C2 9876   8.002   2.466   5.459  0.0970 -0.0007 -0.0161
  682PSPI    C3 9877   7.769   2.226   5.239 -0.2397  0.2227  0.0897
  682PSPI   PO4 9878   7.580   2.636   5.673  0.1770  0.1912  0.2147
  682PSPI   GL1 9879   7.662   3.023   5.849  0.2823  0.0210  0.1132
  682PSPI   GL2 9880   7.629   2.889   6.124  0.1595 -0.5032  0.3479
  682PSPI   C1A 9881   8.096   3.063   6.156 -0.1555 -0.1703 -0.0906
  682PSPI   C2A 9882   8.232   3.094   6.573 -0.2751 -0.2061  0.0312
  682PSPI   C3A 9883   8.247   2.963   7.073  0.3104 -0.1786  0.0502
  682PSPI   C4A 9884   8.246   2.932   7.538 -0.0271 -0.0018 -0.0416
  682PSPI   C1B 9885   7.798   2.981   6.524  0.1336 -0.1650 -0.1463
  682PSPI   C2B 9886   7.714   3.075   6.948  0.0485 -0.0559 -0.2592
  682PSPI   C3B 9887   7.477   2.943   7.282  0.0569 -0.4653 -0.0133
  682PSPI   C4B 9888   7.081   2.768   7.378  0.1491 -0.0370 -0.1993
  683PSPI    C1 9889  10.579  17.151   5.544  0.0326 -0.1733 -0.0228
  683PSPI    C2 9890  10.936  17.008   5.655  0.0905 -0.0471 -0.0453
  683PSPI    C3 9891  10.891  17.179   5.296  0.1198  0.3465  0.1336
  683PSPI   PO4 9892  10.462  17.085   5.878  0.2179 -0.0124  0.2861
  683PSPI   GL1 9893  10.212  16.799   6.154  0.1205 -0.0063 -0.3939
  683PSPI   GL2 9894  10.454  16.821   6.304  0.0989 -0.0409 -0.2180
  683PSPI   C1A 9895  10.024  16.674   6.571  0.2258 -0.0610  0.0872
  683PSPI   C2A 9896  10.051  16.733   7.057  0.0261  0.0539 -0.2268
  683PSPI   C3A 9897  10.069  16.791   7.518 -0.0492  0.1451  0.3030
  683PSPI   C4A 9898   9.956  16.864   7.964 -0.2708 -0.1535 -0.2399
  683PSPI   C1B 9899  10.480  17.023   6.629  0.0478 -0.0393  0.1607
  683PSPI   C2B 9900  10.516  17.044   7.006 -0.2181 -0.1376  0.0059
  683PSPI   C3B 9901  10.526  17.159   7.453 -0.1592 -0.0051  0.1448
  683PSPI   C4B 9902  10.199  17.255   7.690 -0.0553 -0.1307 -0.0353
  684PSPI    C1 9903   9.843   2.984   4.928  0.0743 -0.0348 -0.1391
  684PSPI    C2 9904  10.235   2.932   4.988  0.0444 -0.0285  0.0710
  684PSPI    C3 9905   9.994   2.614   4.954  0.0258 -0.0326  0.2328
  684PSPI   PO4 9906   9.810   3.225   5.105 -0.0870 -0.2126  0.0069
  684PSPI   GL1 9907   9.610   3.071   5.525 -0.3717  0.0776  0.0902
  684PSPI   GL2 9908   9.642   3.320   5.749  0.0001  0.0043 -0.0921
  684PSPI   C1A 9909   9.435   2.903   5.906 -0.1923 -0.1617 -0.0416
  684PSPI   C2A 9910   9.287   3.163   6.206  0.1987  0.0127 -0.0747
  684PSPI   C3A 9911   9.119   3.284   6.637 -0.2394  0.0642  0.1268
  684PSPI   C4A 9912   8.758   3.317   6.870 -0.2505 -0.0947 -0.1564
  684PSPI   C1B 9913   9.624   3.479   6.196  0.4237  0.1879  0.0261
  684PSPI   C2B 9914   9.235   3.742   6.366  0.3608  0.0306 -0.1105
  684PSPI   C3B 9915   8.811   3.772   6.537  0.2090 -0.0467  0.0293
  684PSPI   C4B 9916   8.417   3.616   6.690 -0.0987  0.1727  0.0260
  685PSPI    C1 9917   3.174   3.402   5.579  0.2053 -0.2304 -0.0920
  685PSPI    C2 9918   2.888   3.397   5.299  0.0206  0.1367  0.0819
  685PSPI    C3 9919   3.126   3.716   5.337  0.1840  0.0023  0.2076
  685PSPI   PO4 9920   3.032   3.295   5.752 -0.0222  0.0152  0.2260
  685PSPI   GL1 9921   2.766   3.281   6.101 -0.2499  0.3904  0.2251
  685PSPI   GL2 9922   2.456   3.038   6.085 -0.2023 -0.1073 -0.4714
  685PSPI   C1A 9923   2.827   3.345   6.451 -0.0963 -0.0286  0.1963
  685PSPI   C2A 9924   3.078   3.606   6.840 -0.1154  0.0743 -0.0176
  685PSPI   C3A 9925   3.465   3.810   6.950 -0.0703  0.0346  0.0185
  685PSPI   C4A 9926   3.657   4.170   6.958 -0.0210  0.3466  0.0068
  685PSPI   C1B 9927   2.518   2.957   6.475 -0.0902 -0.0395  0.1958
  685PSPI   C2B 9928   2.477   2.802   6.967 -0.4074 -0.1156  0.3181
  685PSPI   C3B 9929   2.512   2.567   7.245  0.2251 -0.1220 -0.2247
  685PSPI   C4B 9930   2.398   2.377   7.637  0.2057 -0.4220  0.0641
  686PSPI    C1 9931   4.967  16.943   5.551 -0.1282  0.0168  0.1047
  686PSPI    C2 9932   5.105  17.303   5.443 -0.3543  0.0748  0.0038
  686PSPI    C3 9933   5.343  17.048   5.638 -0.1245  0.1950 -0.1162
  686PSPI   PO4 9934   4.719  17.000   5.574  0.0098  0.0082  0.0386
  686PSPI   GL1 9935   4.386  16.754   5.860  0.2302 -0.0548  0.0304
  686PSPI   GL2 9936   4.128  16.560   6.027  0.2863 -0.1907 -0.2775
  686PSPI   C1A 9937   4.374  16.857   6.284 -0.0122 -0.0058 -0.0625
  686PSPI   C2A 9938   4.556  16.744   6.703 -0.2615  0.0712  0.2444
  686PSPI   C3A 9939   4.807  16.476   6.669 -0.0811 -0.0578  0.1587
  686PSPI   C4A 9940   5.134  16.191   6.640 -0.1017 -0.0393 -0.3727
  686PSPI   C1B 9941   4.203  16.415   6.490 -0.2249 -0.1587  0.1770
  686PSPI   C2B 9942   4.382  16.310   6.915 -0.0051  0.1199  0.1058
  686PSPI   C3B 9943   4.687  16.250   7.289  0.2727 -0.0331  0.0044
  686PSPI   C4B 9944   4.920  16.411   7.559  0.0082  0.0534 -0.1106
  687PSPI    C1 9945  14.914   2.337   5.657  0.0243 -0.1543  0.1142
  687PSPI    C2 9946  14.868   2.550   5.321 -0.0239 -0.0985  0.1559
  687PSPI    C3 9947  15.160   2.277   5.347  0.2013  0.1417  0.1930
  687PSPI   PO4 9948  14.947   2.513   5.865  0.0844 -0.0270 -0.1678
  687PSPI   GL1 9949  14.859   2.420   6.305 -0.0697 -0.3280 -0.1509
  687PSPI   GL2 9950  15.014   2.318   6.313 -0.2534 -0.0114 -0.0324
  687PSPI   C1A 9951  14.933   2.675   6.588 -0.3203 -0.3085  0.1310
  687PSPI   C2A 9952  14.941   2.982   6.925  0.1439  0.3522  0.0751
  687PSPI   C3A 9953  14.848   3.152   7.320  0.1546 -0.0145  0.0302
  687PSPI   C4A 9954  15.157   3.163   7.591  0.2291  0.0428  0.2000
  687PSPI   C1B 9955  15.176   2.240   6.700  0.0875  0.0797  0.0528
  687PSPI   C2B 9956  15.143   2.530   7.019 -0.3382  0.2551 -0.0049
  687PSPI   C3B 9957  15.298   2.775   7.260  0.3012  0.0604  0.2112
  687PSPI   C4B 9958  15.719   2.915   7.405  0.1416 -0.0510 -0.0710
  688PSPI    C1 9959  15.057   6.924   5.520  0.2287 -0.0635  0.0936
  688PSPI    C2 9960  15.142   6.941   5.129 -0.1292 -0.1386  0.0085
  688PSPI    C3 9961  15.170   6.593   5.325 -0.1414 -0.1421  0.0039
  688PSPI   PO4 9962  15.138   7.095   5.770 -0.0045  0.0237 -0.3442
  688PSPI   GL1 9963  15.464   7.471   5.960  0.2535  0.3591 -0.0923
  688PSPI   GL2 9964  15.207   7.370   6.169 -0.0385  0.1745 -0.1133
  688PSPI   C1A 9965  15.772   7.688   6.162 -0.1581  0.1102  0.0616
  688PSPI   C2A 9966  16.086   7.740   6.387  0.2996 -0.0686  0.1554
  688PSPI   C3A 9967  16.498   7.731   6.573 -0.2417 -0.0672 -0.1578
  688PSPI   C4A 9968  16.546   7.628   6.978  0.1698 -0.1350 -0.2352
  688PSPI   C1B 9969  15.394   7.505   6.493 -0.2834  0.0198  0.1422
  688PSPI   C2B 9970  15.632   7.885   6.584  0.1188  0.3993  0.2525
  688PSPI   C3B 9971  15.717   8.134   6.894 -0.0668 -0.1534 -0.0316
  688PSPI   C4B 9972  15.915   8.027   7.270  0.1341  0.2233 -0.1772
  689PSPI    C1 9973  12.582   6.280   5.570 -0.1583  0.0680  0.0534
  689PSPI    C2 9974  12.540   6.348   5.178  0.0221  0.2905  0.0710
  689PSPI    C3 9975  12.224   6.381   5.421 -0.1306 -0.0254 -0.0787
  689PSPI   PO4 9976  12.697   6.476   5.826 -0.0214 -0.3372 -0.0255
  689PSPI   GL1 9977  12.572   6.564   6.217 -0.4218  0.1812  0.0194
  689PSPI   GL2 9978  12.238   6.585   6.351  0.1711  0.0559 -0.1156
  689PSPI   C1A 9979  12.493   6.258   6.627 -0.0921  0.0760 -0.0090
  689PSPI   C2A 9980  12.307   6.060   6.926 -0.3622  0.2039 -0.2074
  689PSPI   C3A 9981  12.126   5.919   7.323  0.0531  0.2205  0.0051
  689PSPI   C4A 9982  11.927   5.657   7.552 -0.3009 -0.1520  0.1144
  689PSPI   C1B 9983  12.166   6.555   6.875 -0.2004 -0.1544 -0.0975
  689PSPI   C2B 9984  12.256   6.427   7.291 -0.0497 -0.2067 -0.1985
  689PSPI   C3B 9985  12.413   6.415   7.703  0.0534 -0.0588  0.0500
  689PSPI   C4B 9986  12.727   6.302   7.873 -0.2793 -0.0792  0.3300
  690PSPI    C1 9987  15.666  14.021   5.506  0.0764 -0.1382  0.1573
  690PSPI    C2 9988  15.404  13.955   5.211 -0.0694  0.0836  0.2349
  690PSPI    C3 9989  15.790  13.866   5.158 -0.0666  0.2696 -0.0827
  690PSPI   PO4 9990  15.599  14.256   5.605  0.2871 -0.1469 -0.0305
  690PSPI   GL1 9991  15.589  14.339   6.013 -0.0604 -0.1411  0.1364
  690PSPI   GL2 9992  15.376  14.144   6.291 -0.2680 -0.3455  0.4711
  690PSPI   C1A 9993  15.820  14.678   6.261  0.1325  0.0329  0.0313
  690PSPI   C2A 9994  15.816  14.909   6.593  0.2543 -0.2410  0.1513
  690PSPI   C3A 9995  15.515  15.103   6.929 -0.0963 -0.0709 -0.2326
  690PSPI   C4A 9996  15.567  15.215   7.284 -0.2804 -0.2098 -0.0547
  690PSPI   C1B 9997  15.601  14.217   6.477  0.0814 -0.0643  0.0187
  690PSPI   C2B 9998  15.723  14.078   6.861 -0.2592 -0.4389  0.3125
  690PSPI   C3B 9999  15.873  13.852   7.184 -0.3618 -0.3491  0.0247
  690PSPI   C4B10000  15.710  13.682   7.578  0.1213  0.0870 -0.1626
  691PSPI    C110001   7.790  15.320   5.292  0.3328 -0.0579  0.0696
  691PSPI    C210002   7.649  14.951   5.231 -0.0366  0.0829  0.0390
  691PSPI    C310003   7.934  15.099   4.992 -0.0468 -0.0994 -0.0885
  691PSPI   PO410004   7.714  15.423   5.613  0.0313  0.0667  0.2932
  691PSPI   GL110005   7.703  15.632   6.028 -0.2327  0.2374  0.0829
  691PSPI   GL210006   7.780  15.929   6.138  0.0550  0.1523  0.3018
  691PSPI   C1A10007   7.736  15.197   6.285 -0.0116  0.1915 -0.3339
  691PSPI   C2A10008   7.719  14.738   6.391 -0.1319 -0.0129  0.0891
  691PSPI   C3A10009   7.706  14.281   6.495  0.0866 -0.2491  0.0669
  691PSPI   C4A10010   7.632  13.951   6.500 -0.2032 -0.1836  0.0467
  691PSPI   C1B10011   7.777  15.673   6.545  0.2088  0.0049  0.1115
  691PSPI   C2B10012   7.741  15.462   6.830 -0.1565  0.0489  0.3372
  691PSPI   C3B10013   7.586  15.382   7.198  0.3543 -0.3662  0.1348
  691PSPI   C4B10014   7.302  15.135   7.335 -0.2540 -0.1205  0.0056
  692PSPI    C110015  16.452  13.778   5.615 -0.0888 -0.0583 -0.0408
  692PSPI    C210016  16.260  13.932   5.300 -0.0097 -0.2166 -0.1677
  692PSPI    C310017  16.061  13.708   5.565 -0.1134  0.0565 -0.0111
  692PSPI   PO410018  16.541  13.971   5.764  0.1389  0.2180  0.1444
  692PSPI   GL110019  16.610  13.944   6.228 -0.0080 -0.0877  0.1361
  692PSPI   GL210020  16.962  14.055   6.077  0.0039  0.1426 -0.3079
  692PSPI   C1A10021  16.649  14.131   6.642  0.2111 -0.0699 -0.0710
  692PSPI   C2A10022  16.573  14.428   6.911 -0.1094 -0.3757  0.1338
  692PSPI   C3A10023  16.598  14.499   7.368 -0.0362  0.0152  0.2017
  692PSPI   C4A10024  16.846  14.784   7.750 -0.1362 -0.0100 -0.0675
  692PSPI   C1B10025  17.300  13.739   6.174  0.1873 -0.3496 -0.1505
  692PSPI   C2B10026  17.474  13.427   6.448  0.1115 -0.1950 -0.0167
  692PSPI   C3B10027  17.717  13.165   6.528 -0.1177  0.1659 -0.1772
  692PSPI   C4B10028  17.853  13.015   6.835 -0.0598 -0.0349  0.0380
  693PSPI    C110029  18.180   5.770   6.164  0.2423  0.0131 -0.1030
  693PSPI    C210030  18.465   5.729   5.886  0.0699 -0.1457 -0.2589
  693PSPI    C310031  18.084   5.644   5.797  0.0043 -0.1436  0.0105
  693PSPI   PO410032  18.261   5.627   6.416  0.1357 -0.0551 -0.0861
  693PSPI   GL110033  18.145   5.638   6.759 -0.0639  0.0090 -0.2319
  693PSPI   GL210034  17.826   5.737   6.612 -0.0615 -0.0780  0.1946
  693PSPI   C1A10035  18.184   5.868   7.127 -0.2711  0.1315 -0.0735
  693PSPI   C2A10036  18.330   6.024   7.466 -0.0476 -0.0222 -0.1990
  693PSPI   C3A10037  18.250   6.045   7.876  0.1281  0.1000  0.2209
  693PSPI   C4A10038  18.072   6.094   8.322 -0.1853 -0.3483  0.0677
  693PSPI   C1B10039  17.755   5.540   7.095 -0.0613  0.0306  0.1936
  693PSPI   C2B10040  17.509   5.167   7.240  0.2559  0.2124  0.1103
  693PSPI   C3B10041  17.616   4.810   7.507 -0.0895 -0.1271 -0.0854
  693PSPI   C4B10042  18.036   4.593   7.508  0.0643 -0.1331  0.0082
  694PSPI    C110043   4.131   6.660   5.252 -0.0620  0.0100  0.0844
  694PSPI    C210044   3.767   6.542   5.135 -0.0933  0.0871  0.1036
  694PSPI    C310045   3.943   6.855   4.958  0.0045 -0.0099  0.0285
  694PSPI   PO410046   4.137   6.538   5.518 -0.0841  0.2580  0.0509
  694PSPI   GL110047   4.112   6.498   6.031  0.2711 -0.0865  0.0555
  694PSPI   GL210048   4.370   6.685   5.936 -0.0872 -0.0859 -0.1394
  694PSPI   C1A10049   4.431   6.239   6.241 -0.2245 -0.2727 -0.1774
  694PSPI   C2A10050   4.546   6.278   6.661  0.0879 -0.0350  0.1237
  694PSPI   C3A10051   4.783   6.015   6.903  0.2234  0.1467 -0.0723
  694PSPI   C4A10052   4.835   5.987   7.413 -0.2047 -0.1143 -0.0186
  694PSPI   C1B10053   4.663   6.742   6.262 -0.1985 -0.0135  0.1866
  694PSPI   C2B10054   4.755   6.698   6.602 -0.0244 -0.0083 -0.2137
  694PSPI   C3B10055   4.866   6.562   6.935  0.1722 -0.1742 -0.0081
  694PSPI   C4B10056   5.044   6.478   7.234  0.0349 -0.0137  0.1909
  695POPI    C110057  10.469   2.746   5.431 -0.1388  0.0238  0.0559
  695POPI    C210058  10.769   2.553   5.249 -0.0657  0.0579  0.1394
  695POPI    C310059  10.389   2.459   5.164 -0.0313 -0.0131  0.0628
  695POPI   PO410060  10.545   2.890   5.632  0.1677  0.3112 -0.2264
  695POPI   GL110061  10.519   2.903   6.076 -0.0298  0.1049 -0.0713
  695POPI   GL210062  10.537   3.253   6.131 -0.0993 -0.2174  0.1984
  695POPI   C1A10063  10.323   2.739   6.325 -0.0107  0.1449 -0.0483
  695POPI   D2A10064  10.129   2.810   6.832 -0.1244 -0.3200  0.1453
  695POPI   C3A10065  10.092   3.017   7.235  0.0197  0.0364  0.1651
  695POPI   C4A10066   9.962   3.204   7.621  0.2686 -0.0318  0.1445
  695POPI   C1B10067  10.338   3.215   6.549  0.0008 -0.0150 -0.3233
  695POPI   C2B10068  10.174   3.413   6.952  0.0656 -0.1297  0.0538
  695POPI   C3B10069  10.313   3.458   7.272 -0.0192 -0.0771 -0.2115
  695POPI   C4B10070  10.233   3.578   7.668 -0.1201  0.2788 -0.2256
  696POPI    C110071   9.985   6.554   5.245 -0.0001 -0.0578  0.1800
  696POPI    C210072   9.734   6.754   5.484 -0.0100  0.0050  0.1171
  696POPI    C310073   9.637   6.688   5.101  0.0732  0.0372  0.0904
  696POPI   PO410074  10.154   6.491   5.528 -0.0424  0.2979 -0.2068
  696POPI   GL110075  10.294   6.184   5.800 -0.0868  0.2892  0.2702
  696POPI   GL210076  10.275   5.863   5.761  0.0212 -0.1044 -0.0509
  696POPI   C1A10077  10.377   6.231   6.210 -0.0795 -0.4151  0.0625
  696POPI   D2A10078  10.205   6.064   6.566  0.1037  0.2268  0.2444
  696POPI   C3A10079  10.365   6.069   6.959  0.0393  0.2973 -0.4152
  696POPI   C4A10080  10.409   6.413   7.260  0.0623  0.2757 -0.1691
  696POPI   C1B10081  10.444   5.608   6.036  0.2032  0.1107 -0.1766
  696POPI   C2B10082  10.590   5.809   6.448  0.1030  0.0272 -0.1392
  696POPI   C3B10083  10.690   5.675   6.843 -0.2122  0.2461  0.0451
  696POPI   C4B10084  10.734   5.947   7.236  0.1293  0.0832 -0.1051
  697POPI    C110085   7.481   8.039   5.241 -0.2449 -0.2525  0.0101
  697POPI    C210086   7.707   7.715   5.176  0.2354  0.0396  0.1783
  697POPI    C310087   7.672   7.994   4.892  0.0431 -0.0273  0.1350
  697POPI   PO410088   7.579   8.106   5.503 -0.0877 -0.0809 -0.0200
  697POPI   GL110089   7.375   8.278   5.824 -0.0071 -0.1887 -0.0203
  697POPI   GL210090   7.665   8.433   6.009 -0.0170  0.1389  0.2987
  697POPI   C1A10091   6.931   8.276   6.096 -0.0134  0.1611 -0.0728
  697POPI   D2A10092   6.895   8.683   6.315 -0.0492 -0.0357 -0.0734
  697POPI   C3A10093   6.628   8.572   6.672  0.4037 -0.0189  0.0477
  697POPI   C4A10094   6.717   8.224   6.981 -0.3396 -0.0149 -0.0502
  697POPI   C1B10095   7.406   8.408   6.324  0.1679 -0.0262  0.0767
  697POPI   C2B10096   7.115   8.429   6.740  0.3462  0.2192 -0.1654
  697POPI   C3B10097   6.998   8.673   7.065  0.2125 -0.0481 -0.0454
  697POPI   C4B10098   6.872   8.920   7.438  0.0715  0.1383  0.0477
  698POPI    C110099   0.691   6.747   6.023 -0.0649 -0.1764 -0.2030
  698POPI    C210100   1.016   6.969   6.094 -0.1018 -0.1779 -0.0238
  698POPI    C310101   0.938   6.843   5.723  0.0498 -0.0965 -0.0846
  698POPI   PO410102   0.657   6.636   6.261  0.0553  0.0738 -0.3115
  698POPI   GL110103   0.944   6.747   6.642  0.4053 -0.2103 -0.1797
  698POPI   GL210104   1.102   6.475   6.732  0.1113  0.0687  0.1910
  698POPI   C1A10105   0.958   6.847   7.058  0.1829  0.3234 -0.0111
  698POPI   D2A10106   0.744   6.770   7.377  0.1919 -0.1637  0.0383
  698POPI   C3A10107   0.449   6.611   7.156  0.3378  0.0561  0.0574
  698POPI   C4A10108   0.134   6.678   6.962  0.3006 -0.0392  0.0537
  698POPI   C1B10109   1.341   6.565   7.176  0.0279  0.0477 -0.0793
  698POPI   C2B10110   1.180   6.567   7.536 -0.1667  0.0455  0.0606
  698POPI   C3B10111   1.233   6.308   8.028  0.1735 -0.3050 -0.2332
  698POPI   C4B10112   1.324   5.959   8.177  0.0002 -0.2143  0.0514
  699POPI    C110113   4.135   5.719   5.222 -0.1112  0.1745 -0.2977
  699POPI    C210114   4.168   6.117   5.237  0.0665  0.1545 -0.1143
  699POPI    C310115   4.406   5.905   4.995 -0.0597  0.1622 -0.2465
  699POPI   PO410116   4.169   5.627   5.503  0.1995  0.0698  0.1292
  699POPI   GL110117   4.324   5.583   5.932  0.1696  0.1658  0.1152
  699POPI   GL210118   4.033   5.460   5.971 -0.0399 -0.0047 -0.0300
  699POPI   C1A10119   4.384   5.778   6.265 -0.1768  0.0396  0.1493
  699POPI   D2A10120   4.347   5.857   6.745 -0.7244 -0.1199 -0.0032
  699POPI   C3A10121   4.492   5.616   7.161  0.0122  0.1334 -0.0648
  699POPI   C4A10122   4.503   5.280   7.552  0.0796 -0.0372 -0.0971
  699POPI   C1B10123   3.966   5.442   6.350  0.0778 -0.0860  0.0798
  699POPI   C2B10124   4.032   5.470   6.813  0.0499 -0.3702 -0.1266
  699POPI   C3B10125   3.940   5.418   7.265 -0.1491 -0.1950  0.2810
  699POPI   C4B10126   4.113   5.508   7.696 -0.0818  0.2728  0.0420
  700POPI    C110127  15.431   8.370   5.517 -0.1586  0.1844 -0.2084
  700POPI    C210128  15.726   8.636   5.470 -0.1883  0.2069 -0.2680
  700POPI    C310129  15.483   8.550   5.164 -0.2290  0.1709 -0.2258
  700POPI   PO410130  15.562   8.190   5.720  0.1543  0.0202  0.0430
  700POPI   GL110131  15.690   8.150   6.122  0.0873 -0.0804 -0.4215
  700POPI   GL210132  15.909   8.230   6.331 -0.2403 -0.2201 -0.0081
  700POPI   C1A10133  15.246   7.902   6.184 -0.2584 -0.0752  0.1490
  700POPI   D2A10134  14.881   7.669   6.394  0.2081  0.0007  0.0077
  700POPI   C3A10135  15.023   7.484   6.812  0.0050 -0.0609 -0.0073
  700POPI   C4A10136  15.006   7.185   7.194 -0.0227 -0.0121  0.2051
  700POPI   C1B10137  15.994   8.504   6.698  0.3268 -0.0134  0.1003
  700POPI   C2B10138  16.208   8.491   7.135 -0.0660  0.0475 -0.0657
  700POPI   C3B10139  16.286   8.521   7.529 -0.0882  0.2616  0.1399
  700POPI   C4B10140  16.583   8.716   7.757  0.1184 -0.2019 -0.2456
  701POPI    C110141   9.942   0.079   4.933  0.0813 -0.0502 -0.0632
  701POPI    C210142   9.977   0.446   4.777 -0.1185 -0.0013  0.0043
  701POPI    C310143   9.984   0.125   4.538 -0.0859  0.0543 -0.0697
  701POPI   PO410144   9.955   0.173   5.283 -0.1137 -0.0002  0.1974
  701POPI   GL110145   9.770   0.336   5.603  0.3613  0.0388 -0.1442
  701POPI   GL210146   9.355   0.307   5.699 -0.0555  0.0169  0.0914
  701POPI   C1A10147   9.969   0.329   5.974  0.3132  0.1952 -0.2672
  701POPI   D2A10148   9.797   0.250   6.389  0.0952  0.1343  0.0438
  701POPI   C3A10149   9.609   0.443   6.740 -0.1105  0.1167  0.2475
  701POPI   C4A10150   9.471   0.412   7.067 -0.1379  0.2720 -0.0977
  701POPI   C1B10151   9.531   0.529   6.119 -0.2114 -0.2983 -0.0756
  701POPI   C2B10152   9.158   0.550   6.391  0.1025  0.0172 -0.2441
  701POPI   C3B10153   8.984   0.555   6.806  0.1100  0.0932  0.0664
  701POPI   C4B10154   9.093   0.767   7.118 -0.0246 -0.1933  0.2050
  702POPI    C110155   3.307  15.971   5.339 -0.0539  0.1548 -0.1284
  702POPI    C210156   3.623  15.930   5.581 -0.2708  0.2853  0.1842
  702POPI    C310157   3.675  15.942   5.184  0.0718 -0.1245  0.2092
  702POPI   PO410158   3.205  16.177   5.584  0.0713 -0.0456  0.1844
  702POPI   GL110159   3.161  16.398   6.026 -0.2488  0.1440 -0.0169
  702POPI   GL210160   2.942  16.603   6.145  0.0073 -0.0251 -0.1455
  702POPI   C1A10161   3.367  16.408   6.401  0.0874  0.3051 -0.0691
  702POPI   D2A10162   3.449  16.498   6.867 -0.0776 -0.1850  0.1337
  702POPI   C3A10163   3.944  16.475   7.013 -0.0206  0.4551 -0.3483
  702POPI   C4A10164   4.419  16.700   7.238  0.2495 -0.3104 -0.2830
  702POPI   C1B10165   2.889  16.577   6.580 -0.0902  0.1478  0.1526
  702POPI   C2B10166   3.052  16.726   6.989  0.1843 -0.0883  0.1234
  702POPI   C3B10167   3.183  16.841   7.272  0.0959  0.0979  0.0057
  702POPI   C4B10168   3.184  16.773   7.700  0.0907  0.0559  0.1020
  703POPI    C110169  13.721  13.448   5.581 -0.1825  0.1276 -0.1758
  703POPI    C210170  13.889  13.811   5.574  0.0622  0.0202  0.0178
  703POPI    C310171  13.881  13.589   5.242  0.1234  0.1076 -0.0427
  703POPI   PO410172  13.796  13.334   5.846  0.0059 -0.0355  0.0104
  703POPI   GL110173  13.757  13.170   6.248  0.2439  0.1475  0.2002
  703POPI   GL210174  13.475  13.041   6.173 -0.0016 -0.1718 -0.3194
  703POPI   C1A10175  13.810  13.117   6.751  0.3563 -0.1083  0.1533
  703POPI   D2A10176  13.762  13.197   7.129  0.1960  0.0817  0.1514
  703POPI   C3A10177  13.588  13.373   7.414 -0.0202 -0.2161  0.1370
  703POPI   C4A10178  13.490  13.623   7.718 -0.0194  0.2280  0.1391
  703POPI   C1B10179  13.332  13.072   6.508 -0.2664  0.4918 -0.0548
  703POPI   C2B10180  13.319  13.219   6.914 -0.2535 -0.0900 -0.0530
  703POPI   C3B10181  13.128  13.223   7.280 -0.1318 -0.1238  0.3227
  703POPI   C4B10182  12.715  13.279   7.392  0.2503 -0.1169  0.0743
  704POPI    C110183   6.082  17.886   5.372  0.0918 -0.0403  0.1372
  704POPI    C210184   6.440  18.062   5.397  0.1037 -0.0001 -0.2579
  704POPI    C310185   6.130  18.262   5.244 -0.1310  0.0196  0.2248
  704POPI   PO410186   6.186  17.640   5.509 -0.1429 -0.0454 -0.0863
  704POPI   GL110187   6.122  17.473   5.840 -0.2658  0.0468  0.0495
  704POPI   GL210188   6.088  17.763   6.119  0.0078  0.1115  0.1438
  704POPI   C1A10189   5.765  17.240   6.051 -0.1120 -0.0836  0.0474
  704POPI   D2A10190   5.543  17.081   6.469  0.1225  0.4379  0.1191
  704POPI   C3A10191   5.643  17.031   6.891  0.3857 -0.3183  0.0860
  704POPI   C4A10192   5.330  17.102   7.239 -0.1480  0.0187  0.2686
  704POPI   C1B10193   5.727  17.657   6.489  0.2327  0.0841 -0.2151
  704POPI   C2B10194   5.542  17.562   6.902  0.0098  0.0949  0.0062
  704POPI   C3B10195   5.709  17.364   7.347  0.0226 -0.0623  0.1634
  704POPI   C4B10196   5.677  16.964   7.585 -0.2943 -0.1406 -0.2157
  705POPI    C110197   1.103   3.482   5.717  0.0400  0.1209  0.0506
  705POPI    C210198   1.164   3.847   5.563 -0.0207  0.1578  0.1135
  705POPI    C310199   0.794   3.698   5.584  0.0240  0.0130 -0.0895
  705POPI   PO410200   1.293   3.502   5.957  0.1025  0.1396 -0.2019
  705POPI   GL110201   1.240   3.544   6.402  0.1655 -0.1114 -0.1585
  705POPI   GL210202   1.176   3.906   6.585  0.3203  0.1187  0.2681
  705POPI   C1A10203   0.770   3.629   6.677  0.2234  0.0585  0.4550
  705POPI   D2A10204   0.497   3.317   6.887  0.1596 -0.2883 -0.1172
  705POPI   C3A10205   0.419   2.946   6.686 -0.2672  0.5129  0.0319
  705POPI   C4A10206   0.737   2.599   6.430 -0.2082  0.0825  0.0275
  705POPI   C1B10207   1.261   3.629   6.853  0.0928 -0.1457 -0.1611
  705POPI   C2B10208   1.282   3.739   7.313 -0.0636  0.1649 -0.0386
  705POPI   C3B10209   1.002   3.627   7.723 -0.1926 -0.1181  0.1580
  705POPI   C4B10210   0.752   3.544   8.162 -0.1044  0.1392  0.0047
  706POPI    C110211   7.134   7.375   5.435 -0.1326 -0.0730  0.1429
  706POPI    C210212   7.430   7.306   5.174 -0.1115 -0.0070  0.1493
  706POPI    C310213   7.179   7.612   5.116 -0.1409 -0.0258  0.1768
  706POPI   PO410214   7.288   7.082   5.606 -0.1988 -0.2578  0.1763
  706POPI   GL110215   7.197   7.050   6.069  0.0959 -0.0450  0.3839
  706POPI   GL210216   7.299   7.350   6.102  0.0353 -0.0320 -0.0097
  706POPI   C1A10217   7.190   6.739   6.391 -0.1326  0.1317 -0.0126
  706POPI   D2A10218   7.317   6.535   6.779  0.0000  0.1892  0.0011
  706POPI   C3A10219   7.036   6.334   7.015  0.2724 -0.1313 -0.0994
  706POPI   C4A10220   6.698   5.917   7.148  0.1804  0.0201 -0.0096
  706POPI   C1B10221   7.318   7.236   6.539 -0.0047  0.1488 -0.1564
  706POPI   C2B10222   7.173   6.999   6.855  0.0047 -0.1891  0.0042
  706POPI   C3B10223   7.206   7.058   7.311  0.0579 -0.0153  0.1376
  706POPI   C4B10224   7.097   7.074   7.698  0.1390 -0.0976  0.2442
  707POPI    C110225   3.679  11.238   5.396  0.1222  0.0109 -0.3531
  707POPI    C210226   3.347  11.042   5.288 -0.0373 -0.0735  0.2522
  707POPI    C310227   3.340  11.439   5.334 -0.0027 -0.0530  0.0856
  707POPI   PO410228   3.795  11.127   5.516 -0.1597  0.0258 -0.1310
  707POPI   GL110229   3.868  10.942   5.896 -0.0107 -0.0686 -0.0623
  707POPI   GL210230   4.111  10.690   5.999  0.0972  0.1797 -0.0056
  707POPI   C1A10231   3.994  11.165   6.260  0.2587 -0.0358 -0.0443
  707POPI   D2A10232   3.961  11.476   6.527 -0.3205 -0.0203  0.0274
  707POPI   C3A10233   3.851  11.403   6.943  0.0600 -0.2992 -0.3441
  707POPI   C4A10234   3.934  11.688   7.356 -0.0046 -0.0853 -0.0985
  707POPI   C1B10235   3.957  10.552   6.384  0.0594 -0.1192  0.1701
  707POPI   C2B10236   3.847  10.505   6.772  0.1764 -0.2044  0.0042
  707POPI   C3B10237   3.834  10.504   7.188  0.0056  0.3016  0.0888
  707POPI   C4B10238   3.982  10.144   7.511 -0.0564 -0.0601  0.2759
  708POPI    C110239   9.659   4.583   5.075  0.0827 -0.2586 -0.2202
  708POPI    C210240  10.025   4.645   4.925  0.0701  0.0317 -0.1363
  708POPI    C310241   9.732   4.908   4.852 -0.1301 -0.2123 -0.2244
  708POPI   PO410242   9.679   4.507   5.302  0.2800 -0.1739  0.1582
  708POPI   GL110243   9.393   4.659   5.625  0.0706  0.1611  0.0162
  708POPI   GL210244   9.289   4.406   5.858  0.0224 -0.2216  0.0683
  708POPI   C1A10245   9.436   4.807   6.089 -0.1926 -0.2366 -0.0695
  708POPI   D2A10246   9.581   4.582   6.478 -0.3111  0.0559 -0.0761
  708POPI   C3A10247   9.314   4.563   6.862 -0.3311 -0.2913 -0.1611
  708POPI   C4A10248   9.191   4.340   7.200 -0.3488 -0.1318 -0.0217
  708POPI   C1B10249   9.482   4.137   6.235 -0.0709 -0.0709 -0.0313
  708POPI   C2B10250   9.570   4.130   6.637  0.0405 -0.0579  0.0060
  708POPI   C3B10251   9.766   4.119   7.088  0.3640 -0.0549 -0.1017
  708POPI   C4B10252   9.741   4.256   7.433 -0.1348 -0.1257 -0.1113
  709POPI    C110253  12.943  12.776   5.734  0.1566  0.1160 -0.0004
  709POPI    C210254  13.149  12.490   5.545  0.1881  0.1434 -0.0077
  709POPI    C310255  12.954  12.769   5.334 -0.2278 -0.1409 -0.0121
  709POPI   PO410256  13.083  12.841   5.938  0.1264  0.0095  0.2766
  709POPI   GL110257  12.790  13.061   6.296  0.0215  0.1694 -0.0392
  709POPI   GL210258  12.848  13.331   6.139 -0.0607  0.2379  0.1647
  709POPI   C1A10259  12.922  12.981   6.792 -0.3286 -0.1276  0.1013
  709POPI   D2A10260  12.883  12.831   7.168  0.2006 -0.1009  0.0345
  709POPI   C3A10261  12.524  12.479   7.044  0.3552 -0.1134  0.0888
  709POPI   C4A10262  12.246  12.091   7.047  0.1479  0.0245  0.0055
  709POPI   C1B10263  12.840  13.447   6.648  0.1374 -0.1101 -0.0926
  709POPI   C2B10264  13.018  13.651   6.986  0.0279 -0.0287 -0.2167
  709POPI   C3B10265  13.069  13.757   7.526  0.0334  0.0445  0.0643
  709POPI   C4B10266  13.025  13.414   7.824 -0.1232 -0.0464  0.2161
  710POPI    C110267  18.128   4.984   5.798 -0.1982 -0.0507  0.0416
  710POPI    C210268  17.839   5.251   5.727 -0.1526 -0.0250 -0.0472
  710POPI    C310269  17.996   5.041   5.425 -0.0839 -0.0444  0.0018
  710POPI   PO410270  18.026   4.801   5.973 -0.2110  0.2597  0.0261
  710POPI   GL110271  17.866   4.793   6.329 -0.1608 -0.2774 -0.1505
  710POPI   GL210272  17.640   4.533   6.525  0.3064 -0.0787  0.3581
  710POPI   C1A10273  18.120   4.615   6.634 -0.2060  0.1026  0.2717
  710POPI   D2A10274  18.227   4.570   7.045  0.0517 -0.2750  0.1734
  710POPI   C3A10275  18.507   4.787   7.258 -0.1749 -0.1900 -0.1283
  710POPI   C4A10276  18.996   4.716   7.167  0.0714 -0.1183  0.1335
  710POPI   C1B10277  17.414   4.917   6.619 -0.0874 -0.1468 -0.2267
  710POPI   C2B10278  17.158   5.223   6.817  0.0291 -0.0146  0.1341
  710POPI   C3B10279  17.027   5.411   7.147 -0.0603  0.1492  0.0521
  710POPI   C4B10280  17.038   5.366   7.600  0.1280 -0.2056 -0.1390
  711POPI    C110281  13.292   8.673   5.714 -0.2914  0.0339  0.0502
  711POPI    C210282  13.540   8.936   5.544 -0.1181 -0.1724 -0.0204
  711POPI    C310283  13.222   9.065   5.749  0.2143  0.1070  0.3352
  711POPI   PO410284  13.364   8.495   5.694  0.2174 -0.0364 -0.2774
  711POPI   GL110285  13.455   8.327   6.010  0.0305 -0.0841 -0.1670
  711POPI   GL210286  13.701   8.063   6.194 -0.0038 -0.1526 -0.0206
  711POPI   C1A10287  13.328   8.290   6.417 -0.1400 -0.0433  0.1691
  711POPI   D2A10288  13.428   8.305   6.753 -0.2001  0.1394 -0.0982
  711POPI   C3A10289  13.176   8.510   7.093  0.0998  0.5092  0.0978
  711POPI   C4A10290  13.008   8.628   7.496 -0.1882 -0.2042 -0.1193
  711POPI   C1B10291  13.905   7.996   6.599  0.3841  0.0856  0.2567
  711POPI   C2B10292  13.874   8.024   7.006  0.0147  0.2216  0.2190
  711POPI   C3B10293  13.531   8.139   7.319  0.2570 -0.1157 -0.0489
  711POPI   C4B10294  13.100   8.177   7.662  0.0395  0.0266  0.0115
  712POPI    C110295  14.357   8.374   5.356  0.1341 -0.0305  0.1089
  712POPI    C210296  14.366   8.762   5.259 -0.1282 -0.0202  0.1187
  712POPI    C310297  14.180   8.501   5.020 -0.0264 -0.1273  0.1557
  712POPI   PO410298  14.442   8.385   5.650 -0.4581 -0.2553 -0.0075
  712POPI   GL110299  14.501   8.292   6.143 -0.1940  0.1447  0.0483
  712POPI   GL210300  14.213   8.178   6.091 -0.0119 -0.0365 -0.2115
  712POPI   C1A10301  14.815   8.208   6.360  0.0253  0.0196  0.3080
  712POPI   D2A10302  15.113   8.095   6.721 -0.0860 -0.1546 -0.0857
  712POPI   C3A10303  15.250   7.812   7.051 -0.1069  0.0031 -0.0045
  712POPI   C4A10304  15.320   7.655   7.393  0.1696  0.0333  0.3087
  712POPI   C1B10305  14.253   8.326   6.613  0.1402  0.0668 -0.1054
  712POPI   C2B10306  14.233   8.349   7.071  0.1459 -0.0153  0.0396
  712POPI   C3B10307  14.445   8.406   7.371 -0.2941 -0.1297 -0.0226
  712POPI   C4B10308  14.774   8.567   7.739  0.0608  0.0350  0.1920
  713POPI    C110309   9.740  11.412   5.907  0.0701 -0.0985  0.2045
  713POPI    C210310   9.999  11.638   6.113  0.3339  0.0179 -0.2420
  713POPI    C310311   9.746  11.809   5.854  0.1539 -0.1471 -0.1774
  713POPI   PO410312   9.894  11.091   5.937  0.1500 -0.0900 -0.2101
  713POPI   GL110313  10.209  11.004   6.225  0.0485  0.1588 -0.1220
  713POPI   GL210314  10.375  11.326   6.057  0.0162  0.3677 -0.2940
  713POPI   C1A10315  10.509  10.878   6.438 -0.0184 -0.2234 -0.4244
  713POPI   D2A10316  10.783  11.030   6.797 -0.0270 -0.2178 -0.1348
  713POPI   C3A10317  10.932  10.777   7.182 -0.1475 -0.0844 -0.0243
  713POPI   C4A10318  11.104  10.753   7.552 -0.1092 -0.0565  0.1695
  713POPI   C1B10319  10.532  11.498   6.413  0.1910  0.3249  0.1037
  713POPI   C2B10320  10.766  11.639   6.791  0.1381  0.0400 -0.0897
  713POPI   C3B10321  10.814  11.588   7.250  0.0701 -0.2831  0.1787
  713POPI   C4B10322  10.979  11.392   7.667 -0.0926 -0.2605  0.0193
  714POPI    C110323  17.051  12.246   5.425  0.0200  0.0624 -0.2266
  714POPI    C210324  17.124  12.601   5.257 -0.1886  0.1532 -0.1284
  714POPI    C310325  16.791  12.546   5.472  0.1022  0.0600  0.3121
  714POPI   PO410326  17.373  12.092   5.679 -0.0890  0.1708 -0.1739
  714POPI   GL110327  17.298  12.160   6.154 -0.1192  0.1428  0.3362
  714POPI   GL210328  16.939  12.256   6.340 -0.0120  0.1217  0.0655
  714POPI   C1A10329  17.391  12.332   6.512  0.2162 -0.2010  0.0247
  714POPI   D2A10330  17.359  12.286   6.937  0.1196 -0.5656  0.1994
  714POPI   C3A10331  17.443  12.233   7.368 -0.0363 -0.2265 -0.0957
  714POPI   C4A10332  17.468  12.174   7.857 -0.1852 -0.0545  0.2373
  714POPI   C1B10333  16.951  12.127   6.713 -0.0102  0.0669  0.0200
  714POPI   C2B10334  16.800  12.166   7.132 -0.2972  0.1970  0.0704
  714POPI   C3B10335  16.978  12.248   7.491 -0.0507 -0.1767 -0.3693
  714POPI   C4B10336  16.907  12.358   7.853 -0.1570  0.0302 -0.1064
  715POPI    C110337  17.763   6.964   5.967 -0.1860  0.0394  0.0799
  715POPI    C210338  18.115   6.779   5.921 -0.2396 -0.0966  0.2065
  715POPI    C310339  17.829   6.739   5.643 -0.1529  0.0214  0.0991
  715POPI   PO410340  17.772   7.166   6.177 -0.0503 -0.1133 -0.2375
  715POPI   GL110341  17.559   7.315   6.433 -0.0231 -0.1302 -0.0729
  715POPI   GL210342  17.691   7.134   6.700 -0.1574  0.3652  0.1007
  715POPI   C1A10343  17.514   7.552   6.916 -0.1794  0.1670  0.0061
  715POPI   D2A10344  17.535   7.642   7.351 -0.1385 -0.2291 -0.2022
  715POPI   C3A10345  17.667   8.007   7.428  0.2836 -0.3192  0.2602
  715POPI   C4A10346  18.067   8.177   7.390  0.0309  0.3548  0.0502
  715POPI   C1B10347  17.561   7.131   7.169  0.2113 -0.2065  0.0339
  715POPI   C2B10348  17.531   7.164   7.550 -0.1433  0.0567  0.2530
  715POPI   C3B10349  17.688   7.032   7.987  0.0726  0.2282 -0.1729
  715POPI   C4B10350  17.870   6.557   8.186 -0.0083 -0.2058  0.1315
  716POPI    C110351  11.361   3.804   5.527  0.1390 -0.0175  0.1180
  716POPI    C210352  11.521   3.529   5.285  0.2585  0.0323  0.1393
  716POPI    C310353  11.618   3.914   5.241 -0.2725  0.1388 -0.2011
  716POPI   PO410354  11.169   3.648   5.608 -0.2253 -0.1636  0.1058
  716POPI   GL110355  10.909   3.515   6.021 -0.0094  0.0722 -0.0186
  716POPI   GL210356  11.161   3.417   6.104  0.0237 -0.0549 -0.1868
  716POPI   C1A10357  10.843   3.506   6.485  0.1300  0.0527 -0.3058
  716POPI   D2A10358  10.760   3.546   6.925 -0.1195  0.1542 -0.0112
  716POPI   C3A10359  10.676   3.765   7.218 -0.1188  0.2342  0.0426
  716POPI   C4A10360  10.856   4.124   7.281  0.0274 -0.0363 -0.1411
  716POPI   C1B10361  11.373   3.412   6.448  0.1090 -0.1105  0.0404
  716POPI   C2B10362  11.266   3.297   6.833  0.1809 -0.1314 -0.0943
  716POPI   C3B10363  11.144   3.211   7.198 -0.1133 -0.1435 -0.0083
  716POPI   C4B10364  10.844   3.391   7.531  0.2594 -0.3029 -0.1799
  717POPI    C110365   7.034  15.039   5.624 -0.1886 -0.0157  0.0724
  717POPI    C210366   6.817  15.246   5.359 -0.1092 -0.1218 -0.0765
  717POPI    C310367   7.205  15.327   5.406 -0.1779  0.0662  0.1879
  717POPI   PO410368   6.896  14.833   5.645 -0.0878 -0.0384 -0.1322
  717POPI   GL110369   6.946  14.612   6.074 -0.2017 -0.2180  0.0725
  717POPI   GL210370   7.096  14.968   6.103  0.0044 -0.1411  0.0845
  717POPI   C1A10371   7.230  14.515   6.356 -0.0584 -0.0593 -0.3994
  717POPI   D2A10372   7.339  14.534   6.790 -0.2629  0.0975  0.0275
  717POPI   C3A10373   7.749  14.453   6.913  0.0846 -0.0982  0.2565
  717POPI   C4A10374   8.024  14.709   6.803 -0.1440  0.2097 -0.1549
  717POPI   C1B10375   7.270  15.011   6.473 -0.3355  0.3759 -0.0038
  717POPI   C2B10376   7.556  14.980   6.806 -0.0453 -0.0628  0.2825
  717POPI   C3B10377   7.667  14.886   7.163  0.2761  0.3238  0.1849
  717POPI   C4B10378   7.407  14.647   7.349 -0.0954 -0.1175 -0.0433
  718POPI    C110379   1.352  17.839   5.282 -0.0233  0.0552  0.0420
  718POPI    C210380   0.999  17.946   5.128 -0.0515 -0.0364  0.0422
  718POPI    C310381   1.337  18.056   4.946 -0.0796  0.0597  0.0472
  718POPI   PO410382   1.289  17.842   5.561 -0.1206  0.1559  0.0116
  718POPI   GL110383   1.404  17.599   5.911  0.1797  0.0913  0.1076
  718POPI   GL210384   1.150  17.410   5.918  0.2003 -0.2287 -0.3265
  718POPI   C1A10385   1.681  17.869   6.145 -0.0217  0.0600 -0.2784
  718POPI   D2A10386   1.787  18.079   6.546  0.3013  0.0552 -0.4232
  718POPI   C3A10387   1.582  18.310   6.754 -0.1555  0.0584 -0.0782
  718POPI   C4A10388   1.331  18.743   6.824  0.0643  0.0671 -0.0232
  718POPI   C1B10389   1.023  17.204   6.361  0.1166 -0.0413 -0.0817
  718POPI   C2B10390   0.823  17.071   6.770  0.1865 -0.1603 -0.0087
  718POPI   C3B10391   0.862  17.154   7.134 -0.0796  0.0804 -0.2677
  718POPI   C4B10392   0.947  17.161   7.552  0.1506  0.1327 -0.2963
  719POPI    C110393  10.278   8.280   5.746 -0.0466  0.0933  0.3200
  719POPI    C210394  10.388   7.896   5.763 -0.0334  0.0823  0.0404
  719POPI    C310395  10.008   7.992   5.684 -0.0607  0.1271  0.2219
  719POPI   PO410396  10.515   8.365   5.927 -0.2397  0.2158  0.0308
  719POPI   GL110397  10.904   8.215   6.104  0.1073 -0.1503  0.0027
  719POPI   GL210398  10.600   7.985   6.206  0.0311 -0.2616 -0.0332
  719POPI   C1A10399  11.175   8.400   6.512  0.1071  0.3107  0.0900
  719POPI   D2A10400  11.440   8.425   6.902  0.1309 -0.3427 -0.3125
  719POPI   C3A10401  11.429   8.681   7.235  0.1156  0.1538 -0.2740
  719POPI   C4A10402  11.561   9.106   7.309 -0.4280 -0.0409  0.1955
  719POPI   C1B10403  10.111   7.919   6.218 -0.0670  0.0104  0.1045
  719POPI   C2B10404   9.709   7.822   6.462  0.0297 -0.0949  0.0171
  719POPI   C3B10405   9.597   7.653   6.861 -0.2908  0.0082 -0.0200
  719POPI   C4B10406   9.591   7.710   7.270 -0.1661  0.0016  0.0369
  720POPI    C110407   9.430   8.823   5.440 -0.1521 -0.1892 -0.1094
  720POPI    C210408   9.518   9.064   5.133  0.0893 -0.2669 -0.1031
  720POPI    C310409   9.594   8.672   5.108 -0.1046 -0.3104 -0.0315
  720POPI   PO410410   9.516   8.877   5.692  0.0667 -0.0784  0.0409
  720POPI   GL110411   9.813   8.670   5.961 -0.0006 -0.0042  0.0292
  720POPI   GL210412   9.874   8.322   6.117  0.0887  0.0166  0.0737
  720POPI   C1A10413   9.684   8.768   6.333  0.1644  0.2677  0.2360
  720POPI   D2A10414   9.653   9.082   6.436 -0.0911  0.0457  0.3791
  720POPI   C3A10415   9.979   9.271   6.692  0.0208 -0.0875 -0.1697
  720POPI   C4A10416  10.106   9.489   7.029 -0.1855  0.2006 -0.0017
  720POPI   C1B10417  10.084   8.308   6.544  0.0095  0.2403  0.1792
  720POPI   C2B10418  10.345   8.340   6.957  0.1196  0.0751  0.2526
  720POPI   C3B10419  10.593   8.554   7.223 -0.2566  0.0392  0.0522
  720POPI   C4B10420  10.965   8.556   7.396  0.0906 -0.0575  0.3403
  721POPI    C110421  17.475  14.100   5.047  0.0489  0.1379 -0.0216
  721POPI    C210422  17.809  14.113   4.827 -0.0539 -0.0961 -0.1954
  721POPI    C310423  17.456  14.204   4.661 -0.0820  0.1214 -0.0200
  721POPI   PO410424  17.541  13.956   5.390  0.1098 -0.2333  0.0539
  721POPI   GL110425  17.492  14.103   5.798  0.2594 -0.2180  0.0305
  721POPI   GL210426  17.479  14.466   5.862 -0.1125 -0.2108  0.3266
  721POPI   C1A10427  17.691  14.137   6.189 -0.5197  0.1724 -0.0730
  721POPI   D2A10428  17.582  14.132   6.634  0.1694 -0.3821 -0.0541
  721POPI   C3A10429  17.316  13.823   6.696  0.2553 -0.3013 -0.0712
  721POPI   C4A10430  16.948  13.713   6.596  0.0949  0.1101 -0.0552
  721POPI   C1B10431  17.624  14.586   6.287  0.1907 -0.1563 -0.2983
  721POPI   C2B10432  17.476  14.650   6.719  0.1304  0.0360 -0.2219
  721POPI   C3B10433  17.388  14.876   7.102 -0.4202 -0.0746 -0.2001
  721POPI   C4B10434  17.288  14.688   7.539 -0.2678  0.0300 -0.1407
  722POPI    C110435  16.717  15.551   5.873 -0.0985  0.1428  0.0521
  722POPI    C210436  16.837  15.259   5.626 -0.2289 -0.0883  0.2571
  722POPI    C310437  17.056  15.351   5.947 -0.1356  0.1116  0.1384
  722POPI   PO410438  16.619  15.761   5.637 -0.1253  0.0539  0.2816
  722POPI   GL110439  16.268  15.949   5.772 -0.3383  0.1361 -0.1208
  722POPI   GL210440  16.040  16.137   5.758 -0.0059  0.0178 -0.5265
  722POPI   C1A10441  16.438  15.926   6.168  0.2004 -0.1660 -0.0224
  722POPI   D2A10442  16.333  15.803   6.539  0.0095 -0.2788 -0.0780
  722POPI   C3A10443  16.471  15.879   6.890  0.1808 -0.1541 -0.0387
  722POPI   C4A10444  16.486  15.958   7.330 -0.2408  0.0301  0.1545
  722POPI   C1B10445  15.966  15.951   6.230 -0.1062 -0.2335  0.0041
  722POPI   C2B10446  15.861  16.017   6.606  0.1668 -0.2484  0.1533
  722POPI   C3B10447  15.958  16.025   6.995  0.1875 -0.1188 -0.0306
  722POPI   C4B10448  15.984  15.880   7.398 -0.0780 -0.0698  0.1256
  723POPI    C110449   5.102   4.626   5.219  0.0877 -0.1215 -0.0020
  723POPI    C210450   4.801   4.612   4.957 -0.0207  0.2714  0.0948
  723POPI    C310451   5.150   4.774   4.850  0.0869  0.0171  0.0529
  723POPI   PO410452   5.071   4.676   5.473 -0.0180  0.2497  0.1511
  723POPI   GL110453   5.189   4.612   5.771 -0.0130  0.0538  0.3546
  723POPI   GL210454   5.202   4.953   5.970 -0.2293 -0.0253  0.0118
  723POPI   C1A10455   5.129   4.422   6.096 -0.0587 -0.0437  0.0727
  723POPI   D2A10456   5.047   4.569   6.564  0.2936 -0.0007 -0.0922
  723POPI   C3A10457   4.862   4.441   6.917 -0.0656  0.1523  0.0315
  723POPI   C4A10458   4.593   4.335   7.180  0.2391  0.1516 -0.0874
  723POPI   C1B10459   5.562   5.159   5.988 -0.0035 -0.0773  0.4502
  723POPI   C2B10460   5.975   5.238   6.226 -0.3530 -0.1508 -0.1306
  723POPI   C3B10461   6.368   5.432   6.300  0.0070 -0.0101  0.0775
  723POPI   C4B10462   6.832   5.511   6.464 -0.0197 -0.1570  0.4254
  724POPI    C110463  17.353  14.806   5.561 -0.0891  0.0559  0.1499
  724POPI    C210464  17.226  14.967   5.218 -0.1061  0.1107  0.1818
  724POPI    C310465  17.614  14.981   5.314 -0.0910  0.0341  0.1327
  724POPI   PO410466  17.225  14.897   5.793 -0.0601  0.0407 -0.1214
  724POPI   GL110467  17.075  14.609   6.168 -0.1023  0.0786  0.0656
  724POPI   GL210468  17.081  14.988   6.256 -0.3147  0.1657 -0.0864
  724POPI   C1A10469  17.189  14.331   6.514  0.1986  0.2798 -0.1064
  724POPI   D2A10470  17.173  14.214   6.913 -0.1002  0.0916 -0.0369
  724POPI   C3A10471  17.112  14.380   7.247 -0.0202 -0.1609 -0.3152
  724POPI   C4A10472  16.964  14.262   7.650 -0.0019 -0.2069 -0.0091
  724POPI   C1B10473  16.778  15.134   6.540  0.1686  0.1089  0.0158
  724POPI   C2B10474  16.601  15.405   6.776  0.0305 -0.0543 -0.0476
  724POPI   C3B10475  16.707  15.499   7.226  0.1735 -0.2226 -0.0931
  724POPI   C4B10476  16.751  15.499   7.674  0.1425 -0.1727  0.0089
  725POPI    C110477  16.693   1.899   5.497  0.1856 -0.1323  0.1065
  725POPI    C210478  17.032   1.739   5.360  0.2674  0.2805 -0.1935
  725POPI    C310479  16.733   1.820   5.107  0.1040  0.3020  0.0045
  725POPI   PO410480  16.687   1.833   5.766 -0.2479 -0.4242 -0.0016
  725POPI   GL110481  16.922   1.736   6.015 -0.2716  0.1412  0.0706
  725POPI   GL210482  17.175   1.839   5.922  0.0239  0.0718  0.0961
  725POPI   C1A10483  17.247   1.621   6.408 -0.0507  0.2313 -0.0943
  725POPI   D2A10484  17.302   1.487   6.778  0.0807  0.0500 -0.1464
  725POPI   C3A10485  17.695   1.567   6.927  0.2314 -0.0137 -0.1904
  725POPI   C4A10486  17.722   1.703   7.358  0.3179 -0.1546 -0.0364
  725POPI   C1B10487  17.568   1.994   6.103  0.0183 -0.0546  0.0289
  725POPI   C2B10488  17.688   2.347   6.249 -0.2503  0.2641  0.0791
  725POPI   C3B10489  17.755   2.452   6.667 -0.2596  0.0421  0.1829
  725POPI   C4B10490  17.796   2.505   7.179 -0.1895 -0.2966 -0.0194
  726POPI    C110491   1.377  12.879   5.628  0.2688  0.0453 -0.2498
  726POPI    C210492   0.978  12.869   5.607  0.2366  0.0700  0.2322
  726POPI    C310493   1.198  12.687   5.327 -0.1032  0.3029 -0.1999
  726POPI   PO410494   1.402  12.726   5.912  0.3166 -0.1206 -0.2717
  726POPI   GL110495   1.467  12.947   6.310 -0.1317  0.1020 -0.0794
  726POPI   GL210496   1.123  13.039   6.423 -0.0140 -0.0648  0.3977
  726POPI   C1A10497   1.619  13.171   6.675 -0.1632 -0.0177 -0.0234
  726POPI   D2A10498   1.602  12.986   7.085 -0.2153 -0.1548 -0.0277
  726POPI   C3A10499   1.552  13.193   7.414 -0.0206  0.0812  0.1659
  726POPI   C4A10500   1.372  13.512   7.726 -0.0197 -0.1945 -0.0161
  726POPI   C1B10501   1.169  12.849   6.724  0.0614  0.2670  0.1227
  726POPI   C2B10502   1.128  12.917   7.163  0.5200 -0.0785 -0.1196
  726POPI   C3B10503   1.140  13.058   7.596 -0.1824  0.0949 -0.1050
  726POPI   C4B10504   1.064  13.199   8.027  0.1593 -0.3003  0.1512
  727POPI    C110505   0.746   3.108   5.324  0.0008 -0.0989 -0.3172
  727POPI    C210506   0.553   3.228   5.653  0.2361  0.0433 -0.2280
  727POPI    C310507   0.347   3.130   5.324  0.0049  0.0065 -0.0750
  727POPI   PO410508   1.017   2.956   5.413 -0.0290  0.0776  0.1012
  727POPI   GL110509   1.251   2.779   5.824 -0.1300 -0.1070 -0.3146
  727POPI   GL210510   1.441   3.052   6.074 -0.3552 -0.2415 -0.1620
  727POPI   C1A10511   1.173   2.617   6.194 -0.1120  0.0053 -0.0777
  727POPI   D2A10512   1.162   2.588   6.675  0.0870  0.0484  0.1678
  727POPI   C3A10513   0.754   2.609   6.967 -0.0058  0.0317  0.3270
  727POPI   C4A10514   0.668   2.905   7.222  0.1730 -0.1658 -0.1591
  727POPI   C1B10515   1.558   2.842   6.430  0.3042  0.2608 -0.1324
  727POPI   C2B10516   1.647   2.783   6.819 -0.0038 -0.2464  0.0190
  727POPI   C3B10517   1.776   2.779   7.270  0.0229  0.1038 -0.0132
  727POPI   C4B10518   2.174   2.794   7.448 -0.0700 -0.0652  0.0842
  728POPI    C110519   5.209   2.627   5.327  0.0614 -0.0148  0.1032
  728POPI    C210520   5.120   2.401   5.009  0.1656 -0.0810  0.1207
  728POPI    C310521   5.339   2.732   4.964 -0.1985  0.1577  0.0565
  728POPI   PO410522   5.307   2.366   5.605  0.1761  0.0677 -0.1086
  728POPI   GL110523   5.486   2.438   5.973  0.1029 -0.1980 -0.0416
  728POPI   GL210524   5.375   2.639   6.208 -0.2080 -0.1446  0.0783
  728POPI   C1A10525   5.605   2.055   6.103  0.0609 -0.0654  0.3946
  728POPI   D2A10526   5.796   1.808   6.453 -0.3198  0.0124 -0.1589
  728POPI   C3A10527   5.696   1.919   6.897 -0.0581 -0.3277  0.0557
  728POPI   C4A10528   5.581   2.085   7.263 -0.1835  0.2357  0.1190
  728POPI   C1B10529   5.220   2.640   6.599 -0.0508 -0.0235 -0.0085
  728POPI   C2B10530   5.198   2.321   6.933 -0.1330  0.0179 -0.0637
  728POPI   C3B10531   5.064   2.161   7.343 -0.3105 -0.1065  0.0431
  728POPI   C4B10532   5.178   2.097   7.780  0.1767 -0.0135  0.0646
  729POPI    C110533   9.341   6.341   5.400  0.1341 -0.0710  0.0348
  729POPI    C210534   9.126   6.046   5.237  0.2907 -0.2463  0.1406
  729POPI    C310535   9.327   6.300   5.003 -0.2556  0.0985  0.0266
  729POPI   PO410536   9.297   6.429   5.643  0.1481 -0.0209 -0.0241
  729POPI   GL110537   9.508   6.607   5.900  0.0158 -0.1755  0.0035
  729POPI   GL210538   9.450   6.408   6.168  0.3382 -0.2436  0.1265
  729POPI   C1A10539   9.465   6.912   6.332  0.1858 -0.1712 -0.0309
  729POPI   D2A10540   9.583   7.314   6.509 -0.1137  0.0872 -0.2757
  729POPI   C3A10541  10.026   7.438   6.677  0.1194 -0.0455 -0.1388
  729POPI   C4A10542  10.371   7.878   6.723 -0.1441  0.1348 -0.1084
  729POPI   C1B10543   9.537   6.434   6.624 -0.0599  0.0013 -0.1941
  729POPI   C2B10544   9.587   6.861   6.841  0.0431  0.0812 -0.1310
  729POPI   C3B10545   9.877   7.199   7.090  0.2265 -0.0767  0.1260
  729POPI   C4B10546  10.051   7.604   7.291  0.0846  0.0783  0.0606
  730POPI    C110547   2.880   6.657   5.501  0.2671 -0.0649 -0.0364
  730POPI    C210548   2.574   6.554   5.266 -0.0619 -0.0550  0.3764
  730POPI    C310549   2.642   6.940   5.349  0.4516 -0.0022 -0.2141
  730POPI   PO410550   2.832   6.484   5.707 -0.2851 -0.1505 -0.0925
  730POPI   GL110551   2.683   6.644   6.138 -0.2015  0.1262 -0.3059
  730POPI   GL210552   2.603   6.328   6.161  0.0059  0.0139  0.0142
  730POPI   C1A10553   3.020   6.554   6.516 -0.2726  0.3361  0.1927
  730POPI   D2A10554   3.342   6.504   6.561 -0.1164  0.0839  0.0709
  730POPI   C3A10555   3.568   6.103   6.572 -0.1411  0.0231  0.0955
  730POPI   C4A10556   3.896   5.964   6.337 -0.1427 -0.2837 -0.1191
  730POPI   C1B10557   2.519   6.465   6.586 -0.0671 -0.0042 -0.0316
  730POPI   C2B10558   2.622   6.404   7.030  0.1318  0.0095  0.0921
  730POPI   C3B10559   2.479   6.287   7.363  0.0584  0.1889 -0.1906
  730POPI   C4B10560   2.171   6.225   7.767 -0.0801 -0.2040 -0.0007
  731POPI    C110561   7.632  12.153   5.540  0.0314  0.1432  0.1600
  731POPI    C210562   7.415  12.488   5.537 -0.0065  0.1182 -0.0338
  731POPI    C310563   7.494  12.298   5.194  0.2278  0.0660  0.0474
  731POPI   PO410564   7.573  12.099   5.877 -0.1459 -0.0606  0.2332
  731POPI   GL110565   7.667  12.168   6.263 -0.2439  0.0826 -0.2283
  731POPI   GL210566   7.414  11.982   6.313  0.1459 -0.3432 -0.0175
  731POPI   C1A10567   7.832  12.299   6.674  0.1241 -0.1123  0.1207
  731POPI   D2A10568   7.874  12.448   7.149 -0.0507 -0.0039 -0.0578
  731POPI   C3A10569   7.698  12.800   7.444 -0.3206 -0.0581  0.2510
  731POPI   C4A10570   7.618  13.171   7.650 -0.1259 -0.0730  0.0343
  731POPI   C1B10571   7.319  12.282   6.582 -0.0389 -0.1195  0.0228
  731POPI   C2B10572   7.420  12.368   7.039  0.1890  0.0898 -0.1441
  731POPI   C3B10573   7.291  12.432   7.470 -0.3905 -0.2167  0.2575
  731POPI   C4B10574   7.464  12.692   7.799  0.1542  0.1576 -0.0355
  732POPI    C110575  13.734  11.983   5.656  0.1807 -0.2779  0.1075
  732POPI    C210576  13.934  12.061   5.318 -0.1377 -0.1630 -0.0595
  732POPI    C310577  13.542  12.135   5.339 -0.0839  0.0240  0.4049
  732POPI   PO410578  13.799  12.001   5.785 -0.2733 -0.1670  0.0437
  732POPI   GL110579  13.866  11.933   6.204 -0.1872  0.1817 -0.0749
  732POPI   GL210580  13.527  12.109   6.191 -0.0528 -0.0483 -0.0294
  732POPI   C1A10581  13.991  11.811   6.599  0.3131  0.2888  0.0343
  732POPI   D2A10582  13.926  11.769   6.982  0.2436 -0.0858 -0.0708
  732POPI   C3A10583  14.020  12.033   7.348 -0.0075 -0.0020 -0.0802
  732POPI   C4A10584  14.198  12.196   7.799  0.0845 -0.1593 -0.0128
  732POPI   C1B10585  13.636  12.162   6.671 -0.0973  0.0461 -0.2062
  732POPI   C2B10586  13.704  12.291   7.068  0.0012  0.0190  0.1481
  732POPI   C3B10587  13.330  12.247   7.473 -0.4245 -0.1778  0.2968
  732POPI   C4B10588  13.285  12.527   7.903 -0.1439  0.2344 -0.3032
  733POPI    C110589   4.821   2.935   5.386 -0.3568 -0.0610 -0.0202
  733POPI    C210590   4.896   3.297   5.232  0.0694 -0.1810 -0.1089
  733POPI    C310591   4.644   3.049   5.045 -0.1549  0.0330 -0.0956
  733POPI   PO410592   4.791   3.035   5.651  0.0452 -0.1986  0.1869
  733POPI   GL110593   4.788   3.013   6.116 -0.1298 -0.1166 -0.2373
  733POPI   GL210594   4.887   3.358   6.054 -0.2722 -0.3534  0.0748
  733POPI   C1A10595   4.850   2.961   6.494  0.0126  0.0967 -0.1334
  733POPI   D2A10596   4.724   3.020   6.919  0.0056  0.0582 -0.0614
  733POPI   C3A10597   4.920   2.599   7.193  0.0913  0.2746  0.0977
  733POPI   C4A10598   4.885   2.475   7.674 -0.3328  0.3274 -0.2763
  733POPI   C1B10599   4.907   3.503   6.408 -0.1611  0.1381 -0.2507
  733POPI   C2B10600   4.877   3.540   6.846 -0.0899  0.0275  0.0370
  733POPI   C3B10601   4.705   3.399   7.265 -0.2458  0.0704  0.0143
  733POPI   C4B10602   4.856   3.356   7.629 -0.1282  0.0666 -0.0771
  734POPI    C110603  16.178   1.361   5.779 -0.0381  0.1065 -0.1900
  734POPI    C210604  16.070   1.094   5.502 -0.0432 -0.0363 -0.0520
  734POPI    C310605  16.318   0.986   5.797 -0.4386 -0.0304  0.2905
  734POPI   PO410606  15.891   1.381   5.908  0.0421 -0.2023  0.2406
  734POPI   GL110607  15.819   1.714   6.151  0.0883 -0.0004  0.1489
  734POPI   GL210608  16.157   1.543   6.285 -0.3822 -0.0357 -0.1343
  734POPI   C1A10609  15.724   1.429   6.472  0.0149 -0.3285  0.0804
  734POPI   D2A10610  15.793   1.381   6.984 -0.1210  0.2289 -0.0805
  734POPI   C3A10611  16.039   1.390   7.450  0.1894  0.2974 -0.2138
  734POPI   C4A10612  16.107   1.691   7.702 -0.0447 -0.0130  0.2481
  734POPI   C1B10613  16.133   1.779   6.581  0.0276  0.1111 -0.2768
  734POPI   C2B10614  16.296   1.751   7.055 -0.4123 -0.0431  0.2153
  734POPI   C3B10615  16.587   1.890   7.429 -0.1333 -0.1125 -0.0338
  734POPI   C4B10616  16.913   2.018   7.768 -0.0016 -0.1809 -0.2237
  735POPI    C110617   5.820  13.266   5.598 -0.0253 -0.1226  0.1303
  735POPI    C210618   5.433  13.220   5.505 -0.0800  0.1713  0.1999
  735POPI    C310619   5.641  13.523   5.348  0.0456  0.1845  0.3883
  735POPI   PO410620   5.848  13.241   5.848  0.0909  0.5176 -0.0560
  735POPI   GL110621   5.937  13.266   6.272 -0.0446 -0.1113 -0.0435
  735POPI   GL210622   6.269  13.212   6.342 -0.2992 -0.2265 -0.1482
  735POPI   C1A10623   5.825  13.340   6.703  0.1083 -0.1419 -0.0741
  735POPI   D2A10624   5.905  13.312   7.150 -0.0644 -0.1420  0.1635
  735POPI   C3A10625   5.755  13.317   7.551 -0.4109 -0.1753  0.1929
  735POPI   C4A10626   5.743  13.567   7.939  0.0104  0.1077  0.2933
  735POPI   C1B10627   6.276  13.117   6.828  0.1848 -0.1057  0.2110
  735POPI   C2B10628   6.370  12.944   7.207 -0.1687 -0.0679 -0.1088
  735POPI   C3B10629   6.279  13.038   7.594  0.3316  0.0502  0.1168
  735POPI   C4B10630   6.621  13.123   7.761  0.0676  0.3981 -0.2940
  736POPI    C110631   0.789  17.691   5.601  0.4656 -0.0088 -0.1584
  736POPI    C210632   0.678  17.548   5.244 -0.1999  0.0535  0.0113
  736POPI    C310633   0.849  17.305   5.512 -0.1498 -0.1117 -0.1682
  736POPI   PO410634   0.689  17.970   5.596  0.2262  0.1307 -0.1739
  736POPI   GL110635   0.540  18.103   6.043  0.3101  0.0415  0.2551
  736POPI   GL210636   0.288  17.909   6.033  0.0664  0.1257 -0.0564
  736POPI   C1A10637   0.633  18.443   6.489  0.2642  0.1389 -0.1178
  736POPI   D2A10638   0.904  18.450   6.787  0.2340 -0.1999 -0.0664
  736POPI   C3A10639   0.992  18.619   7.194 -0.0848 -0.0401  0.1357
  736POPI   C4A10640   1.037  18.964   7.534  0.1149  0.2845  0.3364
  736POPI   C1B10641   0.241  18.036   6.481 -0.1241  0.0878 -0.1604
  736POPI   C2B10642   0.187  18.318   6.748 -0.0461  0.0622  0.4262
  736POPI   C3B10643   0.463  18.469   7.133  0.4159  0.1144  0.0885
  736POPI   C4B10644   0.536  18.730   7.440  0.1115  0.0480 -0.0832
  737POPI    C110645  11.058  15.531   5.660  0.0178  0.0581 -0.0100
  737POPI    C210646  11.443  15.591   5.571 -0.0490  0.3295 -0.1242
  737POPI    C310647  11.182  15.501   5.281 -0.0875  0.2298 -0.0590
  737POPI   PO410648  11.047  15.327   5.849  0.0244 -0.2224  0.0511
  737POPI   GL110649  10.984  15.228   6.356  0.0099 -0.1097  0.1409
  737POPI   GL210650  11.249  15.239   6.582  0.0691 -0.1562 -0.2785
  737POPI   C1A10651  10.701  15.217   6.610 -0.0489  0.3766  0.0195
  737POPI   D2A10652  10.625  15.378   6.983  0.0186  0.1545 -0.1091
  737POPI   C3A10653  10.615  15.726   7.143  0.0016 -0.2628  0.3428
  737POPI   C4A10654  10.425  15.989   7.095  0.2379  0.0869  0.2290
  737POPI   C1B10655  11.280  15.221   7.051 -0.1758 -0.2313  0.2167
  737POPI   C2B10656  11.128  15.105   7.521 -0.1071  0.0004  0.1298
  737POPI   C3B10657  10.890  14.981   7.803  0.0389  0.0287  0.0655
  737POPI   C4B10658  10.839  15.131   8.242  0.3298 -0.1860  0.0938
  738POPI    C110659  15.370   9.504   5.520  0.1851  0.0814 -0.1882
  738POPI    C210660  15.343   9.811   5.265 -0.1409  0.0908 -0.1460
  738POPI    C310661  15.060   9.527   5.269  0.1128 -0.1669 -0.1253
  738POPI   PO410662  15.451   9.585   5.711  0.2185 -0.1607  0.2532
  738POPI   GL110663  15.450   9.500   6.216 -0.0838 -0.1080 -0.2422
  738POPI   GL210664  15.156   9.496   6.082  0.0889 -0.3744  0.1659
  738POPI   C1A10665  15.581   9.604   6.637 -0.1803  0.0153 -0.1246
  738POPI   D2A10666  15.853   9.790   6.925 -0.1561  0.2224 -0.1939
  738POPI   C3A10667  15.716   9.785   7.294  0.1026 -0.0554  0.1769
  738POPI   C4A10668  15.903   9.796   7.796  0.2608 -0.2669  0.1594
  738POPI   C1B10669  15.084   9.543   6.558  0.0001  0.0541 -0.0864
  738POPI   C2B10670  15.111   9.592   7.029  0.1196 -0.1705 -0.2445
  738POPI   C3B10671  15.212   9.495   7.474 -0.0603  0.2047  0.0766
  738POPI   C4B10672  15.174   9.258   7.879 -0.1975 -0.0989 -0.0735
  739POPI    C110673   6.387   3.943   5.086 -0.2213 -0.0520 -0.0385
  739POPI    C210674   6.087   3.947   4.822 -0.1887 -0.0360 -0.0753
  739POPI    C310675   6.367   4.233   4.811 -0.2557  0.0353  0.0556
  739POPI   PO410676   6.316   3.843   5.302  0.1800 -0.0604  0.0617
  739POPI   GL110677   6.378   3.967   5.679 -0.0896  0.0116 -0.0143
  739POPI   GL210678   6.189   4.262   5.866  0.0962  0.5815 -0.4479
  739POPI   C1A10679   6.328   3.800   6.107 -0.1984 -0.1253 -0.0406
  739POPI   D2A10680   6.484   3.428   6.292  0.0706  0.0270 -0.0700
  739POPI   C3A10681   6.393   3.544   6.767  0.0998  0.2531  0.0727
  739POPI   C4A10682   6.472   3.737   7.155  0.1008  0.1979 -0.0789
  739POPI   C1B10683   6.085   4.332   6.295  0.1853 -0.0074 -0.0076
  739POPI   C2B10684   5.957   4.418   6.625 -0.1341 -0.0193  0.0747
  739POPI   C3B10685   6.044   4.699   6.956  0.2335 -0.0630 -0.3085
  739POPI   C4B10686   5.948   5.045   7.172 -0.2321  0.2530  0.2253
  740POPI    C110687  12.581   1.961   5.710 -0.1041  0.1145 -0.0683
  740POPI    C210688  12.836   2.106   5.439  0.0026 -0.0911 -0.0800
  740POPI    C310689  12.825   1.713   5.512 -0.3549 -0.0921 -0.1244
  740POPI   PO410690  12.565   2.174   5.939 -0.0640  0.0723  0.2373
  740POPI   GL110691  12.489   2.323   6.294  0.0174  0.0888 -0.1372
  740POPI   GL210692  12.480   2.647   6.366  0.2757  0.0153 -0.1809
  740POPI   C1A10693  12.730   2.034   6.646  0.2646 -0.0378 -0.1176
  740POPI   D2A10694  12.841   1.616   6.565  0.3948  0.0028  0.2487
  740POPI   C3A10695  12.934   1.414   7.035  0.0003  0.1712  0.0061
  740POPI   C4A10696  12.858   1.363   7.450 -0.1191  0.0381 -0.0442
  740POPI   C1B10697  12.452   2.516   6.793  0.0294 -0.0291 -0.1314
  740POPI   C2B10698  12.494   2.502   7.241 -0.0168 -0.0363  0.0896
  740POPI   C3B10699  12.364   2.488   7.755  0.2517 -0.0637 -0.0549
  740POPI   C4B10700  12.403   2.589   8.179 -0.0313  0.2970 -0.1241
  741POPI    C110701   9.229   7.459   5.358  0.1206  0.0762 -0.0776
  741POPI    C210702   8.971   7.750   5.453  0.1298 -0.0458  0.3412
  741POPI    C310703   9.264   7.820   5.189 -0.1017  0.2055  0.1455
  741POPI   PO410704   9.307   7.409   5.594  0.1676 -0.0087 -0.3425
  741POPI   GL110705   9.201   7.331   5.997  0.0190 -0.1904  0.0273
  741POPI   GL210706   9.107   7.029   5.953  0.0980  0.2911 -0.0741
  741POPI   C1A10707   9.056   7.189   6.413 -0.1754  0.1161  0.0065
  741POPI   D2A10708   9.155   7.117   6.843 -0.0774  0.0151  0.0210
  741POPI   C3A10709   9.196   7.407   7.247 -0.0468  0.1398 -0.2610
  741POPI   C4A10710   8.957   7.524   7.622 -0.2123  0.0079 -0.0369
  741POPI   C1B10711   9.072   6.687   6.231 -0.0009  0.0898 -0.1417
  741POPI   C2B10712   9.005   6.593   6.631  0.0264 -0.0112  0.1193
  741POPI   C3B10713   9.189   6.502   7.026 -0.0332  0.0308  0.2565
  741POPI   C4B10714   9.098   6.529   7.484  0.1094 -0.1706 -0.0007
  742POPS   CNO10715   0.259  10.503   5.833  0.1364  0.0828  0.3834
  742POPS   PO410716   0.105  10.577   6.138 -0.1351  0.6175 -0.0594
  742POPS   GL110717   0.171  10.618   6.535 -0.0677 -0.0541 -0.4981
  742POPS   GL210718   0.111  10.348   6.632  0.1474 -0.0462  0.1727
  742POPS   C1A10719   0.064  10.838   6.917  0.2754  0.0380  0.0045
  742POPS   D2A10720   0.360  10.776   7.280 -0.0163 -0.0801  0.0875
  742POPS   C3A10721   0.204  10.870   7.730  0.0946 -0.0264  0.1323
  742POPS   C4A10722  -0.144  11.087   7.944 -0.0302  0.2471 -0.2555
  742POPS   C1B10723   0.305  10.236   7.002 -0.0328 -0.0894  0.0191
  742POPS   C2B10724   0.584  10.339   7.353  0.3196 -0.0896 -0.1104
  742POPS   C3B10725   0.672  10.632   7.691  0.0251 -0.4985  0.0514
  742POPS   C4B10726   0.630  11.135   7.698  0.1937 -0.1721  0.0765
  743POPS   CNO10727  16.389  10.997   5.721  0.1148 -0.1083  0.0654
  743POPS   PO410728  15.925  10.839   5.875 -0.3286 -0.0344 -0.1983
  743POPS   GL110729  15.815  10.993   6.241 -0.0239 -0.0778  0.0763
  743POPS   GL210730  15.475  10.858   6.107 -0.0639  0.3892 -0.3066
  743POPS   C1A10731  15.882  11.384   6.417  0.0327 -0.1943 -0.1111
  743POPS   D2A10732  16.044  11.777   6.528  0.4063 -0.0677 -0.0160
  743POPS   C3A10733  15.716  11.902   6.965 -0.1083  0.1032 -0.1145
  743POPS   C4A10734  15.594  11.983   7.381  0.3113 -0.0526 -0.1533
  743POPS   C1B10735  15.484  10.664   6.465 -0.0309  0.0960  0.1635
  743POPS   C2B10736  15.479  10.736   6.877  0.2407  0.0567  0.1728
  743POPS   C3B10737  15.575  11.084   7.192  0.1125 -0.0422 -0.0764
  743POPS   C4B10738  15.642  11.061   7.627  0.1927  0.0794 -0.0334
  744POPS   CNO10739   9.443  12.310   5.746  0.1229  0.0447 -0.3180
  744POPS   PO410740   9.275  11.974   5.992  0.1862 -0.0182  0.3587
  744POPS   GL110741   9.307  12.169   6.337  0.2043  0.0020  0.2038
  744POPS   GL210742   9.231  11.986   6.589  0.0614 -0.0586  0.0553
  744POPS   C1A10743   9.376  12.537   6.558 -0.0105  0.2387  0.2577
  744POPS   D2A10744   9.366  12.793   6.882  0.0639 -0.0474  0.2021
  744POPS   C3A10745   9.642  12.814   7.247  0.1340  0.0674  0.2157
  744POPS   C4A10746   9.813  13.242   7.413 -0.0629  0.0998 -0.2505
  744POPS   C1B10747   9.411  12.166   6.905 -0.0842 -0.3635  0.1633
  744POPS   C2B10748   9.370  12.396   7.278  0.0825  0.1109 -0.0427
  744POPS   C3B10749   9.554  12.438   7.662 -0.0550 -0.2266  0.3124
  744POPS   C4B10750   9.713  12.454   8.061  0.0481 -0.0668  0.3268
  745POPS   CNO10751  15.514  18.118   5.571 -0.1575 -0.0910  0.2329
  745POPS   PO410752  15.880  18.255   5.735 -0.1050  0.0497 -0.1701
  745POPS   GL110753  16.068  18.359   6.122  0.0218 -0.3671 -0.1754
  745POPS   GL210754  16.268  18.296   6.262 -0.4261 -0.2690  0.3347
  745POPS   C1A10755  15.773  18.525   6.377  0.1431 -0.0762 -0.0529
  745POPS   D2A10756  15.420  18.595   6.680  0.0151 -0.2876 -0.0395
  745POPS   C3A10757  15.350  18.284   6.745  0.2712  0.0382 -0.0044
  745POPS   C4A10758  15.134  18.158   6.415 -0.1202  0.1302 -0.2852
  745POPS   C1B10759  16.139  18.472   6.696 -0.3625  0.0785 -0.0146
  745POPS   C2B10760  15.960  18.455   7.214  0.2123  0.2029  0.1210
  745POPS   C3B10761  15.518  18.235   7.257  0.0039 -0.1014 -0.1367
  745POPS   C4B10762  15.178  18.039   7.153 -0.2284  0.2083 -0.1657
  746POPS   CNO10763   4.410   8.275   5.580  0.0629 -0.3160  0.1056
  746POPS   PO410764   4.012   8.572   5.623  0.1889 -0.0605 -0.0002
  746POPS   GL110765   4.003   8.464   5.998 -0.0958 -0.2304 -0.3714
  746POPS   GL210766   4.253   8.416   6.201  0.0156 -0.0816 -0.0853
  746POPS   C1A10767   3.784   8.485   6.347 -0.1523  0.1006  0.2360
  746POPS   D2A10768   3.500   8.416   6.631  0.0041 -0.0377 -0.3132
  746POPS   C3A10769   3.715   8.533   7.083  0.1394 -0.0135 -0.0838
  746POPS   C4A10770   3.828   8.632   7.565 -0.1679  0.0939  0.0166
  746POPS   C1B10771   4.248   8.371   6.667  0.2975  0.0170 -0.0630
  746POPS   C2B10772   4.198   8.307   7.131 -0.1334 -0.0091 -0.0288
  746POPS   C3B10773   4.052   8.055   7.375  0.3262  0.0641 -0.1808
  746POPS   C4B10774   3.903   7.681   7.644 -0.1290 -0.0682  0.0554
  747POPS   CNO10775   3.161   8.799   5.294  0.1650 -0.3134 -0.0043
  747POPS   PO410776   3.423   9.093   5.606 -0.0329 -0.0348  0.0790
  747POPS   GL110777   3.464   9.108   6.084  0.0870 -0.0739 -0.2445
  747POPS   GL210778   3.702   9.374   6.124 -0.0944  0.0119 -0.4006
  747POPS   C1A10779   3.521   9.023   6.504 -0.0516  0.1091 -0.3384
  747POPS   D2A10780   3.607   9.239   6.981  0.1196 -0.2000 -0.2287
  747POPS   C3A10781   3.697   9.041   7.275 -0.0827  0.1066  0.0059
  747POPS   C4A10782   3.818   9.111   7.642 -0.1325  0.0891  0.1628
  747POPS   C1B10783   3.630   9.556   6.532  0.0833 -0.1639  0.1014
  747POPS   C2B10784   3.662   9.742   6.901 -0.1417  0.1497  0.1403
  747POPS   C3B10785   3.995   9.934   7.004  0.0601 -0.0001 -0.0603
  747POPS   C4B10786   4.323  10.247   7.190  0.0518  0.1002  0.1171
  748POPS   CNO10787  10.464   9.729   5.521 -0.0302 -0.1032  0.0336
  748POPS   PO410788  10.646   9.348   5.790  0.0962 -0.1206 -0.1356
  748POPS   GL110789  10.710   9.113   6.230  0.1172  0.1560 -0.3415
  748POPS   GL210790  10.750   8.730   6.236  0.1581 -0.1526  0.0688
  748POPS   C1A10791  10.835   8.997   6.725 -0.1772  0.0440 -0.1669
  748POPS   D2A10792  10.906   8.983   7.185 -0.2330 -0.0665 -0.2500
  748POPS   C3A10793  10.857   9.322   7.490 -0.2278 -0.3529  0.2354
  748POPS   C4A10794  10.878   9.470   7.919  0.3072  0.1944 -0.1318
  748POPS   C1B10795  10.689   8.541   6.644  0.0591 -0.2912 -0.2933
  748POPS   C2B10796  10.904   8.182   6.900 -0.2462 -0.3199 -0.0700
  748POPS   C3B10797  10.977   7.778   6.957  0.1181  0.1408 -0.0727
  748POPS   C4B10798  10.814   7.452   6.694 -0.2269  0.0174 -0.1139
  749POPS   CNO10799  16.083   5.699   6.271 -0.0441 -0.0006 -0.3046
  749POPS   PO410800  16.168   5.990   5.954  0.0037  0.0934 -0.1413
  749POPS   GL110801  15.977   6.211   6.277  0.2068  0.3247  0.1588
  749POPS   GL210802  15.663   6.423   6.206  0.1912 -0.0183 -0.1487
  749POPS   C1A10803  16.013   6.365   6.729  0.0869 -0.2507 -0.3089
  749POPS   D2A10804  15.742   6.447   7.089 -0.0309  0.0049 -0.1246
  749POPS   C3A10805  15.802   6.094   7.335  0.0889 -0.3587  0.2191
  749POPS   C4A10806  15.675   6.034   7.788  0.1066 -0.2761  0.2231
  749POPS   C1B10807  15.820   6.728   6.531  0.6213 -0.0269 -0.0172
  749POPS   C2B10808  15.823   6.888   6.911 -0.0812 -0.2183 -0.1034
  749POPS   C3B10809  15.749   6.931   7.376 -0.1881  0.0814 -0.3782
  749POPS   C4B10810  15.798   7.200   7.679  0.0513 -0.1447  0.1140
  750POPS   CNO10811   5.805  14.015   5.521 -0.2469 -0.0510  0.2260
  750POPS   PO410812   5.430  13.828   5.624  0.1890  0.0367 -0.0806
  750POPS   GL110813   5.411  13.828   6.174 -0.0422  0.1855 -0.0865
  750POPS   GL210814   5.622  13.692   6.390 -0.2441 -0.1053  0.1369
  750POPS   C1A10815   5.336  14.082   6.487  0.0830  0.1475  0.0419
  750POPS   D2A10816   5.264  14.167   6.888  0.1500  0.0248 -0.0867
  750POPS   C3A10817   5.579  14.236   7.193 -0.1507 -0.2888  0.2617
  750POPS   C4A10818   5.880  14.622   7.379 -0.0828 -0.1355  0.1693
  750POPS   C1B10819   5.553  13.759   6.838 -0.3510  0.0381  0.0483
  750POPS   C2B10820   5.689  13.699   7.181  0.0133  0.0591 -0.0365
  750POPS   C3B10821   5.930  13.792   7.549  0.0777  0.0144 -0.1165
  750POPS   C4B10822   6.233  13.571   7.725  0.0321  0.1058 -0.0228
  751POPS   CNO10823  15.102   3.760   5.587 -0.1107 -0.2271 -0.0469
  751POPS   PO410824  15.529   3.737   5.404 -0.0470  0.3968 -0.0453
  751POPS   GL110825  15.490   3.811   5.863  0.1285  0.0416 -0.2259
  751POPS   GL210826  15.250   3.832   6.110  0.0441 -0.0737  0.0443
  751POPS   C1A10827  15.681   3.745   6.287  0.1341  0.0407  0.0886
  751POPS   D2A10828  15.789   3.939   6.727 -0.0363  0.0841  0.1489
  751POPS   C3A10829  15.453   3.846   7.126  0.0437 -0.0535 -0.0283
  751POPS   C4A10830  15.311   3.705   7.515 -0.0157 -0.1313 -0.0082
  751POPS   C1B10831  15.059   3.588   6.341 -0.0392 -0.3062 -0.1435
  751POPS   C2B10832  14.960   3.510   6.807 -0.0691  0.2172 -0.0917
  751POPS   C3B10833  14.913   3.651   7.219  0.2073  0.0865 -0.1812
  751POPS   C4B10834  14.989   4.088   7.529  0.0084 -0.0634 -0.0859
  752POPS   CNO10835   5.362  18.122   5.336  0.0491 -0.4490 -0.0790
  752POPS   PO410836   5.310  17.762   5.368 -0.1811  0.0257 -0.0786
  752POPS   GL110837   5.307  17.597   5.842  0.1305  0.0367 -0.1274
  752POPS   GL210838   5.178  17.832   5.853  0.1242  0.3176 -0.1873
  752POPS   C1A10839   5.229  17.205   6.050 -0.0711  0.3079  0.0768
  752POPS   D2A10840   5.431  16.763   6.099 -0.0959 -0.3154 -0.3066
  752POPS   C3A10841   5.290  16.503   6.274 -0.2104  0.1552  0.2171
  752POPS   C4A10842   5.311  16.054   6.183 -0.1343 -0.1668 -0.0220
  752POPS   C1B10843   5.330  18.047   6.338  0.0577 -0.2180  0.0338
  752POPS   C2B10844   5.201  18.405   6.662 -0.0221  0.1537  0.0720
  752POPS   C3B10845   5.111  18.723   6.936  0.1126 -0.4367 -0.0258
  752POPS   C4B10846   5.377  18.781   7.311 -0.0430  0.0085 -0.3571
  753POPS   CNO10847   6.620  15.850   5.218 -0.1886 -0.1546  0.1086
  753POPS   PO410848   6.942  15.694   5.564  0.0671  0.0102  0.2423
  753POPS   GL110849   6.897  15.908   6.031  0.1640 -0.2014 -0.0918
  753POPS   GL210850   6.792  15.735   6.193  0.2213 -0.0877  0.0026
  753POPS   C1A10851   6.920  16.195   6.446  0.1253  0.1918 -0.0015
  753POPS   D2A10852   6.983  16.078   6.916 -0.1233  0.0423 -0.0958
  753POPS   C3A10853   7.318  16.392   7.190 -0.2554  0.0281  0.0016
  753POPS   C4A10854   7.661  16.413   7.272 -0.1395  0.2869 -0.1109
  753POPS   C1B10855   6.720  15.802   6.581  0.0352  0.0951  0.0344
  753POPS   C2B10856   6.609  15.712   7.038 -0.0631  0.1585 -0.0994
  753POPS   C3B10857   6.616  15.841   7.481 -0.0756  0.0987  0.1770
  753POPS   C4B10858   6.414  15.922   7.864  0.1148 -0.3217 -0.1356
  754POPS   CNO10859   4.838  13.201   5.250 -0.0758  0.0705  0.0560
  754POPS   PO410860   4.926  13.140   5.728 -0.0775  0.0916  0.2615
  754POPS   GL110861   4.945  12.987   6.184 -0.2217 -0.0300  0.0122
  754POPS   GL210862   4.972  12.710   6.332  0.0577 -0.0440 -0.0667
  754POPS   C1A10863   4.908  13.168   6.592 -0.0163 -0.2610  0.3018
  754POPS   D2A10864   4.868  13.179   7.098  0.2355  0.1336  0.0228
  754POPS   C3A10865   4.588  12.988   7.310 -0.3918 -0.0518  0.0662
  754POPS   C4A10866   4.313  13.022   7.619 -0.0286  0.0291  0.1083
  754POPS   C1B10867   4.774  12.604   6.658 -0.1051 -0.0612 -0.2157
  754POPS   C2B10868   4.735  12.490   7.206 -0.0109  0.1621  0.0853
  754POPS   C3B10869   4.702  12.632   7.650 -0.5180  0.1378  0.2806
  754POPS   C4B10870   4.541  12.756   7.967 -0.1057  0.0345 -0.1109
  755POPS   CNO10871  10.951  10.475   5.758 -0.0319  0.2248  0.0259
  755POPS   PO410872  10.805  10.102   5.506  0.2575 -0.1509  0.0652
  755POPS   GL110873  10.523  10.042   5.963 -0.0140 -0.2273 -0.1823
  755POPS   GL210874  10.595   9.767   6.036  0.2376 -0.1452 -0.0969
  755POPS   C1A10875  10.259  10.235   6.330 -0.1396 -0.3848 -0.3272
  755POPS   D2A10876   9.953  10.268   6.582  0.1650  0.2066  0.2303
  755POPS   C3A10877   9.989  10.661   6.726  0.1153 -0.2762  0.1318
  755POPS   C4A10878  10.253  10.983   6.932 -0.1858  0.2534 -0.1345
  755POPS   C1B10879  10.778   9.839   6.478 -0.3564 -0.1922 -0.1620
  755POPS   C2B10880  10.872   9.914   6.827  0.2186 -0.2765 -0.3077
  755POPS   C3B10881  10.864   9.880   7.259  0.0900  0.1285 -0.1812
  755POPS   C4B10882  10.727   9.849   7.656  0.1562  0.3526  0.0466
  756POPS   CNO10883   7.566  16.925   6.003  0.0631 -0.2537 -0.2039
  756POPS   PO410884   7.769  17.189   6.006  0.2824 -0.0183  0.0398
  756POPS   GL110885   7.635  17.303   6.335 -0.1039  0.5260 -0.1396
  756POPS   GL210886   7.508  17.530   6.258  0.0826  0.0065  0.1078
  756POPS   C1A10887   7.757  17.278   6.701 -0.1711  0.0525 -0.1002
  756POPS   D2A10888   7.647  17.326   7.090  0.0677  0.2805 -0.2046
  756POPS   C3A10889   7.625  17.591   7.609 -0.1347  0.1307  0.0534
  756POPS   C4A10890   7.651  17.854   7.995  0.1065  0.0650 -0.1851
  756POPS   C1B10891   7.495  17.778   6.533  0.2438 -0.0064 -0.3511
  756POPS   C2B10892   7.671  18.185   6.840 -0.1796 -0.1219 -0.0918
  756POPS   C3B10893   7.607  18.227   7.284  0.2897  0.2891 -0.1253
  756POPS   C4B10894   7.322  18.005   7.523  0.2733  0.0887  0.0931
  757POPS   CNO10895   3.143  12.306   5.470 -0.0766  0.0114 -0.1955
  757POPS   PO410896   3.403  11.888   5.542  0.3822 -0.1535  0.2459
  757POPS   GL110897   3.415  11.705   5.957 -0.2859  0.0330  0.3603
  757POPS   GL210898   3.104  11.475   6.136  0.1054 -0.0678 -0.0995
  757POPS   C1A10899   3.501  11.324   6.367 -0.0895  0.1855 -0.2489
  757POPS   D2A10900   3.669  10.965   6.524  0.0115  0.0230 -0.2785
  757POPS   C3A10901   3.992  10.975   6.794  0.1525  0.4687  0.0176
  757POPS   C4A10902   4.251  10.780   7.064  0.1180 -0.0526  0.0193
  757POPS   C1B10903   3.167  11.576   6.635 -0.0477 -0.1701  0.0853
  757POPS   C2B10904   2.975  11.574   6.921 -0.2008 -0.0791 -0.0432
  757POPS   C3B10905   3.012  11.459   7.409  0.1272  0.0213  0.1194
  757POPS   C4B10906   3.305  11.809   7.651  0.0739 -0.2274  0.0984
  758POPS   CNO10907  16.527   5.028   5.985  0.0903  0.0359 -0.0558
  758POPS   PO410908  16.199   5.015   5.668  0.1160 -0.1887 -0.4200
  758POPS   GL110909  16.088   5.217   6.088 -0.0910  0.0673  0.0448
  758POPS   GL210910  15.867   5.050   6.427 -0.0813 -0.0384  0.1314
  758POPS   C1A10911  16.228   5.310   6.573  0.0565  0.0393  0.2819
  758POPS   D2A10912  16.318   5.554   6.935  0.1401  0.2782 -0.0499
  758POPS   C3A10913  16.174   5.345   7.367 -0.0463 -0.0567 -0.0173
  758POPS   C4A10914  15.930   5.556   7.733 -0.1275 -0.0946 -0.1362
  758POPS   C1B10915  16.038   4.759   6.711 -0.2473 -0.1006 -0.2298
  758POPS   C2B10916  16.190   4.771   7.108 -0.1470 -0.1897  0.2137
  758POPS   C3B10917  16.491   4.491   7.287 -0.1950 -0.0638 -0.1624
  758POPS   C4B10918  16.422   4.180   7.568 -0.1868 -0.0409 -0.2545
  759POPS   CNO10919  13.874   8.932   5.069  0.2525  0.3791 -0.1178
  759POPS   PO410920  13.893   9.244   5.416  0.1961 -0.1248 -0.1438
  759POPS   GL110921  13.857   9.225   5.811  0.1512  0.0467 -0.1645
  759POPS   GL210922  14.133   9.302   6.043 -0.0127 -0.0602 -0.0223
  759POPS   C1A10923  13.484   9.300   6.134 -0.0813  0.0352 -0.0194
  759POPS   D2A10924  13.339   9.265   6.665  0.0905  0.1409  0.1819
  759POPS   C3A10925  13.048   9.378   6.993 -0.1166  0.0004 -0.2279
  759POPS   C4A10926  12.676   9.415   7.235 -0.0491  0.1228 -0.1044
  759POPS   C1B10927  14.173   9.444   6.530 -0.1946  0.1216 -0.1641
  759POPS   C2B10928  14.127   9.452   7.020  0.1075  0.1178 -0.1179
  759POPS   C3B10929  14.097   9.428   7.517 -0.0579 -0.0263 -0.1998
  759POPS   C4B10930  14.061   9.658   7.957  0.0992  0.0373  0.0542
  760POPS   CNO10931   5.082   0.607   5.304 -0.2688 -0.1878  0.0188
  760POPS   PO410932   5.405   0.946   5.589 -0.0431  0.2782  0.1357
  760POPS   GL110933   5.541   1.005   6.015  0.0305  0.1923 -0.1083
  760POPS   GL210934   5.985   0.900   6.029  0.0824  0.3266 -0.0751
  760POPS   C1A10935   5.704   1.194   6.483 -0.1065  0.1710  0.2467
  760POPS   D2A10936   5.785   1.354   6.798  0.3443 -0.2942 -0.0402
  760POPS   C3A10937   5.928   1.099   7.145  0.0279  0.0197  0.5269
  760POPS   C4A10938   5.766   0.584   7.128 -0.1532 -0.2740  0.1045
  760POPS   C1B10939   5.900   0.754   6.445  0.0395  0.0766 -0.2118
  760POPS   C2B10940   5.766   0.339   6.699  0.0382 -0.1589 -0.1694
  760POPS   C3B10941   5.671   0.085   6.988 -0.0844 -0.0783 -0.1812
  760POPS   C4B10942   5.684  -0.048   7.503  0.0690  0.0524  0.0529
  761POPS   CNO10943  16.538   7.003   5.886 -0.0808  0.0360 -0.1002
  761POPS   PO410944  16.822   6.681   6.100 -0.0908 -0.1369  0.2083
  761POPS   GL110945  17.015   6.492   6.387  0.5078  0.1300  0.0094
  761POPS   GL210946  16.932   6.728   6.609  0.0140 -0.1476  0.0947
  761POPS   C1A10947  17.199   6.170   6.737 -0.2357  0.1816  0.0686
  761POPS   D2A10948  17.151   6.123   7.192  0.0793  0.0390  0.1406
  761POPS   C3A10949  16.909   5.909   7.448 -0.2225 -0.0246  0.0669
  761POPS   C4A10950  16.825   5.778   7.858 -0.2526 -0.1236 -0.0354
  761POPS   C1B10951  16.921   6.646   7.009  0.1748 -0.0565 -0.2208
  761POPS   C2B10952  17.034   6.502   7.452  0.0217  0.2748  0.2229
  761POPS   C3B10953  17.206   6.220   7.720  0.0286 -0.0884  0.1291
  761POPS   C4B10954  17.107   6.214   8.106 -0.0107  0.0819 -0.1199
  762POPS   CNO10955   3.447   0.666   5.505 -0.2320 -0.2390  0.1758
  762POPS   PO410956   3.563   1.134   5.616  0.0673 -0.2389  0.1080
  762POPS   GL110957   3.805   1.269   5.943  0.1951 -0.1027 -0.2142
  762POPS   GL210958   4.095   1.250   5.844  0.3581  0.1129  0.1963
  762POPS   C1A10959   3.890   1.413   6.360  0.3015  0.1365 -0.1371
  762POPS   D2A10960   4.061   1.239   6.663 -0.3768 -0.0079  0.0323
  762POPS   C3A10961   3.719   1.135   7.021  0.2076  0.2060 -0.1678
  762POPS   C4A10962   3.604   0.789   7.235  0.1443  0.0486 -0.0756
  762POPS   C1B10963   4.313   1.185   6.229 -0.1912 -0.2938  0.3611
  762POPS   C2B10964   4.734   1.278   6.542 -0.2680 -0.0804  0.0423
  762POPS   C3B10965   4.859   1.243   6.906  0.2552  0.1760  0.3377
  762POPS   C4B10966   5.192   1.314   7.234  0.2256 -0.2066  0.4669
  763POPS   CNO10967  15.019   1.809   5.583 -0.0517 -0.1699 -0.0058
  763POPS   PO410968  15.227   2.019   5.893  0.2916  0.1263  0.1322
  763POPS   GL110969  15.193   1.775   6.275 -0.2749 -0.0801 -0.0512
  763POPS   GL210970  14.906   1.776   6.399 -0.0222  0.0073 -0.2896
  763POPS   C1A10971  15.285   1.784   6.738  0.0152  0.1967  0.2037
  763POPS   D2A10972  15.360   1.622   7.135 -0.2311  0.0355 -0.0234
  763POPS   C3A10973  15.513   1.372   7.449  0.1165  0.2060 -0.1873
  763POPS   C4A10974  15.692   1.455   7.873 -0.1878  0.2709  0.1803
  763POPS   C1B10975  14.814   1.943   6.773  0.2263  0.1021  0.1601
  763POPS   C2B10976  14.998   2.015   7.137 -0.0868 -0.0071 -0.0858
  763POPS   C3B10977  15.376   2.199   7.323  0.2163  0.3408 -0.1977
  763POPS   C4B10978  15.681   2.419   7.367  0.0097  0.1259 -0.0657
  764POPS   CNO10979  11.255  18.235   5.322 -0.0183 -0.1319  0.0793
  764POPS   PO410980  11.055  17.872   5.539  0.0060  0.1328 -0.1197
  764POPS   GL110981  10.809  17.928   6.023  0.1283 -0.2225 -0.0366
  764POPS   GL210982  10.906  17.735   6.206 -0.0436 -0.2330  0.1065
  764POPS   C1A10983  10.417  17.919   6.195  0.0178  0.1451  0.0447
  764POPS   D2A10984  10.037  17.792   6.260  0.4038  0.1684 -0.2345
  764POPS   C3A10985   9.722  17.845   5.936  0.0842 -0.0851 -0.1751
  764POPS   C4A10986   9.366  17.930   5.906  0.0433  0.4355 -0.1317
  764POPS   C1B10987  10.800  17.912   6.561 -0.0563 -0.2316 -0.0350
  764POPS   C2B10988  10.714  18.080   6.965 -0.1207 -0.1090  0.1274
  764POPS   C3B10989  10.606  18.077   7.330  0.0061 -0.0873 -0.1622
  764POPS   C4B10990  10.464  18.292   7.710 -0.0861  0.0305 -0.2608
  765POPS   CNO10991  16.690  12.944   5.721  0.4033  0.2691  0.0794
  765POPS   PO410992  16.453  13.283   5.496 -0.0482 -0.1357  0.2351
  765POPS   GL110993  16.410  13.314   5.977  0.0778 -0.2984 -0.1172
  765POPS   GL210994  16.177  13.610   6.051  0.1154  0.1085  0.1116
  765POPS   C1A10995  16.553  13.472   6.386 -0.1057  0.1964  0.1349
  765POPS   D2A10996  16.568  13.512   6.916 -0.3710 -0.1970 -0.2087
  765POPS   C3A10997  16.338  13.731   7.327  0.0176  0.0532  0.1379
  765POPS   C4A10998  16.294  13.584   7.786 -0.1614  0.0003 -0.2196
  765POPS   C1B10999  16.149  13.954   6.538  0.1133 -0.2125 -0.0367
  765POPS   C2B11000  16.285  13.949   6.914  0.1756 -0.0959  0.1476
  765POPS   C3B11001  16.765  14.039   7.115  0.1308 -0.2894 -0.3552
  765POPS   C4B11002  17.047  13.684   7.209 -0.2947 -0.1189 -0.0444
  766POPS   CNO11003   5.065   6.162   5.170  0.1429 -0.0919  0.2183
  766POPS   PO411004   5.049   6.102   5.490 -0.1609  0.0895 -0.0212
  766POPS   GL111005   5.022   5.889   5.837  0.1115  0.0595 -0.0226
  766POPS   GL211006   4.779   5.854   6.007 -0.0125 -0.0369  0.2229
  766POPS   C1A11007   5.201   5.688   6.111 -0.0660 -0.2674  0.2666
  766POPS   D2A11008   5.534   5.489   6.357 -0.1254  0.0241  0.2984
  766POPS   C3A11009   5.948   5.622   6.575  0.1745 -0.0018 -0.2273
  766POPS   C4A11010   6.388   5.669   6.828 -0.0029  0.0851  0.1200
  766POPS   C1B11011   4.880   5.902   6.473  0.2250  0.0791 -0.3174
  766POPS   C2B11012   5.199   5.609   6.651 -0.2601 -0.1727  0.0447
  766POPS   C3B11013   5.606   5.485   6.930  0.2018 -0.2600  0.5114
  766POPS   C4B11014   6.002   5.589   7.197 -0.2740  0.2503 -0.6151
  767POPS   CNO11015   2.423   5.635   5.594 -0.0777 -0.1459 -0.1494
  767POPS   PO411016   2.732   5.339   5.731  0.0047  0.0219 -0.0608
  767POPS   GL111017   2.579   5.451   6.064 -0.4416 -0.0444 -0.0289
  767POPS   GL211018   3.003   5.512   6.143 -0.1482 -0.1068  0.1520
  767POPS   C1A11019   2.369   5.428   6.448 -0.0794 -0.2080 -0.2714
  767POPS   D2A11020   2.361   5.322   6.905  0.1604 -0.1199 -0.0841
  767POPS   C3A11021   2.440   5.326   7.381  0.3400 -0.2509 -0.2143
  767POPS   C4A11022   2.790   5.393   7.635  0.1308  0.0607 -0.0467
  767POPS   C1B11023   2.926   5.489   6.485 -0.0611  0.1309 -0.0321
  767POPS   C2B11024   2.922   5.360   6.927 -0.2708 -0.2037 -0.1070
  767POPS   C3B11025   2.989   5.118   7.301 -0.1386  0.3874  0.1571
  767POPS   C4B11026   2.990   4.968   7.665 -0.0549  0.1724  0.0446
  768POPS   CNO11027   3.505   4.049   5.491  0.3160 -0.2360  0.0630
  768POPS   PO411028   3.848   3.945   5.770  0.2122  0.0965  0.4034
  768POPS   GL111029   3.937   3.862   6.108 -0.3629  0.0754  0.2693
  768POPS   GL211030   3.847   3.516   6.187 -0.1358  0.0127 -0.1199
  768POPS   C1A11031   3.969   3.939   6.561  0.1092  0.0343  0.1436
  768POPS   D2A11032   3.990   3.738   6.889  0.0494 -0.0875  0.0674
  768POPS   C3A11033   4.151   3.578   7.262  0.1217 -0.1961  0.1971
  768POPS   C4A11034   4.378   3.495   7.660  0.0665  0.3439 -0.1963
  768POPS   C1B11035   4.316   3.636   6.193 -0.0086  0.1257 -0.1885
  768POPS   C2B11036   4.407   3.646   6.577  0.1219 -0.1646  0.2305
  768POPS   C3B11037   4.515   3.827   7.023  0.0557 -0.2394 -0.0280
  768POPS   C4B11038   4.777   3.870   7.457  0.1828  0.0181  0.2194
  769POPS   CNO11039  15.244   9.034   5.298  0.0756 -0.1832  0.0574
  769POPS   PO411040  15.260   8.812   5.550 -0.1963 -0.2875 -0.1556
  769POPS   GL111041  15.219   9.014   6.017  0.1126 -0.1234 -0.0028
  769POPS   GL211042  15.560   8.976   6.256 -0.1961 -0.2366 -0.1774
  769POPS   C1A11043  15.025   9.093   6.441  0.0028 -0.2600 -0.0356
  769POPS   D2A11044  14.923   9.101   6.909  0.1028 -0.2206 -0.3256
  769POPS   C3A11045  14.792   8.745   7.183  0.0600 -0.0626 -0.3265
  769POPS   C4A11046  14.936   8.364   7.308 -0.3802 -0.0778 -0.0622
  769POPS   C1B11047  15.431   9.144   6.709 -0.2804 -0.1594  0.0249
  769POPS   C2B11048  15.560   9.376   7.119  0.0396  0.0638 -0.0843
  769POPS   C3B11049  15.572   9.108   7.512 -0.3410 -0.2701 -0.1544
  769POPS   C4B11050  15.664   9.390   7.955  0.5006  0.1597  0.0645
  770POPS   CNO11051   9.793  13.709   5.554  0.4554 -0.0560  0.0528
  770POPS   PO411052  10.084  13.944   5.429 -0.0165  0.1380  0.1844
  770POPS   GL111053  10.060  14.049   5.805 -0.2392  0.1705  0.2211
  770POPS   GL211054   9.964  14.220   5.957  0.0856  0.0677 -0.0302
  770POPS   C1A11055   9.830  13.788   6.081 -0.1320  0.1361  0.0550
  770POPS   D2A11056   9.491  13.824   6.411 -0.3270 -0.0478  0.0132
  770POPS   C3A11057   9.512  13.744   6.768 -0.0217  0.0501  0.0786
  770POPS   C4A11058   9.449  13.731   7.189  0.2344  0.3855  0.0389
  770POPS   C1B11059   9.750  14.231   6.321 -0.0090 -0.2122 -0.1067
  770POPS   C2B11060   9.606  14.197   6.742  0.0954 -0.2749 -0.1105
  770POPS   C3B11061   9.740  14.099   7.140  0.1188 -0.0438  0.0687
  770POPS   C4B11062   9.675  14.066   7.608 -0.0997  0.0777 -0.1545
  771POPS   CNO11063   8.391  10.929   5.796  0.1206  0.1347 -0.0979
  771POPS   PO411064   8.192  11.022   6.155 -0.2087 -0.2369  0.3104
  771POPS   GL111065   8.376  11.205   6.526 -0.1273 -0.0674  0.2265
  771POPS   GL211066   8.428  11.514   6.427  0.1730 -0.0315 -0.0144
  771POPS   C1A11067   8.380  11.241   6.946  0.0896 -0.1708 -0.0374
  771POPS   D2A11068   8.294  11.175   7.322  0.0018  0.2688  0.0633
  771POPS   C3A11069   8.545  11.423   7.690  0.0456  0.1082 -0.0465
  771POPS   C4A11070   8.330  11.664   8.031 -0.0016 -0.2141  0.0054
  771POPS   C1B11071   8.327  11.736   6.956 -0.1268 -0.3546  0.2988
  771POPS   C2B11072   8.280  11.695   7.289 -0.4414 -0.1518 -0.0897
  771POPS   C3B11073   8.023  11.844   7.618 -0.1348  0.2908  0.0794
  771POPS   C4B11074   7.755  11.792   7.921  0.1717 -0.3414  0.0805
  772POPS   CNO11075   2.230   8.018   6.316 -0.1453  0.1223  0.0752
  772POPS   PO411076   2.319   7.626   5.998 -0.0006 -0.2970  0.0369
  772POPS   GL111077   2.183   7.497   6.487  0.1550 -0.1705  0.2777
  772POPS   GL211078   2.344   7.429   6.701 -0.0260 -0.1384 -0.0385
  772POPS   C1A11079   2.022   7.756   6.763  0.3584 -0.0437  0.0201
  772POPS   D2A11080   1.946   7.887   7.184 -0.1503  0.0186 -0.2191
  772POPS   C3A11081   2.135   7.612   7.578  0.0526  0.0328 -0.4324
  772POPS   C4A11082   2.430   7.212   7.554  0.0087  0.4546  0.2882
  772POPS   C1B11083   2.359   7.511   7.042 -0.1675  0.0912 -0.0044
  772POPS   C2B11084   2.700   7.639   7.303  0.1523  0.2641 -0.0185
  772POPS   C3B11085   2.824   7.607   7.603  0.1385  0.1723 -0.0877
  772POPS   C4B11086   3.005   7.500   7.923 -0.2128 -0.0829  0.2168
  773POPS   CNO11087  17.369   9.104   5.798  0.1340 -0.1536  0.1951
  773POPS   PO411088  17.663   8.996   6.117 -0.2682 -0.0111  0.2076
  773POPS   GL111089  17.551   9.068   6.489  0.1700 -0.1790  0.0764
  773POPS   GL211090  17.805   9.069   6.707  0.0594 -0.2290 -0.0687
  773POPS   C1A11091  17.332   9.345   6.732 -0.1229 -0.1001  0.0507
  773POPS   D2A11092  17.331   9.518   7.088  0.3098  0.0450 -0.4749
  773POPS   C3A11093  17.138   9.164   7.180 -0.1484 -0.4254 -0.2411
  773POPS   C4A11094  16.987   9.029   7.609 -0.0769  0.3193  0.1916
  773POPS   C1B11095  17.673   9.064   7.134 -0.0030 -0.0706 -0.2104
  773POPS   C2B11096  17.641   9.028   7.588 -0.0650  0.0446  0.1710
  773POPS   C3B11097  17.543   9.180   8.003  0.2257  0.0481  0.3583
  773POPS   C4B11098  17.353   9.404   8.376 -0.0841 -0.2280 -0.0923
  774POPS   CNO11099  16.251   4.560   5.479  0.3581  0.0903  0.0480
  774POPS   PO411100  16.396   4.175   5.556  0.0504  0.2118 -0.3489
  774POPS   GL111101  16.300   3.973   5.958 -0.2591  0.2967  0.1067
  774POPS   GL211102  16.256   4.195   6.280 -0.0929 -0.2596 -0.1824
  774POPS   C1A11103  16.214   3.706   6.306 -0.2189  0.1924  0.0529
  774POPS   D2A11104  16.111   3.413   6.667 -0.2165  0.1121 -0.0505
  774POPS   C3A11105  15.884   3.549   7.023  0.1873  0.0794  0.0529
  774POPS   C4A11106  15.726   3.480   7.436  0.0030  0.1636  0.0405
  774POPS   C1B11107  16.331   4.176   6.698 -0.0202  0.2816  0.0733
  774POPS   C2B11108  16.115   4.236   7.031 -0.0023  0.2539  0.3917
  774POPS   C3B11109  16.014   4.502   7.490 -0.1143 -0.1019  0.1339
  774POPS   C4B11110  16.031   4.912   7.620 -0.1139  0.0527  0.3023
  775POPS   CNO11111   1.914  15.071   5.771 -0.1553  0.0919  0.1456
  775POPS   PO411112   1.552  14.861   5.670  0.1400 -0.0455 -0.1175
  775POPS   GL111113   1.688  14.665   5.961  0.2957  0.2539  0.1445
  775POPS   GL211114   1.390  14.546   6.118  0.3006 -0.0630  0.0158
  775POPS   C1A11115   1.893  14.356   6.346  0.0359  0.0180 -0.0397
  775POPS   D2A11116   2.050  14.354   6.711 -0.0098 -0.1259 -0.1295
  775POPS   C3A11117   1.878  14.051   6.907  0.0514  0.1482  0.0186
  775POPS   C4A11118   1.809  13.626   6.905 -0.3297 -0.2489 -0.0343
  775POPS   C1B11119   1.541  14.684   6.491  0.1600 -0.0650  0.0585
  775POPS   C2B11120   1.643  14.551   6.843  0.1642  0.2683  0.1671
  775POPS   C3B11121   1.849  14.441   7.195  0.1843  0.0681  0.0253
  775POPS   C4B11122   1.719  14.470   7.541  0.1213 -0.1323 -0.2635
  776POPS   CNO11123  12.539  14.996   6.124  0.1167  0.3326 -0.1367
  776POPS   PO411124  12.895  14.751   6.009  0.1421  0.1299  0.3267
  776POPS   GL111125  12.980  14.856   6.413  0.0264  0.3397 -0.3188
  776POPS   GL211126  13.075  14.590   6.533 -0.4892  0.1032  0.1558
  776POPS   C1A11127  13.106  14.923   6.900  0.1321 -0.2206  0.4075
  776POPS   D2A11128  13.193  14.936   7.288 -0.1644  0.2872 -0.1797
  776POPS   C3A11129  13.315  15.154   7.575  0.2266  0.1163  0.1180
  776POPS   C4A11130  13.472  15.265   7.985 -0.3086  0.2893  0.2616
  776POPS   C1B11131  13.198  14.423   6.911  0.1617  0.0822  0.0507
  776POPS   C2B11132  13.242  14.086   7.244 -0.2138  0.0236  0.1526
  776POPS   C3B11133  13.390  14.085   7.706  0.1330  0.0039 -0.1671
  776POPS   C4B11134  13.604  13.930   8.103 -0.0694  0.0780  0.1824
  777POPS   CNO11135   8.916   2.024   5.055  0.1500 -0.1723  0.2532
  777POPS   PO411136   8.778   2.169   5.420 -0.1400  0.0720  0.0882
  777POPS   GL111137   8.916   2.054   5.823 -0.1279 -0.2394 -0.2173
  777POPS   GL211138   9.077   1.712   5.913  0.0830  0.0330 -0.0731
  777POPS   C1A11139   8.897   2.291   6.180  0.1862 -0.0607 -0.1885
  777POPS   D2A11140   8.867   2.407   6.527 -0.0303  0.0902 -0.2192
  777POPS   C3A11141   8.479   2.403   6.825 -0.0540 -0.3398  0.1699
  777POPS   C4A11142   8.472   2.465   7.269 -0.0196  0.3471 -0.3630
  777POPS   C1B11143   8.855   1.822   6.320 -0.0477 -0.0025  0.1447
  777POPS   C2B11144   8.772   1.954   6.723  0.0310  0.2633 -0.1147
  777POPS   C3B11145   8.881   2.323   7.054 -0.0015 -0.2005  0.2240
  777POPS   C4B11146   9.033   2.599   7.312  0.0478 -0.2263  0.0523
  778POPS   CNO11147  14.037   3.305   5.515 -0.1065 -0.3065  0.1154
  778POPS   PO411148  13.733   3.447   5.833 -0.1804  0.0598  0.1713
  778POPS   GL111149  13.815   3.279   6.226  0.0356 -0.1592  0.1134
  778POPS   GL211150  14.107   3.257   6.420  0.0404  0.1146  0.0288
  778POPS   C1A11151  13.630   3.448   6.521 -0.1383  0.1455  0.2433
  778POPS   D2A11152  13.324   3.853   6.585  0.0615  0.1709 -0.3693
  778POPS   C3A11153  13.374   3.939   7.044 -0.0210  0.0875  0.2329
  778POPS   C4A11154  13.258   4.139   7.442 -0.2181  0.0845 -0.4278
  778POPS   C1B11155  13.956   3.168   6.802  0.0637 -0.2038  0.1819
  778POPS   C2B11156  13.956   3.443   7.097  0.4325 -0.1507 -0.0335
  778POPS   C3B11157  13.946   3.367   7.545  0.0631  0.1418  0.1668
  778POPS   C4B11158  13.973   3.682   7.889 -0.0964 -0.1198 -0.3340
  779POPS   CNO11159   2.565  16.552   5.299 -0.0233 -0.1515 -0.1749
  779POPS   PO411160   2.587  16.753   5.750  0.1708  0.2403 -0.3413
  779POPS   GL111161   2.436  16.569   6.046  0.1141  0.0174  0.0968
  779POPS   GL211162   2.567  16.323   6.274  0.1868 -0.1406 -0.0210
  779POPS   C1A11163   2.068  16.411   6.358 -0.1306  0.2161  0.1853
  779POPS   D2A11164   2.007  16.403   6.764 -0.1231  0.2473  0.1489
  779POPS   C3A11165   1.842  16.235   7.120 -0.1204 -0.2226  0.1595
  779POPS   C4A11166   1.577  16.340   7.421 -0.2261 -0.0494 -0.0418
  779POPS   C1B11167   2.429  16.176   6.636  0.0660  0.0359 -0.1574
  779POPS   C2B11168   2.388  16.183   7.140 -0.0348  0.0655  0.1788
  779POPS   C3B11169   2.225  16.285   7.569  0.1149 -0.1187 -0.0391
  779POPS   C4B11170   1.843  16.476   7.810 -0.1258 -0.0640 -0.0018
  780POPS   CNO11171  13.075  12.309   6.019  0.0923  0.0300  0.1071
  780POPS   PO411172  13.221  12.047   5.744 -0.0937  0.0880  0.0450
  780POPS   GL111173  13.022  11.883   6.266 -0.0890  0.1975 -0.2024
  780POPS   GL211174  13.167  12.124   6.517  0.2343  0.0327  0.3286
  780POPS   C1A11175  13.012  11.710   6.649  0.0907  0.2610  0.3116
  780POPS   D2A11176  13.001  11.481   6.961 -0.1544 -0.1265  0.0989
  780POPS   C3A11177  13.064  11.648   7.306 -0.3978  0.0752 -0.0143
  780POPS   C4A11178  13.260  11.575   7.761 -0.0632 -0.0476  0.1995
  780POPS   C1B11179  13.263  11.983   6.976 -0.0803 -0.0690 -0.1737
  780POPS   C2B11180  13.578  11.748   7.340  0.1977 -0.0063  0.3250
  780POPS   C3B11181  13.746  11.465   7.627  0.0695 -0.0923 -0.0913
  780POPS   C4B11182  14.002  11.091   7.781  0.1727  0.0474 -0.2308
  781POPS   CNO11183  11.734   4.402   5.201  0.0898  0.1456 -0.3078
  781POPS   PO411184  12.178   4.470   5.363 -0.0619 -0.1157 -0.0899
  781POPS   GL111185  12.188   4.512   5.839 -0.2518 -0.1860  0.0420
  781POPS   GL211186  12.423   4.297   6.087  0.1055  0.1178 -0.0231
  781POPS   C1A11187  11.953   4.521   6.263  0.5238 -0.2263  0.0740
  781POPS   D2A11188  12.057   4.239   6.617  0.0649 -0.0915 -0.0135
  781POPS   C3A11189  11.925   4.327   7.075  0.2303  0.0571  0.1524
  781POPS   C4A11190  11.917   4.195   7.493  0.3764  0.1813 -0.1846
  781POPS   C1B11191  12.553   4.168   6.524  0.0521  0.0803  0.3529
  781POPS   C2B11192  12.441   4.229   6.909  0.1952  0.2054  0.0899
  781POPS   C3B11193  12.381   4.365   7.360 -0.2273  0.0294 -0.1119
  781POPS   C4B11194  12.336   4.714   7.759  0.0756  0.1346 -0.0081
  782POPS   CNO11195  11.555  14.567   5.730 -0.0270  0.3486 -0.0590
  782POPS   PO411196  11.955  14.405   5.856 -0.3567 -0.2948 -0.0441
  782POPS   GL111197  11.866  14.381   6.238 -0.0372 -0.1628 -0.2888
  782POPS   GL211198  12.171  14.320   6.330  0.3113 -0.0675 -0.2742
  782POPS   C1A11199  11.796  14.333   6.622  0.4256  0.2899  0.0076
  782POPS   D2A11200  11.955  14.395   7.092  0.0794  0.0071  0.1980
  782POPS   C3A11201  11.764  14.212   7.422 -0.1019 -0.0200 -0.0780
  782POPS   C4A11202  11.702  14.316   7.846 -0.3693 -0.2436  0.1325
  782POPS   C1B11203  12.189  14.143   6.739  0.1786 -0.0733 -0.0259
  782POPS   C2B11204  12.182  13.974   7.155 -0.0591 -0.1834 -0.1627
  782POPS   C3B11205  12.249  14.179   7.435  0.2434 -0.1340 -0.1345
  782POPS   C4B11206  12.088  14.549   7.514 -0.0196  0.1583 -0.1291
  783POPS   CNO11207   5.862   6.950   5.321 -0.2160  0.2636  0.3185
  783POPS   PO411208   6.218   7.170   5.533  0.0366 -0.4435  0.0189
  783POPS   GL111209   6.378   6.974   5.950 -0.1139  0.0188 -0.2610
  783POPS   GL211210   6.499   7.221   6.136 -0.1390  0.0997 -0.1217
  783POPS   C1A11211   6.541   6.563   6.117  0.0952 -0.1504 -0.1636
  783POPS   D2A11212   6.943   6.351   6.079  0.3988 -0.1000 -0.1950
  783POPS   C3A11213   7.129   6.175   6.395 -0.1134  0.2360 -0.2307
  783POPS   C4A11214   7.200   5.825   6.671  0.1994 -0.0553 -0.0737
  783POPS   C1B11215   6.731   6.977   6.329  0.1263 -0.2224  0.1243
  783POPS   C2B11216   6.761   6.577   6.608  0.0409  0.2924 -0.0174
  783POPS   C3B11217   6.572   6.558   6.933 -0.0895  0.0642 -0.1769
  783POPS   C4B11218   6.229   6.730   7.161 -0.1746  0.1080  0.2034
  784POPS   CNO11219   1.348   2.591   4.896  0.1912 -0.0931 -0.2385
  784POPS   PO411220   1.264   2.273   5.194 -0.1124  0.0732 -0.1856
  784POPS   GL111221   1.138   2.346   5.548  0.0746 -0.1115  0.1527
  784POPS   GL211222   0.775   2.216   5.513  0.2223  0.0562 -0.2872
  784POPS   C1A11223   1.056   2.219   5.963  0.0304  0.4087  0.1397
  784POPS   D2A11224   1.074   2.036   6.481  0.1036 -0.0858  0.2629
  784POPS   C3A11225   0.833   1.718   6.624 -0.0540  0.0731 -0.0733
  784POPS   C4A11226   0.953   1.626   6.973 -0.1096  0.0768  0.1712
  784POPS   C1B11227   0.667   1.878   5.855  0.0881 -0.0499  0.0815
  784POPS   C2B11228   0.945   1.626   6.139  0.0080  0.0837 -0.0680
  784POPS   C3B11229   1.165   1.221   6.148 -0.1551  0.1433  0.1395
  784POPS   C4B11230   1.350   0.940   6.391  0.3169 -0.0652 -0.0018
  785POPS   CNO11231  17.820  15.563   5.451 -0.2944  0.2023 -0.2673
  785POPS   PO411232  17.821  15.966   5.659 -0.0672  0.1914 -0.3345
  785POPS   GL111233  17.816  16.101   6.026 -0.0137  0.0997 -0.1229
  785POPS   GL211234  18.113  16.163   6.101  0.0742  0.0359 -0.2555
  785POPS   C1A11235  17.614  15.957   6.338 -0.4957 -0.1978  0.2183
  785POPS   D2A11236  17.643  15.744   6.816 -0.0358  0.2224 -0.1497
  785POPS   C3A11237  17.765  15.266   6.782  0.2989 -0.2155  0.0834
  785POPS   C4A11238  17.759  15.116   6.366 -0.3253  0.0463  0.0803
  785POPS   C1B11239  18.046  16.073   6.521  0.2552  0.1286  0.1098
  785POPS   C2B11240  18.091  16.000   6.988 -0.1005  0.0355 -0.0589
  785POPS   C3B11241  17.950  15.658   7.176  0.0423  0.0178 -0.1803
  785POPS   C4B11242  17.610  15.459   7.239  0.2166 -0.0868 -0.0608
  786POPS   CNO11243  15.204  11.505   5.650  0.1263 -0.0069 -0.0992
  786POPS   PO411244  15.466  11.105   5.626 -0.0482  0.0443  0.1284
  786POPS   GL111245  15.552  11.352   5.970  0.1019 -0.3530 -0.3733
  786POPS   GL211246  15.393  11.383   6.276 -0.0696 -0.1343  0.1314
  786POPS   C1A11247  15.744  11.796   6.028  0.0459  0.1310 -0.0045
  786POPS   D2A11248  16.040  12.090   6.140  0.0371  0.1950 -0.1367
  786POPS   C3A11249  15.946  12.275   6.583  0.0570 -0.0106 -0.0421
  786POPS   C4A11250  15.839  12.372   7.001  0.2957 -0.1397 -0.0922
  786POPS   C1B11251  15.572  11.133   6.640 -0.5527 -0.0019 -0.0805
  786POPS   C2B11252  15.453  11.425   6.874  0.5018 -0.0363  0.0823
  786POPS   C3B11253  15.435  11.773   6.535  0.1628 -0.2000  0.1414
  786POPS   C4B11254  15.258  11.817   6.087 -0.1489  0.3668 -0.1297
  787POPS   CNO11255   4.959   8.883   5.901 -0.0848  0.1305  0.2061
  787POPS   PO411256   4.823   8.561   5.662  0.1588  0.2374  0.0550
  787POPS   GL111257   4.775   8.344   6.069  0.0937  0.0117 -0.0024
  787POPS   GL211258   4.972   8.093   6.120  0.0334  0.1680  0.0406
  787POPS   C1A11259   4.715   8.241   6.544  0.0212 -0.2114  0.0743
  787POPS   D2A11260   4.829   8.179   6.944 -0.3486  0.1445  0.1442
  787POPS   C3A11261   4.652   8.117   7.363  0.1219  0.0265 -0.1250
  787POPS   C4A11262   4.404   7.931   7.724  0.2401  0.0292  0.0867
  787POPS   C1B11263   5.178   8.044   6.601  0.0215 -0.0774 -0.1724
  787POPS   C2B11264   5.340   8.002   7.020  0.2291  0.0246 -0.1143
  787POPS   C3B11265   5.136   8.007   7.417 -0.3389  0.0550 -0.1462
  787POPS   C4B11266   4.935   7.931   7.804 -0.0726  0.1243  0.4685
  788POPS   CNO11267   3.116  15.116   5.711  0.2930 -0.1820 -0.0553
  788POPS   PO411268   3.620  15.163   5.753  0.2604  0.0474  0.1309
  788POPS   GL111269   3.775  15.112   6.143 -0.1965 -0.0697  0.4385
  788POPS   GL211270   3.519  15.228   6.461 -0.2954 -0.3629 -0.0067
  788POPS   C1A11271   4.041  15.149   6.510 -0.0536  0.2333  0.1472
  788POPS   D2A11272   4.098  15.314   6.943  0.1735 -0.1373  0.1423
  788POPS   C3A11273   4.219  15.484   7.402 -0.1524 -0.0785  0.0279
  788POPS   C4A11274   4.090  15.595   7.757 -0.0830  0.0464 -0.0385
  788POPS   C1B11275   3.615  15.139   6.872 -0.1558  0.1108  0.0932
  788POPS   C2B11276   3.523  15.266   7.286 -0.2783  0.0089 -0.1017
  788POPS   C3B11277   3.763  15.168   7.723 -0.1809  0.1472  0.0190
  788POPS   C4B11278   4.129  14.998   7.959 -0.1060  0.1226 -0.2666
  789POPS   CNO11279  16.598  14.260   5.296  0.0901 -0.0765 -0.0153
  789POPS   PO411280  16.387  14.513   5.669 -0.0562 -0.0353  0.2664
  789POPS   GL111281  16.508  14.392   6.038 -0.0165 -0.1807  0.2051
  789POPS   GL211282  16.232  14.391   6.233  0.0787 -0.0906  0.1621
  789POPS   C1A11283  16.631  14.579   6.395  0.0627  0.2583  0.0158
  789POPS   D2A11284  16.948  14.714   6.743  0.0325  0.1508 -0.0309
  789POPS   C3A11285  16.827  14.948   7.055 -0.3931  0.1406 -0.0401
  789POPS   C4A11286  16.496  15.049   7.412  0.1457  0.0298  0.0629
  789POPS   C1B11287  16.125  14.454   6.604  0.0365  0.0454  0.1124
  789POPS   C2B11288  16.060  14.405   7.009 -0.0419  0.0584 -0.0237
  789POPS   C3B11289  15.747  14.286   7.293  0.0675 -0.3828 -0.2450
  789POPS   C4B11290  15.511  14.180   7.569 -0.0141  0.2180  0.0767
  790POPS   CNO11291  18.441  17.275   5.196  0.0115  0.0826 -0.1150
  790POPS   PO411292  18.849  17.172   5.380 -0.0409  0.0192 -0.0166
  790POPS   GL111293  18.915  17.262   5.771 -0.3664 -0.3704  0.1777
  790POPS   GL211294  18.705  17.449   5.965 -0.3586  0.0106  0.2522
  790POPS   C1A11295  18.981  17.105   6.224 -0.0908  0.0754  0.0193
  790POPS   D2A11296  18.815  17.219   6.602  0.0813 -0.0837 -0.0413
  790POPS   C3A11297  18.885  17.341   6.989  0.4141  0.1471  0.0768
  790POPS   C4A11298  19.071  17.596   7.358  0.2270  0.1414 -0.1143
  790POPS   C1B11299  18.554  17.491   6.332  0.0279  0.1443 -0.3140
  790POPS   C2B11300  18.590  17.665   6.766 -0.0490  0.2826 -0.1225
  790POPS   C3B11301  18.646  17.924   7.084  0.1441  0.2066  0.1573
  790POPS   C4B11302  18.669  17.851   7.541  0.1012  0.1374 -0.0137
  791POPS   CNO11303   5.624  12.752   5.667  0.2798 -0.2557 -0.0055
  791POPS   PO411304   5.325  12.841   5.902  0.4442 -0.0409 -0.1533
  791POPS   GL111305   5.487  12.882   6.240  0.0374 -0.0066 -0.0892
  791POPS   GL211306   5.460  13.170   6.419  0.1015 -0.0574 -0.0883
  791POPS   C1A11307   5.327  12.737   6.694 -0.1170 -0.0188 -0.1970
  791POPS   D2A11308   5.211  12.661   7.131  0.2018  0.2613 -0.1465
  791POPS   C3A11309   5.149  12.886   7.411  0.2111 -0.2060  0.2911
  791POPS   C4A11310   5.163  12.806   7.858 -0.1677 -0.0915 -0.1541
  791POPS   C1B11311   5.392  13.237   6.887  0.1000  0.1640  0.2133
  791POPS   C2B11312   5.360  13.338   7.242  0.3640 -0.0446 -0.0796
  791POPS   C3B11313   5.328  13.363   7.658 -0.0856 -0.1226  0.0230
  791POPS   C4B11314   5.319  13.236   8.100 -0.0176  0.1879  0.0422
  792POPS   CNO11315   8.848  10.601   5.944 -0.3381  0.2506  0.0703
  792POPS   PO411316   9.271  10.313   5.962  0.0664 -0.1612 -0.1528
  792POPS   GL111317   9.214  10.339   6.357 -0.0108 -0.0156  0.0821
  792POPS   GL211318   9.136  10.581   6.371 -0.1909 -0.1658  0.2388
  792POPS   C1A11319   9.414  10.328   6.739 -0.0121 -0.0686 -0.0477
  792POPS   D2A11320   9.494  10.526   7.062 -0.0463 -0.0739 -0.0850
  792POPS   C3A11321   9.528  10.393   7.490  0.0025  0.0143  0.0594
  792POPS   C4A11322   9.194  10.219   7.778 -0.1627 -0.2839  0.0665
  792POPS   C1B11323   9.018  10.506   6.894  0.0784  0.1031  0.1965
  792POPS   C2B11324   9.071  10.468   7.337 -0.1132  0.0821 -0.0551
  792POPS   C3B11325   8.789  10.606   7.666 -0.0433 -0.2612 -0.2611
  792POPS   C4B11326   8.825  10.673   8.047 -0.1745  0.0320  0.0799
  793POPS   CNO11327   0.853  13.744   5.732 -0.0458  0.2097 -0.2869
  793POPS   PO411328   0.949  14.126   5.555 -0.3484 -0.0838  0.1585
  793POPS   GL111329   1.078  14.219   5.928  0.1637 -0.0379 -0.4213
  793POPS   GL211330   0.713  14.270   6.051 -0.2403  0.3005  0.0253
  793POPS   C1A11331   1.368  14.028   6.226  0.1639  0.4206 -0.0296
  793POPS   D2A11332   1.473  14.155   6.575  0.1841 -0.1122  0.0633
  793POPS   C3A11333   1.416  13.933   6.989  0.1595  0.1731  0.0298
  793POPS   C4A11334   1.386  13.988   7.339  0.0906  0.2283 -0.3037
  793POPS   C1B11335   0.956  14.311   6.398 -0.0927  0.1665  0.0939
  793POPS   C2B11336   1.112  14.392   6.883  0.1691  0.2110  0.2976
  793POPS   C3B11337   1.282  14.472   7.246 -0.2221  0.2139 -0.0608
  793POPS   C4B11338   1.235  14.552   7.683 -0.1058 -0.0359  0.1377
  794POPS   CNO11339   0.794   8.813   6.020  0.0940 -0.0838 -0.0104
  794POPS   PO411340   0.911   8.485   6.158 -0.0588  0.0464  0.2307
  794POPS   GL111341   1.080   8.323   6.502  0.3268  0.1670  0.0120
  794POPS   GL211342   1.392   8.332   6.491 -0.0739  0.3182  0.0318
  794POPS   C1A11343   1.174   8.478   6.958  0.2021  0.1619 -0.2333
  794POPS   D2A11344   1.420   8.686   7.320  0.0232 -0.1888  0.0152
  794POPS   C3A11345   1.502   9.148   7.448  0.0868  0.0915 -0.0872
  794POPS   C4A11346   1.676   9.529   7.336 -0.1812  0.3227  0.3258
  794POPS   C1B11347   1.837   8.197   6.682 -0.1945  0.1018  0.2273
  794POPS   C2B11348   2.175   8.229   6.879 -0.2055 -0.2127  0.2337
  794POPS   C3B11349   2.380   8.078   7.209  0.1726  0.0018  0.0490
  794POPS   C4B11350   2.720   8.100   7.516  0.0207 -0.3288  0.0529
  795POPS   CNO11351   7.567  16.607   5.601 -0.0007  0.0458  0.1777
  795POPS   PO411352   7.250  16.355   5.596 -0.0193 -0.0506 -0.1498
  795POPS   GL111353   7.407  16.350   5.984 -0.2214 -0.3075  0.0341
  795POPS   GL211354   7.343  16.133   6.221 -0.3309  0.2240  0.0688
  795POPS   C1A11355   7.554  16.532   6.416  0.4158  0.0493  0.3863
  795POPS   D2A11356   7.488  16.861   6.551  0.2842 -0.0536 -0.1082
  795POPS   C3A11357   7.448  16.867   6.969 -0.0286  0.3761 -0.1250
  795POPS   C4A11358   7.413  16.826   7.429  0.4789  0.0433  0.0091
  795POPS   C1B11359   7.442  16.146   6.673 -0.0496  0.1399 -0.4343
  795POPS   C2B11360   7.533  15.887   7.061 -0.1258  0.1613 -0.1901
  795POPS   C3B11361   7.612  15.801   7.531  0.1060  0.0034  0.0628
  795POPS   C4B11362   7.704  15.581   7.864  0.0611  0.5333 -0.4002
  796POPS   CNO11363  17.830   6.274   5.719 -0.3740  0.1760 -0.1529
  796POPS   PO411364  17.900   6.366   6.131  0.3038  0.0050 -0.0710
  796POPS   GL111365  17.855   6.241   6.523  0.0815  0.2651 -0.0639
  796POPS   GL211366  18.241   6.153   6.571 -0.2665 -0.0214  0.0382
  796POPS   C1A11367  17.718   6.089   6.947  0.2383 -0.0367  0.1867
  796POPS   D2A11368  17.721   6.131   7.367  0.1945 -0.1892 -0.2289
  796POPS   C3A11369  17.837   5.803   7.586 -0.0231  0.1560 -0.2509
  796POPS   C4A11370  18.078   5.601   7.874  0.0791  0.1351 -0.0484
  796POPS   C1B11371  18.135   6.453   6.862  0.2376 -0.1082 -0.0179
  796POPS   C2B11372  18.135   6.413   7.186 -0.2918  0.1453  0.1531
  796POPS   C3B11373  18.448   6.498   7.512 -0.0608  0.1531 -0.1076
  796POPS   C4B11374  18.719   6.820   7.704 -0.2923 -0.0780  0.2332
  797POPS   CNO11375   9.099  16.397   5.582 -0.0305  0.1607  0.0431
  797POPS   PO411376   8.864  16.660   5.930  0.0788 -0.5131  0.1955
  797POPS   GL111377   8.591  16.835   6.307 -0.3087  0.2417  0.1197
  797POPS   GL211378   8.785  17.163   6.326 -0.1545  0.0474 -0.1289
  797POPS   C1A11379   8.484  16.936   6.743  0.0659 -0.0763 -0.1990
  797POPS   D2A11380   8.443  16.816   7.215 -0.0603 -0.0899 -0.1013
  797POPS   C3A11381   8.257  16.434   7.319  0.3646 -0.1277 -0.2140
  797POPS   C4A11382   8.012  16.158   7.535  0.0784  0.0140  0.1127
  797POPS   C1B11383   8.825  17.315   6.715 -0.0622 -0.0036  0.0566
  797POPS   C2B11384   9.026  17.588   7.027  0.1268 -0.1527 -0.2699
  797POPS   C3B11385   8.894  17.549   7.465  0.1811 -0.2826 -0.0692
  797POPS   C4B11386   8.841  17.686   7.936 -0.0825  0.0606  0.1480
  798POPS   CNO11387  18.439   8.780   6.037  0.2159  0.0250  0.3348
  798POPS   PO411388  18.435   8.300   6.202 -0.1613 -0.2533  0.0028
  798POPS   GL111389  18.670   8.022   6.531 -0.3146 -0.2174 -0.4746
  798POPS   GL211390  18.927   8.067   6.690  0.0327 -0.2035  0.3399
  798POPS   C1A11391  18.495   7.769   6.753  0.1168  0.0161 -0.2898
  798POPS   D2A11392  18.513   7.658   7.216 -0.2229 -0.3305 -0.1401
  798POPS   C3A11393  18.431   7.726   7.611  0.0874  0.0286  0.1322
  798POPS   C4A11394  18.188   7.995   7.888  0.0483 -0.1304  0.1390
  798POPS   C1B11395  18.652   8.480   6.814 -0.1045 -0.0697 -0.1029
  798POPS   C2B11396  18.688   8.855   6.944  0.0832  0.0176  0.2049
  798POPS   C3B11397  18.769   8.918   7.370 -0.1502  0.1046 -0.0168
  798POPS   C4B11398  18.729   8.903   7.830  0.0594 -0.2346  0.1621
  799POPS   CNO11399   9.099   0.961   5.453  0.0787  0.0378 -0.3900
  799POPS   PO411400   9.265   1.257   5.696 -0.0357 -0.0053 -0.0488
  799POPS   GL111401   9.086   1.259   6.160 -0.0829 -0.3069  0.3054
  799POPS   GL211402   8.770   1.354   6.345 -0.5724  0.2904 -0.0390
  799POPS   C1A11403   9.241   1.517   6.399  0.0020  0.1569  0.0492
  799POPS   D2A11404   9.187   1.498   6.823  0.3550  0.0059  0.1746
  799POPS   C3A11405   9.149   1.825   7.112 -0.2160 -0.0775 -0.1687
  799POPS   C4A11406   9.106   1.682   7.465 -0.1919 -0.0404  0.0340
  799POPS   C1B11407   8.659   1.472   6.702 -0.0988 -0.0907  0.1209
  799POPS   C2B11408   8.510   1.586   7.061 -0.3141 -0.1231 -0.3224
  799POPS   C3B11409   8.656   1.911   7.297  0.1067 -0.2669 -0.0203
  799POPS   C4B11410   9.028   2.144   7.589 -0.3297 -0.2229 -0.1396
  800POPS   CNO11411   7.844   4.518   4.916 -0.3298 -0.1697  0.2919
  800POPS   PO411412   8.117   4.351   5.131 -0.0903 -0.1356 -0.0522
  800POPS   GL111413   8.508   4.508   5.469  0.3433 -0.0361 -0.0612
  800POPS   GL211414   8.452   4.739   5.750  0.1334  0.0607 -0.3468
  800POPS   C1A11415   8.782   4.326   5.842  0.1380  0.0994 -0.3529
  800POPS   D2A11416   8.900   3.959   6.071 -0.0115 -0.1808 -0.1823
  800POPS   C3A11417   8.464   3.789   6.200  0.0839 -0.0526 -0.1528
  800POPS   C4A11418   8.086   3.966   6.107  0.0648  0.2922 -0.1379
  800POPS   C1B11419   8.374   4.448   6.132  0.0464  0.0136 -0.0727
  800POPS   C2B11420   8.501   4.207   6.496 -0.0199  0.0882  0.2584
  800POPS   C3B11421   8.654   4.123   6.891 -0.4275  0.0256 -0.1471
  800POPS   C4B11422   8.700   3.895   7.330 -0.1653 -0.2778  0.1660
  801POPS   CNO11423  14.585   9.590   5.071 -0.3284  0.0721 -0.1617
  801POPS   PO411424  14.592   9.613   5.485 -0.5845 -0.0585  0.0756
  801POPS   GL111425  14.554   9.529   5.840 -0.0758 -0.1037 -0.0559
  801POPS   GL211426  14.400   9.752   6.060  0.2684  0.0247  0.0057
  801POPS   C1A11427  14.617   9.128   6.062 -0.2286  0.1778  0.1227
  801POPS   D2A11428  14.823   8.733   6.118  0.1951  0.3461 -0.3109
  801POPS   C3A11429  14.827   8.654   6.595  0.0495 -0.1754  0.2573
  801POPS   C4A11430  14.690   8.365   6.829  0.4198  0.1740  0.1258
  801POPS   C1B11431  14.613   9.574   6.361 -0.2059 -0.0470 -0.0830
  801POPS   C2B11432  14.633   9.520   6.804  0.1055 -0.0410  0.2544
  801POPS   C3B11433  14.603   9.369   7.239 -0.3601  0.3559  0.0001
  801POPS   C4B11434  14.783   9.040   7.582 -0.0963 -0.2961  0.0100
  802POPS   CNO11435   5.713   7.888   5.330 -0.3045  0.2926  0.0413
  802POPS   PO411436   5.527   8.223   5.567 -0.2622  0.0489  0.1788
  802POPS   GL111437   5.704   8.463   5.933  0.0752 -0.1250 -0.0880
  802POPS   GL211438   5.374   8.394   5.962 -0.2238 -0.0923 -0.1234
  802POPS   C1A11439   5.627   8.373   6.416  0.0151 -0.0672  0.0313
  802POPS   D2A11440   5.730   8.250   6.811  0.0143 -0.0822 -0.1597
  802POPS   C3A11441   6.177   8.267   6.700 -0.1315  0.2202 -0.0861
  802POPS   C4A11442   6.547   8.101   6.544  0.1948 -0.0587  0.1553
  802POPS   C1B11443   5.203   8.604   6.332  0.1633 -0.1213 -0.3614
  802POPS   C2B11444   5.206   8.493   6.800  0.2443  0.1379 -0.2141
  802POPS   C3B11445   5.420   8.528   7.160  0.1559 -0.0631 -0.1556
  802POPS   C4B11446   5.082   8.484   7.507  0.0663 -0.2374  0.5037
  803POPS   CNO11447  15.188   2.874   5.579  0.0912  0.1577 -0.2389
  803POPS   PO411448  14.847   3.133   5.613  0.0547 -0.0633  0.0249
  803POPS   GL111449  14.862   3.105   5.986  0.0784  0.0416 -0.0637
  803POPS   GL211450  15.167   3.012   6.154  0.2062  0.0992 -0.2562
  803POPS   C1A11451  14.673   3.285   6.328  0.0361 -0.0346 -0.1668
  803POPS   D2A11452  14.467   3.350   6.755 -0.0628 -0.2858 -0.2057
  803POPS   C3A11453  14.418   3.728   7.089 -0.0469 -0.0650 -0.1168
  803POPS   C4A11454  14.255   3.837   7.464 -0.1033  0.3175 -0.5940
  803POPS   C1B11455  15.303   3.198   6.594  0.1180  0.0778 -0.0639
  803POPS   C2B11456  15.470   3.544   6.713  0.1672 -0.2051 -0.3804
  803POPS   C3B11457  15.315   3.871   6.629 -0.1800  0.0943 -0.0358
  803POPS   C4B11458  15.262   4.283   6.581 -0.5774  0.0213  0.1992
  804POPS   CNO11459  15.344   4.221   5.631  0.0603  0.2576 -0.1442
  804POPS   PO411460  15.270   4.690   5.664  0.1448  0.0193 -0.1237
  804POPS   GL111461  15.723   4.552   5.808  0.2125 -0.1235 -0.1905
  804POPS   GL211462  15.834   4.267   5.858 -0.1266 -0.1680  0.0818
  804POPS   C1A11463  16.009   4.665   6.168 -0.2257  0.2921 -0.0928
  804POPS   D2A11464  16.424   4.705   6.329  0.2577 -0.0357 -0.1971
  804POPS   C3A11465  16.542   4.621   6.809  0.2718  0.2779 -0.0508
  804POPS   C4A11466  16.728   4.272   6.934 -0.1677  0.1164  0.2422
  804POPS   C1B11467  15.675   4.269   6.182  0.1463 -0.1599 -0.2870
  804POPS   C2B11468  15.734   4.416   6.589 -0.2950  0.1390 -0.4198
  804POPS   C3B11469  15.626   4.345   7.042  0.1880 -0.1153 -0.1013
  804POPS   C4B11470  15.396   4.510   7.442  0.0295 -0.2875  0.1744
  805POPS   CNO11471  12.612  14.025   5.658  0.1203  0.1549  0.1386
  805POPS   PO411472  12.260  14.009   5.970 -0.0085 -0.2836 -0.1326
  805POPS   GL111473  12.133  13.843   6.338  0.0082  0.1195  0.0896
  805POPS   GL211474  11.860  13.902   6.394  0.3815  0.0063  0.1934
  805POPS   C1A11475  12.342  13.584   6.655 -0.5211 -0.3414  0.1453
  805POPS   D2A11476  12.474  13.597   7.034  0.0704  0.2634 -0.0718
  805POPS   C3A11477  12.330  13.605   7.443 -0.0158  0.0019 -0.2195
  805POPS   C4A11478  12.158  13.791   7.750 -0.0273  0.4070 -0.0448
  805POPS   C1B11479  11.837  13.804   6.820 -0.1609 -0.1741 -0.0091
  805POPS   C2B11480  11.774  13.692   7.209  0.3865 -0.0551 -0.0759
  805POPS   C3B11481  11.740  13.371   7.445 -0.1336  0.1531 -0.4719
  805POPS   C4B11482  11.837  13.343   7.872 -0.0118  0.2802 -0.0883
  806POPS   CNO11483  12.008  10.517   5.471 -0.0663 -0.1683 -0.0994
  806POPS   PO411484  11.765  10.282   5.371 -0.0864 -0.0763 -0.1023
  806POPS   GL111485  11.453  10.344   5.714 -0.0099  0.1058  0.2100
  806POPS   GL211486  11.663  10.256   5.939 -0.3311 -0.2219 -0.0499
  806POPS   C1A11487  11.384  10.586   6.146  0.2337  0.0545 -0.0949
  806POPS   D2A11488  11.264  10.661   6.487  0.0388 -0.1939  0.1362
  806POPS   C3A11489  11.032  10.563   6.771  0.1396 -0.0554 -0.0323
  806POPS   C4A11490  11.012  10.280   7.090 -0.7306 -0.1715 -0.2136
  806POPS   C1B11491  11.778  10.287   6.314 -0.3048 -0.2309  0.1829
  806POPS   C2B11492  11.715  10.477   6.682 -0.1590 -0.0396 -0.4268
  806POPS   C3B11493  11.422  10.498   7.114 -0.2230  0.3381 -0.1788
  806POPS   C4B11494  11.474  10.431   7.576 -0.0920  0.2651  0.1278
  807POPS   CNO11495   6.456   9.840   5.697 -0.0422 -0.1398 -0.1541
  807POPS   PO411496   6.530  10.094   6.038  0.2468  0.2561 -0.0280
  807POPS   GL111497   6.707  10.181   6.362 -0.0651 -0.1012 -0.0749
  807POPS   GL211498   6.463  10.280   6.559 -0.0160  0.0294  0.0834
  807POPS   C1A11499   6.890  10.157   6.748  0.2186  0.1326 -0.0506
  807POPS   D2A11500   6.683  10.133   7.143  0.0267  0.1501  0.3690
  807POPS   C3A11501   6.752   9.936   7.486 -0.2031 -0.1370  0.1838
  807POPS   C4A11502   7.032   9.896   7.732  0.0522  0.2874 -0.2001
  807POPS   C1B11503   6.203  10.187   6.977  0.2414 -0.0989  0.2005
  807POPS   C2B11504   6.218  10.005   7.335 -0.2680 -0.1355 -0.1936
  807POPS   C3B11505   6.293   9.752   7.738  0.0966  0.2973  0.0490
  807POPS   C4B11506   6.617   9.951   8.058 -0.1431 -0.1516 -0.1027
  808POPS   CNO11507  12.823  10.802   5.430  0.1077  0.2087  0.0568
  808POPS   PO411508  12.835  11.280   5.594 -0.2988  0.3111 -0.2400
  808POPS   GL111509  12.689  11.348   6.008 -0.0601  0.0125  0.0817
  808POPS   GL211510  12.917  11.400   6.225 -0.1641  0.1922 -0.0500
  808POPS   C1A11511  12.416  11.092   6.253  0.0527  0.0968 -0.1178
  808POPS   D2A11512  11.976  10.778   6.319 -0.1858  0.0755  0.0300
  808POPS   C3A11513  11.610  10.984   6.610 -0.0072  0.0034 -0.0121
  808POPS   C4A11514  11.333  10.939   6.926  0.3622 -0.1743  0.2010
  808POPS   C1B11515  12.907  11.168   6.609  0.3228 -0.1868 -0.1095
  808POPS   C2B11516  13.044  10.997   7.113 -0.1716 -0.2110  0.2363
  808POPS   C3B11517  12.871  10.852   7.569  0.1757  0.1909 -0.0913
  808POPS   C4B11518  12.680  10.558   7.766 -0.2820  0.0127 -0.0409
  809POPS   CNO11519  14.170   7.169   5.389 -0.0754  0.0399  0.1022
  809POPS   PO411520  14.033   6.930   5.784 -0.2161 -0.3591 -0.1545
  809POPS   GL111521  13.830   7.096   6.116 -0.2948  0.1835 -0.0727
  809POPS   GL211522  13.994   7.403   6.252  0.0273 -0.2856  0.0082
  809POPS   C1A11523  13.655   7.138   6.541  0.1396 -0.1577  0.2281
  809POPS   D2A11524  13.561   7.107   6.978  0.0576 -0.1333  0.0598
  809POPS   C3A11525  13.805   7.163   7.291 -0.0909  0.0334  0.0337
  809POPS   C4A11526  14.136   7.259   7.575 -0.0048 -0.3420  0.0498
  809POPS   C1B11527  13.967   7.510   6.638 -0.1327  0.1811 -0.3862
  809POPS   C2B11528  14.101   7.530   7.007 -0.2957  0.1473 -0.0347
  809POPS   C3B11529  13.844   7.650   7.388  0.3501  0.2314 -0.0855
  809POPS   C4B11530  13.747   8.003   7.774 -0.2020  0.0395  0.0193
  810POPS   CNO11531  10.942  14.429   5.951  0.0834  0.2008  0.2316
  810POPS   PO411532  10.599  14.624   5.694 -0.2001  0.1281  0.0849
  810POPS   GL111533  10.343  14.515   6.119  0.0356  0.0205 -0.0880
  810POPS   GL211534  10.423  14.768   6.301 -0.1175  0.0952  0.2691
  810POPS   C1A11535  10.254  14.222   6.323  0.0689  0.0305  0.1357
  810POPS   D2A11536  10.526  13.945   6.552  0.2969  0.0194  0.2478
  810POPS   C3A11537  10.415  13.704   6.923 -0.3015 -0.0805 -0.0560
  810POPS   C4A11538  10.333  13.376   7.185  0.0130  0.1645 -0.1854
  810POPS   C1B11539  10.346  14.911   6.706 -0.4452 -0.4561  0.1139
  810POPS   C2B11540  10.285  15.059   7.126 -0.2347 -0.2692  0.2678
  810POPS   C3B11541  10.408  15.307   7.447 -0.0569  0.2810  0.1666
  810POPS   C4B11542  10.688  15.453   7.563 -0.1078 -0.0405 -0.2124
  811POPS   CNO11543   8.788  15.506   5.120 -0.4373  0.1209  0.2863
  811POPS   PO411544   8.805  15.247   5.579  0.1673 -0.2829 -0.0768
  811POPS   GL111545   9.032  15.243   5.916  0.0689 -0.2552 -0.2315
  811POPS   GL211546   8.974  14.968   6.056  0.2222 -0.0266  0.1328
  811POPS   C1A11547   9.266  15.316   6.270 -0.1562  0.2617  0.1065
  811POPS   D2A11548   9.483  15.075   6.466 -0.3598 -0.1129 -0.2239
  811POPS   C3A11549   9.426  15.049   6.902 -0.4270 -0.0763  0.2519
  811POPS   C4A11550   9.467  14.873   7.333  0.0273 -0.1786  0.3038
  811POPS   C1B11551   8.944  15.007   6.539 -0.2292  0.3326  0.1586
  811POPS   C2B11552   8.938  14.982   6.916  0.0230  0.1646  0.2132
  811POPS   C3B11553   8.923  14.941   7.348  0.0732  0.0006 -0.1140
  811POPS   C4B11554   9.070  14.741   7.728 -0.0369  0.1005 -0.3003
  812YOPS   CNO11555  12.500   8.415   5.468  0.0289  0.0892 -0.0601
  812YOPS   PO411556  12.177   8.193   5.624  0.2115 -0.4152  0.2338
  812YOPS   GL111557  12.312   8.251   5.987 -0.1842  0.0219 -0.0076
  812YOPS   GL211558  12.424   8.563   5.948  0.0031  0.5287  0.1207
  812YOPS   C1A11559  12.267   8.258   6.405  0.2824  0.3752 -0.0409
  812YOPS   D2A11560  12.247   8.391   6.839 -0.0842 -0.0294 -0.1296
  812YOPS   C3A11561  12.217   8.211   7.240  0.1304  0.1832 -0.3776
  812YOPS   C4A11562  12.186   8.400   7.576 -0.2938  0.0494 -0.0124
  812YOPS   C1B11563  12.798   8.898   5.953 -0.0020 -0.1415 -0.2453
  812YOPS   C2B11564  13.160   8.935   6.334 -0.1071  0.5056 -0.0723
  812YOPS   D3B11565  13.381   8.776   6.719 -0.1372 -0.1251  0.0080
  812YOPS   C4B11566  13.408   8.993   7.086 -0.0486 -0.0209  0.2220
  813YOPS   CNO11567  11.209  13.133   5.497  0.0391  0.0123  0.1003
  813YOPS   PO411568  10.873  12.902   5.578 -0.1038 -0.0608  0.2592
  813YOPS   GL111569  10.815  12.559   5.861 -0.0853  0.3414  0.2068
  813YOPS   GL211570  10.625  12.748   6.045 -0.0089 -0.0245 -0.1361
  813YOPS   C1A11571  11.051  12.228   6.005 -0.1093  0.0869  0.0772
  813YOPS   D2A11572  11.243  12.282   6.430  0.3439  0.0654 -0.2588
  813YOPS   C3A11573  11.620  12.236   6.684 -0.2473  0.0495 -0.1866
  813YOPS   C4A11574  11.722  12.005   7.085  0.1501  0.0114  0.2935
  813YOPS   C1B11575  10.868  12.740   6.445  0.0855  0.0596 -0.1802
  813YOPS   C2B11576  11.120  12.660   6.773  0.1806  0.0795  0.2025
  813YOPS   D3B11577  11.477  12.571   7.113  0.2579 -0.0543  0.1044
  813YOPS   C4B11578  11.348  12.343   7.408  0.0048 -0.0229 -0.4137
  814YOPS   CNO11579   6.314   1.174   4.942 -0.1689  0.3314 -0.3255
  814YOPS   PO411580   6.002   1.360   5.309 -0.0006  0.4624 -0.2983
  814YOPS   GL111581   5.902   1.525   5.679 -0.5256  0.1489 -0.3537
  814YOPS   GL211582   6.127   1.367   5.917 -0.1086  0.3358  0.4928
  814YOPS   C1A11583   5.717   1.597   6.066  0.0810  0.0432  0.1442
  814YOPS   D2A11584   5.416   1.554   6.268  0.1893 -0.0491  0.0025
  814YOPS   C3A11585   4.957   1.700   6.270 -0.0489 -0.4541  0.1007
  814YOPS   C4A11586   4.853   1.774   6.663  0.0862  0.0832  0.0926
  814YOPS   C1B11587   6.203   1.274   6.309 -0.1219 -0.1530 -0.2968
  814YOPS   C2B11588   6.269   1.135   6.739 -0.1948  0.2500 -0.0555
  814YOPS   D3B11589   6.430   1.221   7.146 -0.0811 -0.1131 -0.1671
  814YOPS   C4B11590   6.821   1.338   7.193 -0.1223 -0.1580  0.0306
  815YOPS   CNO11591   9.278  14.459   5.324 -0.0402 -0.1800 -0.1108
  815YOPS   PO411592   8.925  14.553   5.322  0.3720  0.3723 -0.2454
  815YOPS   GL111593   8.979  14.536   5.791 -0.2560  0.0527  0.4647
  815YOPS   GL211594   8.684  14.309   5.933 -0.0583 -0.1347 -0.3150
  815YOPS   C1A11595   8.955  14.558   6.261 -0.2085 -0.0239 -0.0500
  815YOPS   D2A11596   8.783  14.518   6.651  0.0743  0.4968 -0.2003
  815YOPS   C3A11597   8.811  14.457   7.093  0.0243  0.3572  0.0036
  815YOPS   C4A11598   8.595  14.201   7.216 -0.1035  0.2282  0.1145
  815YOPS   C1B11599   8.580  14.166   6.366  0.2572 -0.0840 -0.2057
  815YOPS   C2B11600   8.641  13.957   6.697 -0.1134 -0.0912  0.2268
  815YOPS   D3B11601   8.473  13.701   7.081  0.1617  0.0855  0.0386
  815YOPS   C4B11602   8.143  13.888   7.418 -0.1052  0.0496 -0.0381
  816YOPS   CNO11603   5.443  15.172   5.743  0.0780  0.1372  0.0684
  816YOPS   PO411604   5.602  14.717   5.872  0.0072 -0.0532 -0.1740
  816YOPS   GL111605   5.529  14.576   6.298  0.0942 -0.1343 -0.1175
  816YOPS   GL211606   5.836  14.559   6.357 -0.1976 -0.0844  0.0076
  816YOPS   C1A11607   5.480  14.591   6.738  0.3491 -0.3470  0.3221
  816YOPS   D2A11608   5.408  14.742   7.119 -0.0163 -0.1727 -0.0662
  816YOPS   C3A11609   5.436  14.744   7.521  0.1585  0.2737  0.3481
  816YOPS   C4A11610   5.121  14.793   7.901  0.0349  0.1487  0.0053
  816YOPS   C1B11611   5.827  14.241   6.728  0.0193 -0.1061 -0.0339
  816YOPS   C2B11612   6.100  14.201   7.150  0.2775  0.1289 -0.1251
  816YOPS   D3B11613   6.322  14.108   7.545 -0.2216  0.0226 -0.2951
  816YOPS   C4B11614   6.725  14.373   7.628 -0.0105 -0.0117  0.0358
  817YOPS   CNO11615  13.373  11.607   5.332 -0.1774 -0.2967  0.0688
  817YOPS   PO411616  13.705  11.468   5.590 -0.0376  0.1978  0.0433
  817YOPS   GL111617  13.918  11.541   5.913 -0.0057  0.0716  0.1370
  817YOPS   GL211618  14.269  11.493   5.969  0.0344 -0.3737 -0.0241
  817YOPS   C1A11619  14.003  11.350   6.386 -0.0600 -0.0846  0.0921
  817YOPS   D2A11620  14.055  11.348   6.793 -0.1855  0.1403  0.0670
  817YOPS   C3A11621  13.928  11.320   7.112 -0.1915  0.0812  0.1249
  817YOPS   C4A11622  14.187  11.339   7.389 -0.2791  0.0739  0.1715
  817YOPS   C1B11623  14.391  11.680   6.278  0.0739 -0.2226  0.1082
  817YOPS   C2B11624  14.581  11.801   6.651  0.0941 -0.0601 -0.2723
  817YOPS   D3B11625  14.759  12.009   7.035 -0.0937  0.1445 -0.3462
  817YOPS   C4B11626  14.558  12.044   7.450 -0.0975  0.2186  0.0129
  818YOPS   CNO11627  17.116   5.807   6.042 -0.1317  0.1640 -0.1164
  818YOPS   PO411628  17.420   5.485   5.869 -0.0696  0.1473 -0.1228
  818YOPS   GL111629  17.408   5.422   6.295 -0.1375  0.0132  0.1261
  818YOPS   GL211630  17.232   5.633   6.480 -0.0522  0.1787  0.0895
  818YOPS   C1A11631  17.756   5.246   6.658 -0.2017  0.0782 -0.1110
  818YOPS   D2A11632  17.775   4.757   6.980 -0.1207  0.2258 -0.0736
  818YOPS   C3A11633  17.801   4.332   6.992 -0.1217  0.0513  0.0901
  818YOPS   C4A11634  17.807   4.101   6.695 -0.0914  0.0645  0.0708
  818YOPS   C1B11635  17.308   5.722   6.896  0.0340 -0.0822  0.0780
  818YOPS   C2B11636  17.379   5.731   7.348  0.2702 -0.0485 -0.2572
  818YOPS   D3B11637  17.326   5.787   7.758 -0.4460  0.0636  0.2210
  818YOPS   C4B11638  17.209   5.516   8.003  0.0154 -0.0919 -0.1070
  819YOPS   CNO11639   4.275  12.454   5.866  0.2004 -0.2090  0.1962
  819YOPS   PO411640   3.912  12.455   5.854  0.0723 -0.0701 -0.0399
  819YOPS   GL111641   4.028  12.906   5.993  0.0617 -0.0828  0.2667
  819YOPS   GL211642   4.379  12.990   5.889 -0.0987 -0.1218 -0.1273
  819YOPS   C1A11643   3.954  12.940   6.349 -0.0502  0.4833  0.0800
  819YOPS   D2A11644   3.920  13.146   6.791 -0.0642  0.0625  0.0855
  819YOPS   C3A11645   4.137  13.042   7.124 -0.0768  0.0381 -0.0039
  819YOPS   C4A11646   3.845  12.989   7.411  0.2614 -0.1001  0.2160
  819YOPS   C1B11647   4.482  12.907   6.327 -0.0199 -0.2417 -0.1203
  819YOPS   C2B11648   4.400  12.919   6.710  0.1529 -0.1375  0.1869
  819YOPS   D3B11649   4.287  12.652   6.917  0.0971 -0.1251 -0.0965
  819YOPS   C4B11650   4.412  12.296   6.829 -0.0917 -0.1268 -0.2908
  820YOPS   CNO11651   0.186  11.875   5.692 -0.1149  0.0276 -0.0866
  820YOPS   PO411652   0.081  12.190   5.938  0.0404 -0.1282  0.0858
  820YOPS   GL111653   0.177  11.937   6.233 -0.4660  0.2073  0.0582
  820YOPS   GL211654   0.439  11.619   6.305 -0.2932 -0.4153  0.0032
  820YOPS   C1A11655   0.285  11.894   6.657  0.0890 -0.1516  0.0352
  820YOPS   D2A11656   0.390  11.722   7.102 -0.3231 -0.0755 -0.1158
  820YOPS   C3A11657   0.708  11.768   7.397  0.0551  0.4608  0.1480
  820YOPS   C4A11658   0.895  12.128   7.603 -0.1412 -0.0692  0.1336
  820YOPS   C1B11659   0.578  11.469   6.613  0.0956 -0.1813 -0.2524
  820YOPS   C2B11660   0.949  11.306   6.855  0.1005  0.4324 -0.1546
  820YOPS   D3B11661   1.072  11.389   7.219 -0.0574  0.2535 -0.3217
  820YOPS   C4B11662   1.048  11.516   7.623 -0.0480  0.0414  0.1513
  821YOPS   CNO11663   0.116   1.049   5.809  0.0075 -0.1341 -0.0876
  821YOPS   PO411664   0.311   0.755   5.503  0.0096 -0.1658  0.1395
  821YOPS   GL111665   0.315   0.574   6.013  0.1042 -0.2483  0.2139
  821YOPS   GL211666   0.553   0.409   6.193 -0.0817 -0.1182 -0.0051
  821YOPS   C1A11667   0.342   0.874   6.261 -0.2486 -0.0986 -0.0182
  821YOPS   D2A11668   0.391   0.890   6.740 -0.4527 -0.0293 -0.1525
  821YOPS   C3A11669   0.328   0.885   7.225 -0.0300  0.0983  0.0013
  821YOPS   C4A11670   0.009   1.226   7.375  0.1786  0.0556 -0.0981
  821YOPS   C1B11671   0.680   0.496   6.631  0.1530  0.0369 -0.2507
  821YOPS   C2B11672   1.112   0.734   6.771  0.2554  0.1223 -0.0609
  821YOPS   D3B11673   1.349   0.653   7.126  0.3256 -0.0993 -0.2606
  821YOPS   C4B11674   1.406   0.912   7.407  0.0374  0.1596 -0.0732
  822YOPS   CNO11675   2.911   2.290   5.355 -0.2999 -0.3797  0.0543
  822YOPS   PO411676   2.634   2.465   5.687  0.1623 -0.0755 -0.0296
  822YOPS   GL111677   2.584   2.504   6.184  0.1825 -0.0425 -0.0477
  822YOPS   GL211678   2.895   2.447   6.220 -0.0387  0.0547  0.1041
  822YOPS   C1A11679   2.639   2.513   6.609  0.2095 -0.3453  0.1586
  822YOPS   D2A11680   2.846   2.419   6.883  0.1746  0.2637  0.1664
  822YOPS   C3A11681   3.143   2.357   7.119 -0.1052 -0.1539 -0.2668
  822YOPS   C4A11682   3.332   2.215   7.531  0.1733 -0.1846  0.0011
  822YOPS   C1B11683   3.120   2.401   6.449 -0.0009 -0.1148  0.2365
  822YOPS   C2B11684   3.372   2.149   6.742  0.2628  0.1198  0.1730
  822YOPS   D3B11685   3.525   1.977   7.142  0.1570  0.1867 -0.0879
  822YOPS   C4B11686   3.261   1.686   7.335 -0.1809 -0.2558 -0.0072
  823YOPS   CNO11687  13.353  10.682   5.945  0.2800  0.3019 -0.1461
  823YOPS   PO411688  12.962  10.892   5.872 -0.1081 -0.0209 -0.0030
  823YOPS   GL111689  12.929  10.879   6.181 -0.2235  0.1182 -0.0696
  823YOPS   GL211690  12.692  10.600   6.184 -0.1398 -0.0216 -0.0457
  823YOPS   C1A11691  13.057  10.663   6.602 -0.2457  0.1074  0.1402
  823YOPS   D2A11692  12.965  10.503   7.114  0.1912 -0.0861  0.1768
  823YOPS   C3A11693  12.870  10.203   7.535 -0.0585 -0.0856  0.1015
  823YOPS   C4A11694  13.277  10.127   7.660  0.3337  0.0275  0.0760
  823YOPS   C1B11695  12.571  10.813   6.619 -0.0055 -0.0856  0.0852
  823YOPS   C2B11696  12.441  10.851   7.035 -0.0445  0.0232  0.4209
  823YOPS   D3B11697  12.287  10.802   7.428  0.1342 -0.1243  0.1746
  823YOPS   C4B11698  12.440  11.046   7.706  0.1223 -0.1455 -0.0973
  824YOPS   CNO11699   7.618  18.195   5.396  0.0834  0.1366 -0.1009
  824YOPS   PO411700   7.616  18.469   5.754 -0.1966 -0.2213  0.1016
  824YOPS   GL111701   7.371  18.390   6.121 -0.0619 -0.0566 -0.2037
  824YOPS   GL211702   7.323  18.694   6.292  0.2217  0.1986  0.0818
  824YOPS   C1A11703   7.269  18.251   6.549  0.2613  0.4107 -0.1718
  824YOPS   D2A11704   7.198  18.401   6.927  0.1731 -0.0351  0.0517
  824YOPS   C3A11705   7.098  18.492   7.261  0.2795  0.0376 -0.0615
  824YOPS   C4A11706   7.207  18.456   7.581  0.0699 -0.1751  0.0593
  824YOPS   C1B11707   7.618  18.669   6.721 -0.0579 -0.2075  0.1111
  824YOPS   C2B11708   7.711  18.672   7.168  0.2278  0.1451 -0.1833
  824YOPS   D3B11709   7.515  18.983   7.433  0.1243  0.3077 -0.0069
  824YOPS   C4B11710   7.534  18.753   7.868 -0.1095 -0.1796  0.0097
  825YOPS   CNO11711   7.106   0.261   5.844 -0.1646 -0.0552 -0.2251
  825YOPS   PO411712   6.805   0.414   5.604  0.1864 -0.2637  0.0861
  825YOPS   GL111713   6.574   0.392   6.055  0.2852  0.1658 -0.1948
  825YOPS   GL211714   6.805   0.300   6.248  0.0376 -0.1926  0.2216
  825YOPS   C1A11715   6.306   0.501   6.300  0.1044  0.1682 -0.2771
  825YOPS   D2A11716   6.192   0.573   6.839  0.2087  0.2427 -0.0326
  825YOPS   C3A11717   6.232   0.759   7.312 -0.1005  0.3205  0.1751
  825YOPS   C4A11718   6.009   0.687   7.713 -0.1055 -0.2041 -0.0020
  825YOPS   C1B11719   6.900   0.235   6.603 -0.2477  0.3686 -0.0345
  825YOPS   C2B11720   6.727   0.250   6.954  0.1545  0.1152 -0.3320
  825YOPS   D3B11721   6.405   0.356   7.216 -0.3139  0.0874  0.0109
  825YOPS   C4B11722   6.087   0.212   7.390  0.0566  0.1485 -0.0027
  826YOPS   CNO11723   4.987   3.900   5.464  0.1948 -0.0325 -0.2463
  826YOPS   PO411724   4.649   3.529   5.580 -0.0670 -0.0448  0.2187
  826YOPS   GL111725   4.666   3.855   5.945  0.0263  0.0001 -0.2878
  826YOPS   GL211726   5.064   3.911   6.028 -0.0273 -0.0486  0.0104
  826YOPS   C1A11727   4.490   4.205   6.186  0.1615  0.0986 -0.0355
  826YOPS   D2A11728   4.366   4.221   6.680 -0.1452  0.1723 -0.1553
  826YOPS   C3A11729   4.128   4.368   6.998 -0.1379  0.1152  0.1114
  826YOPS   C4A11730   4.122   4.131   7.302  0.2222 -0.1744 -0.3352
  826YOPS   C1B11731   5.045   3.997   6.490 -0.1314  0.0254  0.2635
  826YOPS   C2B11732   5.033   3.979   6.928 -0.0055  0.0296 -0.0254
  826YOPS   D3B11733   5.247   4.068   7.387 -0.1823  0.1343 -0.1205
  826YOPS   C4B11734   5.078   4.411   7.452 -0.0450  0.0697  0.0997
  827YOPS   CNO11735   6.619   2.559   5.130 -0.0086 -0.0093  0.2888
  827YOPS   PO411736   6.826   2.146   5.307  0.0939  0.2520  0.0505
  827YOPS   GL111737   6.939   1.963   5.736  0.2216 -0.1403  0.0554
  827YOPS   GL211738   6.881   2.226   5.927  0.0762  0.0506  0.0345
  827YOPS   C1A11739   6.892   1.794   6.166 -0.0042  0.0195 -0.1057
  827YOPS   D2A11740   6.801   1.864   6.572 -0.2159 -0.0065  0.0237
  827YOPS   C3A11741   7.119   1.678   6.921 -0.2464  0.0729  0.1450
  827YOPS   C4A11742   7.022   1.823   7.420  0.4541 -0.1115 -0.1015
  827YOPS   C1B11743   6.634   2.269   6.318  0.2916 -0.0578  0.4088
  827YOPS   C2B11744   6.672   2.533   6.629  0.0817 -0.0200 -0.1085
  827YOPS   D3B11745   6.780   2.798   6.992  0.1443 -0.0124 -0.1672
  827YOPS   C4B11746   7.145   3.068   6.914  0.2297  0.1064  0.2284
  828YOPS   CNO11747   6.631   9.353   5.666  0.0563 -0.2901 -0.1355
  828YOPS   PO411748   6.883   9.465   5.764  0.1824 -0.1579 -0.0151
  828YOPS   GL111749   6.828   9.181   6.164  0.1165  0.2304 -0.1738
  828YOPS   GL211750   6.461   9.136   6.170 -0.2468 -0.0359 -0.0730
  828YOPS   C1A11751   6.787   9.161   6.603 -0.1077  0.2498  0.0837
  828YOPS   D2A11752   7.032   9.175   7.016 -0.1995 -0.1207  0.3412
  828YOPS   C3A11753   7.334   9.217   7.394  0.1762 -0.0232  0.3197
  828YOPS   C4A11754   7.395   9.557   7.656 -0.0001 -0.1256  0.0033
  828YOPS   C1B11755   6.379   8.637   6.264  0.2680  0.0284 -0.0106
  828YOPS   C2B11756   6.093   8.268   6.216 -0.0062  0.1117  0.3873
  828YOPS   D3B11757   5.913   7.877   6.347 -0.3290  0.0951 -0.3386
  828YOPS   C4B11758   5.632   7.773   6.617 -0.1880  0.1637  0.1459
  829YOPS   CNO11759  11.333   8.238   5.917 -0.0667 -0.0628 -0.2001
  829YOPS   PO411760  11.362   7.846   5.774  0.1572 -0.1319 -0.1685
  829YOPS   GL111761  11.463   7.721   6.156  0.1298  0.0692  0.0855
  829YOPS   GL211762  11.720   7.964   6.331 -0.0359  0.2588  0.1834
  829YOPS   C1A11763  11.371   7.535   6.614 -0.1201  0.2713 -0.0926
  829YOPS   D2A11764  11.233   7.386   6.983  0.1342 -0.2566 -0.0756
  829YOPS   C3A11765  11.136   7.347   7.297  0.0300 -0.2483 -0.0046
  829YOPS   C4A11766  10.997   7.623   7.595 -0.3259  0.0510 -0.1175
  829YOPS   C1B11767  11.820   8.194   6.669  0.1078 -0.0418  0.1994
  829YOPS   C2B11768  11.805   8.093   7.073  0.2798 -0.3717  0.1741
  829YOPS   D3B11769  11.660   8.264   7.496  0.1132 -0.0529  0.2076
  829YOPS   C4B11770  11.291   8.235   7.686  0.0395  0.0171 -0.0315
  830YOPS   CNO11771   8.784   7.234   5.626 -0.0045  0.1246  0.3086
  830YOPS   PO411772   8.731   6.861   5.685 -0.1568  0.2622  0.2034
  830YOPS   GL111773   8.617   6.767   6.023  0.0231 -0.0877 -0.1985
  830YOPS   GL211774   8.604   7.174   6.122 -0.1046  0.0361  0.0515
  830YOPS   C1A11775   8.573   6.482   6.319 -0.1651 -0.0810  0.1517
  830YOPS   D2A11776   8.565   6.356   6.690 -0.0172 -0.1187  0.2115
  830YOPS   C3A11777   8.703   6.096   6.863 -0.2799  0.1706 -0.2325
  830YOPS   C4A11778   8.617   5.754   6.773 -0.0219 -0.1352 -0.0532
  830YOPS   C1B11779   8.688   6.931   6.454 -0.0725 -0.1701 -0.2434
  830YOPS   C2B11780   8.686   6.873   6.925 -0.0595  0.0007 -0.0751
  830YOPS   D3B11781   8.950   6.960   7.256 -0.2725  0.4126  0.1906
  830YOPS   C4B11782   8.803   6.958   7.657  0.1389 -0.1134  0.2468
  831YOPS   CNO11783  14.803  15.499   5.736 -0.1135 -0.0519  0.1636
  831YOPS   PO411784  14.793  15.935   5.530  0.1119 -0.5660 -0.0892
  831YOPS   GL111785  14.866  16.047   5.969 -0.0020 -0.1068 -0.2317
  831YOPS   GL211786  14.805  16.293   6.050 -0.1810 -0.2158 -0.0186
  831YOPS   C1A11787  15.068  16.078   6.477 -0.0847 -0.1639 -0.0281
  831YOPS   D2A11788  14.877  16.071   6.921  0.2961  0.0281  0.0178
  831YOPS   C3A11789  15.086  16.140   7.310 -0.0908  0.1362  0.0530
  831YOPS   C4A11790  15.089  15.842   7.680 -0.2991 -0.1622  0.3901
  831YOPS   C1B11791  14.537  16.683   6.260 -0.0854  0.0214 -0.4033
  831YOPS   C2B11792  14.315  16.905   6.479  0.1815 -0.1881 -0.1003
  831YOPS   D3B11793  14.211  17.296   6.639  0.0808  0.0646 -0.3379
  831YOPS   C4B11794  13.853  17.506   6.583 -0.0906  0.0878  0.2239
  832YOPS   CNO11795  17.017  17.005   5.172  0.2176 -0.0501  0.0460
  832YOPS   PO411796  17.205  17.280   5.508  0.0853  0.0100  0.5309
  832YOPS   GL111797  17.184  17.225   5.930  0.3113  0.1071  0.0124
  832YOPS   GL211798  17.405  17.443   6.024  0.0418 -0.0953  0.4130
  832YOPS   C1A11799  17.138  17.141   6.408  0.0854 -0.2454  0.1009
  832YOPS   D2A11800  17.184  17.045   6.879  0.1322  0.1069 -0.1038
  832YOPS   C3A11801  17.289  17.217   7.376  0.0168 -0.0648 -0.0929
  832YOPS   C4A11802  17.356  17.529   7.603  0.1856 -0.1708  0.1620
  832YOPS   C1B11803  17.611  17.025   6.279 -0.1077  0.0054 -0.0144
  832YOPS   C2B11804  17.634  16.861   6.701 -0.0281 -0.0627 -0.1301
  832YOPS   D3B11805  17.783  16.914   7.087 -0.0260  0.1259 -0.2745
  832YOPS   C4B11806  18.128  17.073   7.200 -0.1452  0.2605 -0.0993
  833YOPS   CNO11807   7.803   5.403   5.463  0.1298 -0.0955 -0.2922
  833YOPS   PO411808   8.083   5.268   5.475  0.1483 -0.2568 -0.2946
  833YOPS   GL111809   8.212   5.388   5.822 -0.2331 -0.0875  0.0986
  833YOPS   GL211810   8.511   5.229   5.830 -0.1896  0.2293  0.1297
  833YOPS   C1A11811   8.173   5.545   6.188 -0.1611 -0.2828  0.1737
  833YOPS   D2A11812   8.002   5.470   6.596 -0.2104 -0.0381 -0.1007
  833YOPS   C3A11813   7.702   5.675   6.827  0.0287 -0.2430  0.0286
  833YOPS   C4A11814   7.494   5.407   7.056 -0.1170 -0.2462  0.1234
  833YOPS   C1B11815   8.513   5.062   6.259 -0.0487  0.0862 -0.0384
  833YOPS   C2B11816   8.519   5.262   6.575  0.2152  0.4798 -0.1052
  833YOPS   D3B11817   8.422   5.229   6.938 -0.1094 -0.3389 -0.2355
  833YOPS   C4B11818   7.994   5.320   7.160 -0.2731 -0.0739 -0.0721
  834YOPS   CNO11819   7.790   1.764   5.482 -0.2347 -0.0451 -0.0832
  834YOPS   PO411820   7.444   2.014   5.563  0.2453 -0.2474  0.0339
  834YOPS   GL111821   7.468   2.256   5.947 -0.0897 -0.3404 -0.2880
  834YOPS   GL211822   7.341   2.149   6.110  0.0045 -0.0112 -0.1246
  834YOPS   C1A11823   7.704   2.490   6.320  0.2661  0.4318 -0.2173
  834YOPS   D2A11824   7.885   2.570   6.789 -0.0780  0.0037 -0.0035
  834YOPS   C3A11825   7.977   2.530   7.212  0.2661  0.0326  0.1613
  834YOPS   C4A11826   7.799   2.809   7.619  0.0537  0.1187 -0.1964
  834YOPS   C1B11827   7.082   2.308   6.479  0.0562  0.1417  0.1289
  834YOPS   C2B11828   7.017   2.243   6.900  0.2676  0.1758 -0.2834
  834YOPS   D3B11829   6.797   2.405   7.267  0.2321 -0.2026 -0.0724
  834YOPS   C4B11830   6.580   2.052   7.449  0.2009 -0.1865  0.2428
  835YOPS   CNO11831  12.976   3.727   5.573 -0.0122 -0.0355  0.1852
  835YOPS   PO411832  12.833   3.749   5.991  0.1583  0.2888 -0.4305
  835YOPS   GL111833  12.886   3.760   6.416  0.1464  0.0226  0.1654
  835YOPS   GL211834  13.049   3.438   6.366  0.1650 -0.3424 -0.0249
  835YOPS   C1A11835  12.771   3.856   6.850  0.1100  0.3512  0.0780
  835YOPS   D2A11836  12.854   4.004   7.207 -0.1804  0.0595 -0.1538
  835YOPS   C3A11837  12.620   3.879   7.548  0.0476 -0.1018 -0.0498
  835YOPS   C4A11838  12.330   4.039   7.909  0.0923 -0.0240  0.2578
  835YOPS   C1B11839  13.101   3.453   6.781 -0.2770  0.0072  0.3777
  835YOPS   C2B11840  13.007   3.415   7.233  0.2704 -0.3385  0.1883
  835YOPS   D3B11841  13.030   3.667   7.623 -0.0850  0.2046  0.0815
  835YOPS   C4B11842  12.779   3.738   8.010  0.0021  0.1460 -0.1235
  836YOPS   CNO11843  11.690   2.915   5.050  0.1221  0.1756  0.2623
  836YOPS   PO411844  11.540   2.900   5.448  0.1196  0.0518  0.0031
  836YOPS   GL111845  11.404   2.792   5.979 -0.1723  0.1326 -0.0494
  836YOPS   GL211846  11.494   3.013   6.170  0.1837 -0.2288  0.2268
  836YOPS   C1A11847  11.578   2.455   6.218  0.2399 -0.1814  0.1519
  836YOPS   D2A11848  11.532   2.382   6.666 -0.3138  0.0522  0.1292
  836YOPS   C3A11849  11.478   2.274   7.102 -0.1349 -0.1936  0.3557
  836YOPS   C4A11850  11.272   2.481   7.431  0.1548 -0.1043 -0.0469
  836YOPS   C1B11851  11.449   2.897   6.547 -0.0320  0.0185  0.2932
  836YOPS   C2B11852  11.416   2.774   7.015 -0.0069 -0.0039 -0.0199
  836YOPS   D3B11853  11.545   2.925   7.420  0.1667 -0.0900 -0.0365
  836YOPS   C4B11854  11.676   2.861   7.822 -0.1417 -0.0769  0.1621
  837YOPS   CNO11855   2.836  18.313   5.204  0.1042  0.0860 -0.3657
  837YOPS   PO411856   3.080  18.279   5.602  0.0312  0.3137  0.1615
  837YOPS   GL111857   3.257  18.200   6.014 -0.0877 -0.1450  0.1571
  837YOPS   GL211858   3.381  18.421   6.176 -0.0858  0.3768 -0.1062
  837YOPS   C1A11859   3.255  18.074   6.533 -0.0153 -0.4570  0.0814
  837YOPS   D2A11860   3.282  18.127   6.950  0.0585 -0.0968 -0.1128
  837YOPS   C3A11861   2.961  18.136   7.232  0.0208  0.0467  0.1639
  837YOPS   C4A11862   2.877  18.193   7.773 -0.0212 -0.0644  0.1188
  837YOPS   C1B11863   3.495  18.471   6.680 -0.1574 -0.0128 -0.0311
  837YOPS   C2B11864   3.696  18.578   7.046  0.3424 -0.2294 -0.0170
  837YOPS   D3B11865   3.801  18.765   7.367 -0.2574 -0.1207  0.1260
  837YOPS   C4B11866   3.575  18.618   7.779  0.4143  0.0652  0.0952
  838YOPS   CNO11867   6.095   2.443   5.193 -0.0627 -0.2269 -0.1045
  838YOPS   PO411868   6.057   1.993   5.386  0.0116 -0.0319  0.2614
  838YOPS   GL111869   6.032   1.936   5.849 -0.2413 -0.0888 -0.0313
  838YOPS   GL211870   6.382   1.998   5.879  0.0065  0.4714 -0.2113
  838YOPS   C1A11871   6.066   2.185   6.198 -0.1540  0.1245  0.0968
  838YOPS   D2A11872   6.133   2.268   6.598  0.0905 -0.2116 -0.0282
  838YOPS   C3A11873   6.556   2.125   6.880 -0.0384 -0.4329  0.1029
  838YOPS   C4A11874   6.625   1.742   7.075  0.4003 -0.0506 -0.2758
  838YOPS   C1B11875   6.369   1.800   6.208  0.0951  0.1231 -0.2404
  838YOPS   C2B11876   6.196   1.796   6.705 -0.1312 -0.1062 -0.2255
  838YOPS   D3B11877   6.145   1.577   6.994  0.3455  0.0544 -0.2376
  838YOPS   C4B11878   5.725   1.551   7.235  0.1109 -0.0785  0.0648
  839YOPS   CNO11879   8.747  17.829   5.530 -0.1825  0.0285 -0.1212
  839YOPS   PO411880   8.237  17.872   5.760 -0.0858  0.3467  0.4087
  839YOPS   GL111881   8.401  17.884   6.124 -0.0736  0.1129 -0.1678
  839YOPS   GL211882   8.663  18.130   6.230 -0.2773  0.0557 -0.1808
  839YOPS   C1A11883   8.550  17.733   6.491 -0.1592  0.1989  0.1192
  839YOPS   D2A11884   8.409  17.680   6.933 -0.2430  0.3460 -0.2683
  839YOPS   C3A11885   8.423  17.735   7.287 -0.1208 -0.1441 -0.1863
  839YOPS   C4A11886   8.441  17.544   7.643  0.1565 -0.0064  0.1271
  839YOPS   C1B11887   8.690  18.236   6.540 -0.0394 -0.0826 -0.1794
  839YOPS   C2B11888   8.773  18.049   6.920  0.1291  0.1683 -0.2538
  839YOPS   D3B11889   8.733  18.197   7.298 -0.0753  0.1270 -0.1136
  839YOPS   C4B11890   8.482  18.087   7.629 -0.0028 -0.0047 -0.1996
  840YOPS   CNO11891   3.687   3.506   5.639  0.0627  0.0257  0.0723
  840YOPS   PO411892   3.833   3.172   5.511 -0.2375  0.0528 -0.0957
  840YOPS   GL111893   3.965   3.101   5.936 -0.1265  0.1716  0.1405
  840YOPS   GL211894   4.325   3.078   5.905 -0.4037  0.0174 -0.2154
  840YOPS   C1A11895   3.845   2.974   6.332 -0.1239 -0.2060  0.0090
  840YOPS   D2A11896   3.813   3.340   6.664  0.1381 -0.4005  0.1381
  840YOPS   C3A11897   3.666   3.435   7.091  0.0001 -0.1078  0.0282
  840YOPS   C4A11898   3.702   3.850   7.361 -0.1581 -0.2878 -0.1576
  840YOPS   C1B11899   4.386   3.144   6.410 -0.0542 -0.1159  0.1165
  840YOPS   C2B11900   4.315   3.255   6.828  0.3287  0.3750  0.0405
  840YOPS   D3B11901   4.264   3.106   7.283  0.1622 -0.0908  0.2161
  840YOPS   C4B11902   4.064   2.630   7.363 -0.0509  0.0240  0.0479
  841YOPS   CNO11903  11.363  13.603   5.776 -0.0373  0.0142  0.1007
  841YOPS   PO411904  11.073  13.630   5.434  0.2259  0.1446 -0.1268
  841YOPS   GL111905  10.764  13.452   5.802 -0.1152 -0.1129 -0.1127
  841YOPS   GL211906  10.631  13.215   6.002 -0.0168 -0.3043 -0.2298
  841YOPS   C1A11907  10.849  13.587   6.285  0.0746  0.0933  0.0724
  841YOPS   D2A11908  11.019  13.788   6.743  0.0211  0.1304 -0.3294
  841YOPS   C3A11909  10.817  13.947   7.105  0.0292 -0.0633 -0.0728
  841YOPS   C4A11910  10.732  13.636   7.382 -0.0623  0.3069  0.1101
  841YOPS   C1B11911  10.274  13.038   6.278 -0.0700 -0.0714  0.1452
  841YOPS   C2B11912  10.185  13.078   6.751  0.0597  0.0827 -0.0387
  841YOPS   D3B11913  10.106  12.905   7.231  0.2272 -0.0645 -0.1976
  841YOPS   C4B11914  10.272  13.064   7.602 -0.3457  0.2709  0.1818
  842POPE   NH311915  12.244  12.445   5.917 -0.3147 -0.1299  0.2673
  842POPE   PO411916  12.467  12.802   5.751  0.0650  0.2672 -0.0462
  842POPE   GL111917  12.614  12.615   6.131 -0.1135 -0.0325 -0.0326
  842POPE   GL211918  12.876  12.569   6.474  0.2682  0.0569 -0.2247
  842POPE   C1A11919  12.387  12.460   6.525 -0.4920  0.4023  0.1657
  842POPE   D2A11920  12.024  12.665   6.821  0.1578  0.0805 -0.0861
  842POPE   C3A11921  11.649  12.839   6.745 -0.3771  0.0348  0.1082
  842POPE   C4A11922  11.445  13.019   6.468 -0.1175 -0.1434  0.0449
  842POPE   C1B11923  12.931  12.324   6.859  0.1967  0.2942 -0.1385
  842POPE   C2B11924  12.874  12.201   7.237 -0.0168 -0.1248  0.0317
  842POPE   C3B11925  12.816  12.499   7.596  0.1154  0.1508 -0.2734
  842POPE   C4B11926  12.677  12.890   7.792 -0.1127 -0.1612  0.1115
  843POPE   NH311927   1.961   3.952   6.090 -0.0435  0.1491 -0.0421
  843POPE   PO411928   1.735   3.632   5.842  0.1313  0.0410  0.2130
  843POPE   GL111929   1.810   3.499   6.291  0.2671  0.0639  0.1316
  843POPE   GL211930   1.692   3.723   6.526 -0.3255 -0.0459 -0.3491
  843POPE   C1A11931   1.571   3.278   6.645 -0.1448 -0.0357  0.1212
  843POPE   D2A11932   1.507   3.217   7.128 -0.0848 -0.2520 -0.1388
  843POPE   C3A11933   1.191   2.879   7.205  0.1456  0.0122  0.0975
  843POPE   C4A11934   0.913   2.534   7.477  0.2599  0.4475  0.0872
  843POPE   C1B11935   2.063   3.838   6.796 -0.1721  0.0102  0.0291
  843POPE   C2B11936   2.375   3.775   7.110  0.0917 -0.2381  0.1043
  843POPE   C3B11937   2.614   3.784   7.559 -0.2479 -0.1153  0.1435
  843POPE   C4B11938   2.869   4.074   7.837 -0.2226 -0.0550 -0.3258
  844POPE   NH311939   9.453   3.534   5.334 -0.0399  0.0383 -0.0746
  844POPE   PO411940   9.902   3.690   5.315 -0.0670 -0.0608 -0.0542
  844POPE   GL111941  10.113   3.609   5.665  0.1123 -0.2920 -0.1946
  844POPE   GL211942   9.818   3.792   5.848  0.1715 -0.0179  0.3145
  844POPE   C1A11943  10.104   3.529   6.138  0.0256  0.1252  0.2967
  844POPE   D2A11944   9.977   3.645   6.581  0.0429  0.1182 -0.1949
  844POPE   C3A11945   9.563   3.664   6.713  0.1812  0.0813 -0.0280
  844POPE   C4A11946   9.238   3.572   7.028  0.0840  0.1236  0.1081
  844POPE   C1B11947  10.000   4.065   6.162 -0.0131 -0.1167  0.0049
  844POPE   C2B11948  10.058   4.236   6.557 -0.0945 -0.5646 -0.0242
  844POPE   C3B11949  10.178   4.493   6.977  0.3553 -0.2719  0.2512
  844POPE   C4B11950  10.054   4.651   7.473  0.0181 -0.0546 -0.3402
  845POPE   NH311951   2.766   6.027   5.320 -0.0654  0.0148  0.0095
  845POPE   PO411952   3.186   5.989   5.432  0.0215  0.2275 -0.1030
  845POPE   GL111953   3.284   6.128   5.760 -0.1090  0.1355 -0.0836
  845POPE   GL211954   3.236   6.064   6.095  0.3179  0.1236  0.0179
  845POPE   C1A11955   3.657   6.329   6.063  0.1734 -0.0685 -0.0300
  845POPE   D2A11956   3.959   6.452   6.479  0.0320  0.0721 -0.0975
  845POPE   C3A11957   4.030   6.295   6.816 -0.0428  0.2084 -0.1188
  845POPE   C4A11958   3.893   5.955   7.006 -0.1278  0.0821  0.1226
  845POPE   C1B11959   2.922   6.023   6.438 -0.2194 -0.3866  0.1027
  845POPE   C2B11960   3.018   6.111   6.902  0.0382  0.3109  0.2574
  845POPE   C3B11961   3.110   6.138   7.389 -0.0473  0.1694  0.0597
  845POPE   C4B11962   3.239   6.235   7.845 -0.2342  0.0758 -0.2702
  846POPE   NH311963   4.964  11.631   5.957 -0.0923  0.1528  0.3315
  846POPE   PO411964   4.543  11.568   5.789  0.0999 -0.2667 -0.0414
  846POPE   GL111965   4.442  11.859   6.183 -0.1075 -0.0184 -0.0845
  846POPE   GL211966   4.655  11.775   6.322 -0.2954  0.1074  0.3104
  846POPE   C1A11967   4.252  11.946   6.560  0.1148 -0.2684  0.2920
  846POPE   D2A11968   4.142  11.861   6.908  0.0835 -0.0574  0.0784
  846POPE   C3A11969   4.119  12.224   7.237  0.2038  0.1064  0.0541
  846POPE   C4A11970   4.192  12.540   7.453 -0.1590  0.4304  0.0089
  846POPE   C1B11971   4.730  11.868   6.800  0.0955  0.3505  0.0492
  846POPE   C2B11972   4.535  11.972   7.171  0.1541 -0.0046  0.0889
  846POPE   C3B11973   4.576  12.061   7.601 -0.0859  0.1697 -0.0191
  846POPE   C4B11974   4.377  12.268   7.963  0.0837  0.0181  0.0267
  847POPE   NH311975   4.688   0.484   5.596  0.0394  0.3214 -0.2265
  847POPE   PO411976   4.521   0.029   5.603 -0.0605  0.2213  0.3396
  847POPE   GL111977   4.627   0.037   6.034 -0.1968 -0.4044  0.2506
  847POPE   GL211978   4.908   0.257   6.077 -0.3616 -0.1632 -0.2318
  847POPE   C1A11979   4.795  -0.304   6.378 -0.1885  0.0271  0.0171
  847POPE   D2A11980   4.738  -0.575   6.652 -0.0831 -0.0382 -0.3415
  847POPE   C3A11981   4.813  -0.354   6.987 -0.0778 -0.0628  0.0003
  847POPE   C4A11982   4.859  -0.467   7.411  0.0763 -0.0615 -0.2084
  847POPE   C1B11983   4.862   0.239   6.475 -0.2833 -0.0178  0.1366
  847POPE   C2B11984   4.641   0.473   6.880  0.0154 -0.1163 -0.1145
  847POPE   C3B11985   4.577   0.868   7.060  0.4936  0.0130  0.1706
  847POPE   C4B11986   4.622   1.141   7.337  0.1640 -0.0975 -0.5218
  848POPE   NH311987  15.241  13.861   5.731  0.1411  0.0598  0.1909
  848POPE   PO411988  14.926  13.710   5.788  0.0656 -0.0400  0.0044
  848POPE   GL111989  14.638  13.413   6.193 -0.1295 -0.1009  0.1996
  848POPE   GL211990  14.787  13.117   6.229  0.3358 -0.2302 -0.1770
  848POPE   C1A11991  14.627  13.246   6.634  0.3779 -0.4097  0.0019
  848POPE   D2A11992  14.705  13.211   6.997  0.0831 -0.0490  0.2546
  848POPE   C3A11993  15.055  13.249   7.125 -0.0848  0.0568  0.1448
  848POPE   C4A11994  15.044  13.119   7.543  0.1187  0.0584  0.2430
  848POPE   C1B11995  15.098  13.215   6.550  0.3282  0.4034 -0.0280
  848POPE   C2B11996  15.395  13.029   6.736 -0.2797  0.3250  0.1113
  848POPE   C3B11997  15.425  12.744   7.221 -0.1417  0.0961 -0.0955
  848POPE   C4B11998  15.458  12.446   7.551  0.1538 -0.2140  0.1330
  849POPE   NH311999   8.576  14.824   5.702 -0.1361  0.2319  0.2356
  849POPE   PO412000   8.500  15.201   5.964  0.3153 -0.1051  0.2029
  849POPE   GL112001   8.234  15.308   6.239  0.0074  0.0866 -0.2147
  849POPE   GL212002   8.211  15.560   6.292  0.2605  0.0930  0.0865
  849POPE   C1A12003   8.108  15.190   6.623 -0.3969 -0.0420  0.4917
  849POPE   D2A12004   8.077  15.205   7.001  0.0143  0.0648 -0.1628
  849POPE   C3A12005   8.240  15.183   7.463 -0.2345  0.0973  0.2107
  849POPE   C4A12006   8.584  15.030   7.856 -0.0020 -0.2944  0.2285
  849POPE   C1B12007   8.221  15.672   6.808  0.1718  0.0112  0.1857
  849POPE   C2B12008   8.055  15.650   7.189  0.1746 -0.1832 -0.2499
  849POPE   C3B12009   8.166  15.637   7.632  0.1755  0.2021  0.0147
  849POPE   C4B12010   8.163  15.402   7.977  0.2176  0.1892 -0.1355
  850POPE   NH312011   1.928   3.172   5.825 -0.2919  0.0924  0.3204
  850POPE   PO412012   1.804   2.741   5.760  0.0349  0.0781 -0.1593
  850POPE   GL112013   1.983   2.668   6.049  0.0952  0.2323  0.2693
  850POPE   GL212014   2.152   2.350   5.858  0.0731 -0.0612 -0.2359
  850POPE   C1A12015   2.124   2.627   6.477 -0.1013  0.3438 -0.2369
  850POPE   D2A12016   2.072   2.558   6.935  0.0675 -0.2243  0.0162
  850POPE   C3A12017   1.986   2.320   7.280  0.1475 -0.3717  0.1827
  850POPE   C4A12018   1.935   2.220   7.672  0.2392  0.2513 -0.0722
  850POPE   C1B12019   2.231   2.189   6.261  0.1281 -0.0270  0.0796
  850POPE   C2B12020   2.229   2.168   6.657 -0.0452  0.2317  0.2197
  850POPE   C3B12021   2.413   2.173   6.956  0.0864 -0.0643 -0.0097
  850POPE   C4B12022   2.310   1.972   7.344 -0.4476 -0.3101  0.3903
  851POPE   NH312023   1.012   3.899   6.012 -0.1757 -0.0449 -0.0788
  851POPE   PO412024   1.057   4.224   5.927  0.1201  0.2954  0.1980
  851POPE   GL112025   1.008   4.525   6.278  0.3116 -0.0598 -0.3458
  851POPE   GL212026   1.294   4.626   6.418  0.1716 -0.1059  0.1145
  851POPE   C1A12027   0.995   4.655   6.822  0.3001  0.1416  0.1064
  851POPE   D2A12028   1.033   4.553   7.255  0.2223  0.1014 -0.0321
  851POPE   C3A12029   0.629   4.363   7.491  0.1043  0.1850 -0.0546
  851POPE   C4A12030   0.535   4.355   8.001  0.3267 -0.0935  0.1756
  851POPE   C1B12031   1.452   4.338   6.631 -0.0735  0.3416 -0.0922
  851POPE   C2B12032   1.567   3.991   6.984  0.0911  0.0940 -0.0402
  851POPE   C3B12033   1.797   3.873   7.323 -0.1330  0.2945 -0.3891
  851POPE   C4B12034   2.135   3.789   7.535  0.2636  0.0239 -0.2776
  852POPE   NH312035  16.183  16.502   5.435 -0.2098  0.0767 -0.0963
  852POPE   PO412036  15.819  16.771   5.660 -0.0994 -0.3425  0.1127
  852POPE   GL112037  15.919  16.556   6.045 -0.1263  0.0730  0.2404
  852POPE   GL212038  16.061  16.858   6.174  0.1138  0.0847  0.0703
  852POPE   C1A12039  16.102  16.400   6.419 -0.3125  0.0114  0.0716
  852POPE   D2A12040  16.243  16.366   6.870 -0.0759 -0.0792  0.0661
  852POPE   C3A12041  16.322  16.602   7.246  0.2121  0.0240 -0.0861
  852POPE   C4A12042  16.363  16.565   7.729 -0.1149 -0.2122  0.1508
  852POPE   C1B12043  16.299  16.900   6.482  0.1255  0.1905 -0.0868
  852POPE   C2B12044  16.311  16.956   6.872  0.1304  0.0231  0.0057
  852POPE   C3B12045  16.251  17.134   7.269  0.2062  0.0985  0.1258
  852POPE   C4B12046  16.374  17.210   7.653  0.0870 -0.2456  0.2985
  853POPE   NH312047   3.259  14.324   5.999 -0.2049  0.0096 -0.0963
  853POPE   PO412048   3.747  14.208   5.991  0.0465  0.2991  0.2393
  853POPE   GL112049   3.683  13.819   6.153  0.1465 -0.3210 -0.0167
  853POPE   GL212050   3.824  13.542   6.067  0.0343  0.2282  0.2253
  853POPE   C1A12051   3.728  13.902   6.553 -0.2253  0.0261 -0.0365
  853POPE   D2A12052   3.649  13.903   7.007 -0.0591  0.2275 -0.1835
  853POPE   C3A12053   3.705  14.089   7.276  0.1449  0.0384  0.0121
  853POPE   C4A12054   3.847  13.986   7.694 -0.2434 -0.0827  0.0922
  853POPE   C1B12055   4.117  13.477   6.407  0.2434  0.0489 -0.3176
  853POPE   C2B12056   4.025  13.643   6.802 -0.1436  0.0746 -0.1228
  853POPE   C3B12057   3.937  13.560   7.241  0.3334  0.0512 -0.1072
  853POPE   C4B12058   3.676  13.485   7.558 -0.1302 -0.0359 -0.2233
  854POPE   NH312059  17.047   0.479   5.662 -0.0375  0.0590 -0.0309
  854POPE   PO412060  17.410   0.257   5.583 -0.0617 -0.1556 -0.0375
  854POPE   GL112061  17.357   0.181   5.979  0.1620  0.0672  0.1216
  854POPE   GL212062  17.086   0.200   6.135  0.0751  0.1894 -0.0284
  854POPE   C1A12063  17.620   0.252   6.361  0.1438 -0.0963 -0.0009
  854POPE   D2A12064  18.021   0.339   6.406 -0.3542 -0.0315  0.1818
  854POPE   C3A12065  18.219   0.204   6.854  0.0705 -0.2488  0.2212
  854POPE   C4A12066  18.062   0.380   7.151  0.0685  0.0362  0.0448
  854POPE   C1B12067  17.166   0.059   6.575 -0.0170 -0.0369 -0.0735
  854POPE   C2B12068  17.216   0.226   7.077 -0.0929  0.1001 -0.2060
  854POPE   C3B12069  17.045   0.541   7.331  0.0128 -0.0125  0.1337
  854POPE   C4B12070  16.742   0.575   7.624  0.0551 -0.2526  0.1824
  855POPE   NH312071  14.612   0.816   5.491 -0.0225  0.1251 -0.1499
  855POPE   PO412072  14.395   0.671   5.862  0.0909  0.1335 -0.0200
  855POPE   GL112073  14.317   0.675   6.233  0.0744  0.0470  0.1466
  855POPE   GL212074  14.016   0.672   6.382 -0.0176  0.0293 -0.0131
  855POPE   C1A12075  14.256   0.620   6.794 -0.1516  0.1271 -0.3695
  855POPE   D2A12076  14.287   0.712   7.194  0.1726  0.0104  0.3457
  855POPE   C3A12077  14.178   0.449   7.578 -0.0716  0.1480  0.0192
  855POPE   C4A12078  14.065   0.260   7.932 -0.1112  0.0403  0.0306
  855POPE   C1B12079  13.740   0.753   6.744 -0.1376  0.0663 -0.0097
  855POPE   C2B12080  13.695   0.785   7.189  0.1204  0.0887 -0.0678
  855POPE   C3B12081  13.874   0.851   7.465 -0.1267  0.1258  0.1245
  855POPE   C4B12082  14.141   0.945   7.805 -0.0441  0.0174 -0.1639
  856POPE   NH312083  10.206   5.807   5.280  0.1851  0.2176 -0.1822
  856POPE   PO412084   9.821   6.059   5.228  0.1337 -0.0154 -0.2630
  856POPE   GL112085   9.744   6.178   5.730 -0.3436 -0.0530  0.4754
  856POPE   GL212086   9.438   5.937   5.809  0.1408 -0.0247  0.1149
  856POPE   C1A12087   9.881   6.122   6.187 -0.4920  0.0602  0.1347
  856POPE   D2A12088   9.728   5.991   6.644  0.1476  0.1241 -0.1576
  856POPE   C3A12089   9.927   5.968   6.986 -0.1155 -0.0019 -0.1731
  856POPE   C4A12090  10.102   5.790   7.343  0.1221  0.0079  0.0959
  856POPE   C1B12091   9.463   5.812   6.241  0.2978 -0.0104  0.2205
  856POPE   C2B12092   9.452   5.490   6.668  0.1938  0.0281 -0.2294
  856POPE   C3B12093   9.598   5.042   6.871 -0.2389  0.1990 -0.3425
  856POPE   C4B12094   9.753   4.705   7.082 -0.2667 -0.1152 -0.2899
  857POPE   NH312095   0.355  12.610   6.107 -0.0160 -0.0177  0.0606
  857POPE   PO412096  -0.002  12.734   5.738  0.0029 -0.1988  0.1191
  857POPE   GL112097  -0.184  12.912   6.125  0.1491 -0.0784 -0.1932
  857POPE   GL212098  -0.090  12.755   6.362 -0.0251 -0.1273  0.3065
  857POPE   C1A12099  -0.222  13.223   6.466 -0.0559 -0.2318  0.0738
  857POPE   D2A12100  -0.207  13.306   6.922  0.0237 -0.1654 -0.0473
  857POPE   C3A12101  -0.474  13.393   7.353 -0.1524 -0.0249 -0.2944
  857POPE   C4A12102  -0.374  13.519   7.816 -0.2009  0.1183  0.3205
  857POPE   C1B12103  -0.180  12.781   6.708  0.2386 -0.1567  0.3265
  857POPE   C2B12104  -0.247  12.936   7.232 -0.1281 -0.0538  0.0413
  857POPE   C3B12105  -0.106  12.583   7.548 -0.1662  0.0233 -0.2871
  857POPE   C4B12106   0.001  12.316   7.937  0.1447 -0.2075 -0.0855
  858POPE   NH312107   2.735  16.223   5.804 -0.4532  0.0892 -0.0981
  858POPE   PO412108   2.327  16.294   5.650  0.2310  0.0836 -0.1695
  858POPE   GL112109   2.286  16.020   6.017 -0.3380 -0.1650 -0.0627
  858POPE   GL212110   1.899  16.050   6.031  0.1866 -0.0172 -0.0959
  858POPE   C1A12111   2.473  15.809   6.282 -0.1520 -0.0940  0.0721
  858POPE   D2A12112   2.497  15.603   6.625  0.0610  0.2183  0.0576
  858POPE   C3A12113   2.637  15.640   7.074  0.3065 -0.0950 -0.1228
  858POPE   C4A12114   2.595  15.858   7.511 -0.2015  0.1726 -0.1919
  858POPE   C1B12115   2.035  15.946   6.493 -0.0319  0.1086 -0.0858
  858POPE   C2B12116   2.072  15.899   6.877  0.2241 -0.1306  0.0818
  858POPE   C3B12117   2.165  15.791   7.266  0.3137 -0.1481 -0.0905
  858POPE   C4B12118   2.112  15.612   7.653  0.0718  0.3817  0.0076
  859POPE   NH312119  15.148  14.676   5.810  0.2255 -0.0004  0.0430
  859POPE   PO412120  14.727  14.612   5.827 -0.0547 -0.2371 -0.0278
  859POPE   GL112121  14.535  14.614   6.165  0.0979 -0.2352 -0.0598
  859POPE   GL212122  14.500  14.370   6.210  0.1725  0.1097  0.0945
  859POPE   C1A12123  14.604  14.628   6.658  0.2475  0.1155 -0.0471
  859POPE   D2A12124  14.681  14.765   7.080  0.1610  0.3209 -0.0573
  859POPE   C3A12125  14.622  14.511   7.401  0.3344 -0.1193 -0.1137
  859POPE   C4A12126  14.396  14.568   7.783  0.1596  0.0537 -0.1361
  859POPE   C1B12127  14.878  14.263   6.430  0.1548  0.1143 -0.2640
  859POPE   C2B12128  15.225  14.107   6.755 -0.0781 -0.1128  0.1683
  859POPE   C3B12129  15.317  14.019   7.104  0.1713 -0.0862  0.2629
  859POPE   C4B12130  15.254  13.606   7.385 -0.0524 -0.1691 -0.0406
  860POPE   NH312131   8.812   7.643   5.894  0.2870 -0.2100  0.2652
  860POPE   PO412132   8.457   7.814   5.866 -0.3755 -0.1319  0.3431
  860POPE   GL112133   8.310   7.937   6.212  0.3272  0.0858  0.0421
  860POPE   GL212134   8.285   8.296   6.263  0.1254  0.2319 -0.0601
  860POPE   C1A12135   8.244   7.800   6.642  0.3029 -0.0211  0.0069
  860POPE   D2A12136   8.263   7.904   7.000 -0.0459  0.0753 -0.2061
  860POPE   C3A12137   8.156   7.728   7.323  0.2548 -0.0213  0.3244
  860POPE   C4A12138   7.948   7.520   7.645 -0.0051 -0.2027 -0.0634
  860POPE   C1B12139   8.521   8.244   6.681 -0.0333  0.0695 -0.1502
  860POPE   C2B12140   8.539   8.316   7.066  0.3249  0.2625  0.0306
  860POPE   C3B12141   8.836   8.341   7.302 -0.2254 -0.3048  0.0710
  860POPE   C4B12142   9.220   8.301   7.541  0.2234 -0.1442 -0.1574
  861POPE   NH312143   7.139   2.407   5.603 -0.4833 -0.1965  0.1906
  861POPE   PO412144   6.771   2.648   5.603 -0.2918 -0.1766 -0.0425
  861POPE   GL112145   6.857   2.756   6.003 -0.1476 -0.3217 -0.4266
  861POPE   GL212146   7.143   2.651   6.073 -0.4545 -0.0393  0.0652
  861POPE   C1A12147   6.820   3.011   6.432 -0.1982 -0.2834  0.1167
  861POPE   D2A12148   6.786   3.315   6.643 -0.0213  0.0703 -0.2033
  861POPE   C3A12149   6.714   3.298   7.141 -0.2849  0.0282  0.0228
  861POPE   C4A12150   7.059   3.234   7.398  0.2139 -0.0797 -0.1621
  861POPE   C1B12151   7.320   2.855   6.482 -0.1871 -0.0351 -0.0206
  861POPE   C2B12152   7.347   2.599   6.909  0.3044  0.2382  0.1172
  861POPE   C3B12153   7.476   2.379   7.222 -0.0169  0.1280 -0.0251
  861POPE   C4B12154   7.567   1.899   7.196 -0.2617  0.0118  0.1835
  862POPE   NH312155   7.865   1.363   5.757 -0.0285 -0.1912  0.3162
  862POPE   PO412156   7.980   0.938   5.786 -0.1288  0.1166 -0.4714
  862POPE   GL112157   7.774   1.027   6.115  0.0751 -0.0798  0.3135
  862POPE   GL212158   7.680   1.270   6.245  0.0780  0.0774 -0.2600
  862POPE   C1A12159   7.369   0.958   6.373  0.2854 -0.3046 -0.1187
  862POPE   D2A12160   7.294   0.656   6.640 -0.1476  0.0224 -0.0732
  862POPE   C3A12161   7.245   0.408   7.042 -0.0504 -0.1072 -0.1737
  862POPE   C4A12162   6.912   0.415   7.400  0.0996 -0.1343  0.0498
  862POPE   C1B12163   7.690   1.428   6.662 -0.3189  0.0191  0.2214
  862POPE   C2B12164   7.619   1.395   7.060  0.0725  0.1675  0.1426
  862POPE   C3B12165   7.259   1.393   7.427  0.0188 -0.4186 -0.1417
  862POPE   C4B12166   6.862   1.395   7.687 -0.0226 -0.2552  0.2911
  863POPE   NH312167  12.909   2.557   5.350  0.0202 -0.1796 -0.1772
  863POPE   PO412168  13.203   2.812   5.500 -0.1667 -0.0904  0.0208
  863POPE   GL112169  13.252   2.923   5.928 -0.0042 -0.0910  0.0210
  863POPE   GL212170  13.215   2.632   6.216  0.0576 -0.0352 -0.0793
  863POPE   C1A12171  13.384   3.058   6.350  0.1708 -0.2068 -0.2092
  863POPE   D2A12172  13.519   2.996   6.723  0.2557  0.1031  0.0783
  863POPE   C3A12173  13.473   3.288   7.044 -0.1957  0.0863 -0.0138
  863POPE   C4A12174  13.491   3.625   7.390 -0.0618 -0.3387 -0.0744
  863POPE   C1B12175  12.975   2.450   6.557 -0.0552 -0.2205  0.1298
  863POPE   C2B12176  12.920   2.380   6.904 -0.0030 -0.1598 -0.0828
  863POPE   C3B12177  12.903   2.269   7.399 -0.0283 -0.0436 -0.0665
  863POPE   C4B12178  12.906   2.267   7.811  0.0248  0.1850  0.0471
  864POPE   NH312179  14.853  17.785   5.404 -0.1043  0.2921 -0.0084
  864POPE   PO412180  14.591  17.921   5.787 -0.1836  0.0462 -0.1823
  864POPE   GL112181  14.726  17.608   6.167  0.2455 -0.0787  0.1021
  864POPE   GL212182  14.926  17.683   6.317 -0.1010 -0.2883  0.0053
  864POPE   C1A12183  14.679  17.415   6.628 -0.0172  0.4229 -0.1272
  864POPE   D2A12184  14.568  17.396   6.990 -0.1602 -0.1068 -0.0766
  864POPE   C3A12185  14.581  17.659   7.361 -0.0332  0.0089  0.0676
  864POPE   C4A12186  15.058  17.720   7.564 -0.0444  0.1002 -0.1639
  864POPE   C1B12187  15.091  17.733   6.790 -0.0433  0.1884  0.1698
  864POPE   C2B12188  15.031  17.571   7.119 -0.0966 -0.3887 -0.1017
  864POPE   C3B12189  15.323  17.363   7.376  0.1617  0.0935  0.0814
  864POPE   C4B12190  15.419  16.970   7.497 -0.0076  0.0047 -0.2501
  865POPE   NH312191  16.258   0.157   5.688 -0.3475 -0.2244 -0.1595
  865POPE   PO412192  16.662   0.071   5.691 -0.2784  0.0748  0.0416
  865POPE   GL112193  16.740  -0.149   6.011 -0.0935 -0.4686 -0.3224
  865POPE   GL212194  16.806  -0.448   6.015  0.1832 -0.2071 -0.0219
  865POPE   C1A12195  16.654   0.000   6.478 -0.1216 -0.3433  0.0752
  865POPE   D2A12196  16.628   0.083   6.885  0.1081  0.3328 -0.3466
  865POPE   C3A12197  16.372   0.384   7.140 -0.1541  0.0032 -0.1569
  865POPE   C4A12198  16.057   0.802   7.041 -0.2704 -0.1974 -0.2010
  865POPE   C1B12199  16.882  -0.448   6.447 -0.0235 -0.1314  0.0533
  865POPE   C2B12200  16.946  -0.419   6.818 -0.1933 -0.0398  0.2794
  865POPE   C3B12201  17.238  -0.248   7.067 -0.0469  0.1801  0.1235
  865POPE   C4B12202  17.033  -0.132   7.392 -0.1918  0.2097 -0.1758
  866POPE   NH312203  13.746   7.285   5.655 -0.0214 -0.1437 -0.1850
  866POPE   PO412204  13.378   7.474   5.541  0.0574  0.0091  0.2535
  866POPE   GL112205  13.181   7.238   5.812 -0.2845 -0.3028  0.1588
  866POPE   GL212206  12.902   7.494   6.018 -0.0686 -0.0867 -0.2015
  866POPE   C1A12207  13.261   7.127   6.184  0.2729 -0.1767 -0.0174
  866POPE   D2A12208  13.164   7.156   6.682  0.0076 -0.1536 -0.1657
  866POPE   C3A12209  12.885   6.968   7.003  0.1275  0.2075  0.1168
  866POPE   C4A12210  12.817   6.724   7.419 -0.0343 -0.1078  0.3954
  866POPE   C1B12211  12.972   7.534   6.475 -0.2201  0.0660 -0.5191
  866POPE   C2B12212  12.905   7.522   6.945  0.0132 -0.2300 -0.3460
  866POPE   C3B12213  12.864   7.347   7.327 -0.2938  0.1200 -0.3308
  866POPE   C4B12214  12.595   7.357   7.691 -0.1851 -0.1483  0.2596
  867POPE   NH312215   0.190  13.225   5.429  0.0763  0.1388 -0.0738
  867POPE   PO412216   0.332  13.576   5.764 -0.0056  0.0823 -0.1441
  867POPE   GL112217   0.510  13.746   6.101 -0.3377 -0.1975  0.1462
  867POPE   GL212218   0.270  13.562   6.263  0.1908  0.0682 -0.0619
  867POPE   C1A12219   0.509  14.110   6.487  0.0718 -0.0100  0.2393
  867POPE   D2A12220   0.326  14.122   6.892 -0.1479  0.0255 -0.0633
  867POPE   C3A12221   0.427  14.018   7.322 -0.1176 -0.1263 -0.0353
  867POPE   C4A12222   0.469  14.071   7.657  0.1069  0.1892 -0.2663
  867POPE   C1B12223   0.395  13.634   6.627 -0.2520 -0.0275 -0.2574
  867POPE   C2B12224   0.369  13.648   6.988 -0.0262 -0.0191  0.0214
  867POPE   C3B12225   0.591  13.555   7.319  0.0893 -0.0896 -0.2120
  867POPE   C4B12226   0.870  13.699   7.679 -0.2301 -0.0544 -0.3294
  868POPE   NH312227   2.099   8.682   5.888 -0.2211  0.0684  0.0121
  868POPE   PO412228   1.807   8.499   6.155  0.2627  0.0534 -0.0821
  868POPE   GL112229   1.787   8.771   6.409  0.0983  0.0430  0.4215
  868POPE   GL212230   1.802   9.090   6.575 -0.0726 -0.0616  0.0228
  868POPE   C1A12231   1.623   8.688   6.827 -0.2579  0.1447 -0.0417
  868POPE   D2A12232   1.848   8.465   7.123  0.1797 -0.1433  0.3316
  868POPE   C3A12233   2.038   8.336   7.460  0.2333  0.1330  0.0716
  868POPE   C4A12234   2.250   8.136   7.719  0.0578  0.0477 -0.1350
  868POPE   C1B12235   1.781   9.116   7.049  0.0123 -0.0061 -0.3088
  868POPE   C2B12236   1.909   8.861   7.376  0.0732  0.2545  0.2133
  868POPE   C3B12237   1.752   8.680   7.740 -0.4891 -0.1944  0.2476
  868POPE   C4B12238   1.863   8.410   7.987  0.1731  0.0068 -0.3191
  869POPE   NH312239   6.773  15.334   5.919  0.2206 -0.0939 -0.3886
  869POPE   PO412240   6.579  14.965   6.035  0.0934 -0.0511 -0.2030
  869POPE   GL112241   6.775  14.932   6.515 -0.2555  0.2157 -0.0008
  869POPE   GL212242   6.740  15.209   6.475  0.0713  0.1824  0.1265
  869POPE   C1A12243   6.995  14.886   6.952 -0.0579  0.1647  0.2345
  869POPE   D2A12244   6.922  14.777   7.435 -0.0991  0.3902  0.0808
  869POPE   C3A12245   7.248  14.867   7.761  0.3128 -0.1313 -0.1208
  869POPE   C4A12246   7.470  15.186   8.067 -0.2261 -0.0500 -0.0998
  869POPE   C1B12247   6.782  15.306   6.897  0.0645  0.0732 -0.1943
  869POPE   C2B12248   6.756  15.281   7.370  0.1156 -0.5168  0.3575
  869POPE   C3B12249   6.858  15.508   7.730 -0.1323 -0.0251 -0.0301
  869POPE   C4B12250   7.257  15.497   7.689  0.0014  0.1109  0.3137
  870POPE   NH312251  14.659  15.037   5.602  0.0262  0.1784 -0.0851
  870POPE   PO412252  15.156  15.141   5.579  0.0346  0.2226  0.0718
  870POPE   GL112253  15.030  15.077   6.055 -0.0089  0.1855 -0.0965
  870POPE   GL212254  14.737  15.093   6.070 -0.2017  0.0480 -0.2049
  870POPE   C1A12255  15.285  15.281   6.382  0.1243 -0.1537 -0.2504
  870POPE   D2A12256  15.224  15.546   6.786 -0.1038  0.2193  0.4835
  870POPE   C3A12257  14.963  15.648   7.168 -0.5929 -0.1026  0.1542
  870POPE   C4A12258  14.618  15.856   7.291  0.0870 -0.0073 -0.2936
  870POPE   C1B12259  14.852  15.048   6.529  0.1485 -0.0614  0.2948
  870POPE   C2B12260  15.057  15.071   6.881  0.3886 -0.1554  0.2480
  870POPE   C3B12261  15.063  15.105   7.305 -0.0265  0.2336 -0.0534
  870POPE   C4B12262  15.238  15.160   7.723 -0.0370  0.2811  0.0636
  871POPE   NH312263  14.389  15.886   5.806  0.1013 -0.0722  0.2172
  871POPE   PO412264  14.477  16.323   5.723 -0.0959  0.2260  0.2952
  871POPE   GL112265  14.296  16.224   6.127 -0.0824 -0.1012 -0.4725
  871POPE   GL212266  14.425  16.033   6.301 -0.1691 -0.1561 -0.0070
  871POPE   C1A12267  14.108  16.464   6.382  0.0681 -0.1089 -0.2718
  871POPE   D2A12268  13.670  16.514   6.469  0.1891 -0.0882  0.1313
  871POPE   C3A12269  13.660  16.607   6.837 -0.1011  0.1354  0.1320
  871POPE   C4A12270  13.774  16.642   7.239 -0.3358 -0.4143 -0.0475
  871POPE   C1B12271  14.625  16.339   6.629 -0.0731  0.1485  0.0960
  871POPE   C2B12272  14.526  16.337   7.090  0.0535 -0.0155 -0.0196
  871POPE   C3B12273  14.607  16.516   7.448 -0.2102  0.0547 -0.1678
  871POPE   C4B12274  14.530  16.622   7.848  0.0883 -0.2380  0.2493
  872YOPE   NH312275  11.676   9.535   5.368 -0.2700 -0.1540  0.4094
  872YOPE   PO412276  11.378   9.348   5.587  0.0096 -0.0441 -0.2687
  872YOPE   GL112277  11.559   9.318   6.015 -0.1394 -0.1531  0.0520
  872YOPE   GL212278  11.632   9.123   6.046 -0.2672 -0.0717 -0.0764
  872YOPE   C1A12279  11.620   9.653   6.262 -0.0448  0.1810  0.1701
  872YOPE   D2A12280  11.989   9.785   6.312 -0.1758 -0.2156  0.3812
  872YOPE   C3A12281  11.995  10.035   6.668  0.3543  0.1261 -0.0392
  872YOPE   C4A12282  11.796  10.092   7.022 -0.0496 -0.0611 -0.1397
  872YOPE   C1B12283  11.762   9.109   6.504 -0.0328 -0.1239  0.0261
  872YOPE   C2B12284  11.890   9.176   6.942  0.4294  0.0477 -0.3039
  872YOPE   D3B12285  12.163   9.195   7.267  0.0524 -0.0920 -0.0123
  872YOPE   C4B12286  12.310   9.526   7.564  0.0965  0.6067 -0.2043
  873YOPE   NH312287   6.610  17.435   5.647 -0.0185  0.1335 -0.0393
  873YOPE   PO412288   6.954  17.757   5.624  0.2616 -0.2519  0.3514
  873YOPE   GL112289   6.851  17.522   6.095  0.0596 -0.0263 -0.0312
  873YOPE   GL212290   6.527  17.488   6.166  0.2681  0.1473  0.1023
  873YOPE   C1A12291   6.877  17.670   6.543  0.0846 -0.1533 -0.0226
  873YOPE   D2A12292   6.643  17.710   6.944  0.0549 -0.0420 -0.1306
  873YOPE   C3A12293   6.827  17.717   7.323 -0.0191  0.0594  0.1859
  873YOPE   C4A12294   6.838  17.965   7.655 -0.0099 -0.0901  0.4234
  873YOPE   C1B12295   6.227  17.420   6.447  0.1459  0.0133 -0.0606
  873YOPE   C2B12296   6.073  17.295   6.788 -0.2614 -0.2207  0.0464
  873YOPE   D3B12297   6.102  17.083   7.180  0.0535  0.1569 -0.0579
  873YOPE   C4B12298   6.476  16.798   7.355 -0.4376 -0.0435 -0.0383
  874YOPE   NH312299   5.839   3.977   5.612 -0.0171 -0.3440 -0.1380
  874YOPE   PO412300   5.452   3.916   5.689 -0.2320  0.1383  0.1748
  874YOPE   GL112301   5.644   3.658   5.984  0.1227 -0.0650 -0.2610
  874YOPE   GL212302   5.850   3.780   6.154 -0.1246  0.1790  0.0030
  874YOPE   C1A12303   5.424   3.604   6.428 -0.0811 -0.1354  0.2735
  874YOPE   D2A12304   5.392   3.648   6.827  0.2348 -0.4385 -0.1335
  874YOPE   C3A12305   5.690   3.481   7.101  0.0048 -0.0692 -0.0312
  874YOPE   C4A12306   5.758   3.080   7.216  0.2289 -0.1596  0.1973
  874YOPE   C1B12307   5.972   3.855   6.504  0.1832  0.0835 -0.4181
  874YOPE   C2B12308   5.917   3.826   6.848  0.1548 -0.0255  0.1795
  874YOPE   D3B12309   5.973   3.833   7.284 -0.0480 -0.0779 -0.2635
  874YOPE   C4B12310   5.605   3.721   7.589  0.0753  0.0604 -0.2375
  875YOPE   NH312311  13.578  12.458   5.846 -0.2976 -0.0556  0.2433
  875YOPE   PO412312  13.992  12.433   5.648  0.2391 -0.1739  0.3365
  875YOPE   GL112313  14.032  12.409   6.111  0.2333 -0.0020 -0.1185
  875YOPE   GL212314  13.836  12.549   6.311  0.0764  0.1215 -0.2066
  875YOPE   C1A12315  14.230  12.209   6.401  0.1640 -0.0373 -0.2110
  875YOPE   D2A12316  14.241  12.110   6.895 -0.1307  0.3063  0.0555
  875YOPE   C3A12317  14.386  11.683   7.112 -0.1592  0.1268  0.1132
  875YOPE   C4A12318  14.677  11.537   7.360 -0.0462 -0.1549 -0.2713
  875YOPE   C1B12319  13.962  12.580   6.724 -0.2090  0.1136 -0.3668
  875YOPE   C2B12320  13.952  12.660   7.156  0.1516  0.0041  0.2447
  875YOPE   D3B12321  13.808  12.459   7.528 -0.0072  0.0566 -0.0777
  875YOPE   C4B12322  13.743  12.459   8.044  0.1986  0.0269 -0.0665
  876YOPE   NH312323   0.536  15.485   5.855 -0.4761 -0.0827 -0.0508
  876YOPE   PO412324   0.985  15.508   5.708  0.0199 -0.0036  0.2471
  876YOPE   GL112325   0.992  15.325   6.103 -0.0125  0.0334  0.1926
  876YOPE   GL212326   1.282  15.176   6.005 -0.0272  0.2600  0.3432
  876YOPE   C1A12327   0.743  15.161   6.501 -0.0371 -0.0655 -0.3541
  876YOPE   D2A12328   0.586  15.005   6.861 -0.3575 -0.2775 -0.0823
  876YOPE   C3A12329   0.377  15.188   7.275  0.1554  0.2648 -0.1822
  876YOPE   C4A12330   0.229  15.148   7.659  0.3931  0.0174 -0.1274
  876YOPE   C1B12331   1.092  14.892   6.301  0.1193 -0.2039 -0.0458
  876YOPE   C2B12332   1.153  14.860   6.805 -0.1820 -0.2289  0.1046
  876YOPE   D3B12333   0.913  14.940   7.193 -0.0139 -0.3566 -0.0326
  876YOPE   C4B12334   0.807  14.764   7.430 -0.0241 -0.1442  0.1478
  877YOPE   NH312335  11.389   0.840   5.661 -0.0961 -0.4139 -0.1662
  877YOPE   PO412336  11.640   1.071   5.783 -0.3969  0.1405  0.1014
  877YOPE   GL112337  11.251   1.142   6.021 -0.0291 -0.0312 -0.0616
  877YOPE   GL212338  10.995   1.383   5.947  0.3165 -0.3749  0.1386
  877YOPE   C1A12339  11.079   0.945   6.382 -0.0282 -0.1815  0.2787
  877YOPE   D2A12340  11.005   0.874   6.839  0.0832  0.3726 -0.2635
  877YOPE   C3A12341  10.778   1.067   7.183 -0.1907 -0.0902 -0.0633
  877YOPE   C4A12342  10.900   1.231   7.551 -0.1233 -0.2236  0.1688
  877YOPE   C1B12343  10.763   1.354   6.361 -0.1332 -0.0278 -0.1868
  877YOPE   C2B12344  10.783   1.437   6.823 -0.0743  0.1330  0.0820
  877YOPE   D3B12345  10.736   1.587   7.230 -0.1457  0.0818  0.0229
  877YOPE   C4B12346  10.432   1.449   7.368  0.0084  0.0100  0.1249
  878YOPE   NH312347   5.726  16.488   5.217  0.0306  0.1011 -0.3560
  878YOPE   PO412348   5.810  16.918   5.453  0.2011  0.1252  0.0342
  878YOPE   GL112349   6.004  16.775   5.849  0.1944 -0.2194 -0.0465
  878YOPE   GL212350   6.210  16.945   6.016 -0.1204  0.2568 -0.0433
  878YOPE   C1A12351   6.225  16.386   5.936  0.2452  0.1016  0.1743
  878YOPE   D2A12352   6.426  16.105   6.298  0.1196  0.1953 -0.3024
  878YOPE   C3A12353   6.231  16.002   6.640 -0.0264  0.0406  0.0567
  878YOPE   C4A12354   6.080  16.058   6.935  0.0737 -0.1066  0.0693
  878YOPE   C1B12355   6.050  16.964   6.448 -0.1124 -0.1791 -0.0022
  878YOPE   C2B12356   6.154  16.703   6.783  0.0886 -0.1136  0.3442
  878YOPE   D3B12357   5.936  16.549   7.110 -0.1631 -0.2893  0.4126
  878YOPE   C4B12358   5.990  16.612   7.503  0.2603  0.0046 -0.0944
  879YOPE   NH312359  13.867  15.236   5.811 -0.0006 -0.1641  0.0712
  879YOPE   PO412360  13.794  15.737   5.779 -0.0708 -0.2890  0.0925
  879YOPE   GL112361  13.514  15.609   6.164  0.1899  0.0587 -0.0219
  879YOPE   GL212362  13.189  15.637   6.173  0.2289  0.0366 -0.2908
  879YOPE   C1A12363  13.404  15.558   6.603 -0.0836 -0.3144 -0.3256
  879YOPE   D2A12364  13.496  15.330   7.045 -0.0371 -0.1584  0.3805
  879YOPE   C3A12365  13.729  15.493   7.497  0.2383 -0.1875  0.0406
  879YOPE   C4A12366  13.928  15.730   7.803  0.0926  0.1312 -0.1610
  879YOPE   C1B12367  12.880  15.813   6.437  0.1650 -0.1072 -0.1032
  879YOPE   C2B12368  12.751  15.931   6.885  0.0360 -0.1340  0.0374
  879YOPE   D3B12369  12.730  15.836   7.300  0.3259 -0.0773 -0.1141
  879YOPE   C4B12370  12.859  16.066   7.666  0.0722 -0.1604 -0.2421
  880YOPE   NH312371   4.953   7.596   6.131 -0.1200  0.3165 -0.1149
  880YOPE   PO412372   5.285   7.650   5.756 -0.1398  0.1544  0.1228
  880YOPE   GL112373   5.644   7.498   6.142 -0.1143 -0.2199 -0.2206
  880YOPE   GL212374   5.375   7.432   6.347  0.0943  0.0013 -0.2688
  880YOPE   C1A12375   5.953   7.414   6.515 -0.4925 -0.0774 -0.2477
  880YOPE   D2A12376   5.882   7.396   7.002  0.1013 -0.3293  0.0404
  880YOPE   C3A12377   5.768   7.855   7.077  0.1466 -0.0064 -0.1218
  880YOPE   C4A12378   5.832   8.206   7.404  0.0683 -0.1451 -0.0692
  880YOPE   C1B12379   5.341   7.311   6.671  0.1614  0.0257  0.0306
  880YOPE   C2B12380   5.396   7.423   7.048 -0.1609  0.1373  0.0544
  880YOPE   D3B12381   5.457   7.655   7.389 -0.0684 -0.1505  0.1103
  880YOPE   C4B12382   5.488   7.901   7.767 -0.1789  0.0533 -0.2767
  881YOPE   NH312383  11.723  15.789   6.061  0.0348 -0.0017  0.1284
  881YOPE   PO412384  11.293  15.806   6.033  0.0793  0.1600 -0.2751
  881YOPE   GL112385  11.417  15.712   6.465 -0.2152  0.1402 -0.1924
  881YOPE   GL212386  11.833  15.671   6.543 -0.0381 -0.2294  0.2287
  881YOPE   C1A12387  11.474  15.633   6.853  0.0007 -0.1022 -0.2293
  881YOPE   D2A12388  11.717  15.644   7.140  0.1119 -0.0537 -0.3283
  881YOPE   C3A12389  11.562  15.428   7.502  0.4055 -0.0184  0.2843
  881YOPE   C4A12390  11.478  15.187   7.923 -0.0877  0.1819  0.1697
  881YOPE   C1B12391  11.753  15.239   6.684  0.1682 -0.0823 -0.0518
  881YOPE   C2B12392  11.779  15.174   7.080  0.1116  0.0580 -0.2056
  881YOPE   D3B12393  11.902  15.073   7.507 -0.0517 -0.1952 -0.2686
  881YOPE   C4B12394  11.891  14.805   7.885  0.0623 -0.0868 -0.0729
  882YOPE   NH312395  11.858   4.145   5.625 -0.0900 -0.0339  0.1192
  882YOPE   PO412396  12.252   3.968   5.661  0.1413 -0.1940 -0.2300
  882YOPE   GL112397  12.024   3.963   6.089 -0.1070 -0.5031 -0.0237
  882YOPE   GL212398  12.168   3.866   6.304  0.1230 -0.1522  0.0105
  882YOPE   C1A12399  11.705   3.801   6.488 -0.3560  0.2855 -0.0755
  882YOPE   D2A12400  11.706   3.851   6.932 -0.1194  0.2536  0.0548
  882YOPE   C3A12401  11.442   4.113   7.212  0.1200 -0.0509 -0.0645
  882YOPE   C4A12402  11.257   4.463   7.258  0.1515  0.0939 -0.1403
  882YOPE   C1B12403  12.274   3.801   6.727 -0.1136  0.1359  0.0626
  882YOPE   C2B12404  12.137   3.836   7.178  0.2373 -0.0849 -0.2227
  882YOPE   D3B12405  12.131   3.685   7.573  0.0474  0.0080  0.2791
  882YOPE   C4B12406  11.920   3.785   8.068 -0.0267 -0.1282 -0.3162
  883YOPE   NH312407  16.409   7.440   5.745 -0.0787  0.1759 -0.2638
  883YOPE   PO412408  16.737   7.446   6.089 -0.0352 -0.0421 -0.2070
  883YOPE   GL112409  16.804   7.184   6.377  0.0920 -0.1507 -0.2375
  883YOPE   GL212410  17.069   7.158   6.442  0.4443 -0.0049  0.0428
  883YOPE   C1A12411  16.661   7.149   6.851  0.1591  0.1317 -0.0469
  883YOPE   D2A12412  16.658   7.186   7.230  0.0362  0.1899  0.1471
  883YOPE   C3A12413  16.462   7.556   7.437  0.2064 -0.1251 -0.2843
  883YOPE   C4A12414  16.173   7.607   7.870  0.1247 -0.1298 -0.1906
  883YOPE   C1B12415  17.184   7.108   6.792  0.2918 -0.0275 -0.1585
  883YOPE   C2B12416  17.118   6.984   7.290 -0.3010 -0.2125 -0.0560
  883YOPE   D3B12417  16.826   6.975   7.666  0.0321  0.0478  0.2269
  883YOPE   C4B12418  16.914   6.704   7.968  0.0869  0.1420  0.0296
  884YOPE   NH312419   0.814  12.842   6.124 -0.0857 -0.1350  0.3396
  884YOPE   PO412420   0.731  13.293   6.010  0.3658  0.0335 -0.1916
  884YOPE   GL112421   0.661  13.297   6.431 -0.2050 -0.0801  0.0437
  884YOPE   GL212422   0.394  13.008   6.409 -0.0240 -0.1188 -0.2353
  884YOPE   C1A12423   0.707  13.188   6.939 -0.2781 -0.2608  0.1076
  884YOPE   D2A12424   0.701  13.082   7.373 -0.1151  0.3134 -0.1098
  884YOPE   C3A12425   0.521  13.271   7.808  0.1342 -0.1100 -0.0304
  884YOPE   C4A12426   0.434  13.086   8.228 -0.0444 -0.2130  0.3620
  884YOPE   C1B12427   0.265  13.095   6.845  0.2748 -0.0351  0.2379
  884YOPE   C2B12428   0.180  13.278   7.238  0.1216 -0.2454 -0.0230
  884YOPE   D3B12429   0.119  13.487   7.576 -0.0892 -0.0637  0.1852
  884YOPE   C4B12430  -0.010  13.927   7.829  0.0655 -0.0210  0.1655
  885YOPE   NH312431   2.156  13.443   5.785  0.2129 -0.1535 -0.1570
  885YOPE   PO412432   2.298  13.886   5.685  0.2240 -0.2515 -0.1657
  885YOPE   GL112433   2.108  13.879   6.076 -0.0925 -0.1824 -0.1984
  885YOPE   GL212434   2.323  14.190   6.140 -0.1069 -0.0629  0.1591
  885YOPE   C1A12435   1.820  13.810   6.471  0.3663  0.2625  0.3887
  885YOPE   D2A12436   1.468  13.661   6.582  0.1586 -0.1911  0.2322
  885YOPE   C3A12437   1.304  13.409   6.963  0.1410 -0.0577 -0.1475
  885YOPE   C4A12438   1.130  13.510   7.302  0.2591 -0.1732 -0.0148
  885YOPE   C1B12439   2.478  14.410   6.474 -0.1219  0.1756 -0.4829
  885YOPE   C2B12440   2.498  14.666   6.833 -0.1374 -0.1472 -0.1569
  885YOPE   D3B12441   2.323  14.497   7.174  0.0859  0.0500 -0.1471
  885YOPE   C4B12442   2.264  14.416   7.620  0.2865 -0.3013  0.0091
  886YOPE   NH312443  10.109   9.565   5.806 -0.1495  0.0640 -0.2271
  886YOPE   PO412444   9.991   9.128   5.871 -0.3109  0.1113 -0.0065
  886YOPE   GL112445  10.213   9.321   6.257 -0.0767 -0.1526 -0.0879
  886YOPE   GL212446  10.027   9.678   6.304  0.1283  0.0051  0.1312
  886YOPE   C1A12447  10.496   9.346   6.638 -0.2153  0.0522  0.0381
  886YOPE   D2A12448  10.665   9.388   7.026 -0.1614 -0.1014  0.0590
  886YOPE   C3A12449  10.426   9.513   7.375 -0.0004  0.3320  0.0445
  886YOPE   C4A12450   9.997   9.810   7.546 -0.0278 -0.6337  0.0106
  886YOPE   C1B12451  10.273   9.823   6.667  0.1860 -0.1114  0.1093
  886YOPE   C2B12452  10.400   9.905   7.022  0.2361  0.0915 -0.1036
  886YOPE   D3B12453  10.436  10.111   7.367 -0.0747 -0.0626 -0.0099
  886YOPE   C4B12454  10.516  10.512   7.420 -0.0928 -0.1182 -0.1062
  887YOPE   NH312455   2.528  14.428   5.576 -0.3261  0.1443 -0.2391
  887YOPE   PO412456   2.883  14.636   5.832  0.1327  0.1843  0.0792
  887YOPE   GL112457   2.831  14.617   6.159  0.0335  0.2364 -0.0560
  887YOPE   GL212458   2.992  14.384   6.398  0.0514  0.0627  0.0895
  887YOPE   C1A12459   2.607  14.886   6.445 -0.0306 -0.2155  0.0795
  887YOPE   D2A12460   2.598  15.140   6.769  0.1437 -0.0185  0.0993
  887YOPE   C3A12461   2.428  15.032   7.142  0.0635  0.0996  0.2418
  887YOPE   C4A12462   2.383  15.264   7.443  0.0692 -0.2506  0.0633
  887YOPE   C1B12463   2.920  14.450   6.745 -0.0161  0.3348 -0.0121
  887YOPE   C2B12464   2.874  14.489   7.178  0.1651  0.4916  0.3146
  887YOPE   D3B12465   2.690  14.668   7.508  0.0423  0.0517  0.1434
  887YOPE   C4B12466   2.735  14.910   7.819 -0.1696  0.1599  0.0620
  888YOPE   NH312467   8.260   2.010   5.443  0.1315 -0.0835  0.0034
  888YOPE   PO412468   8.326   1.498   5.573 -0.0924 -0.1533 -0.1734
  888YOPE   GL112469   8.153   1.671   5.974  0.0041 -0.1412 -0.3256
  888YOPE   GL212470   8.422   1.725   6.121  0.3080 -0.0150 -0.1976
  888YOPE   C1A12471   7.880   1.797   6.301 -0.3574  0.4293  0.1212
  888YOPE   D2A12472   7.836   1.853   6.777 -0.4278 -0.2154 -0.2905
  888YOPE   C3A12473   7.983   1.636   7.174  0.1268 -0.0249 -0.1535
  888YOPE   C4A12474   7.964   1.572   7.541  0.1907  0.0231 -0.1020
  888YOPE   C1B12475   8.269   1.744   6.526  0.3687 -0.0464 -0.3954
  888YOPE   C2B12476   8.259   2.018   6.982  0.2045  0.6226 -0.2402
  888YOPE   D3B12477   8.179   2.013   7.397  0.1111  0.1961  0.1533
  888YOPE   C4B12478   7.965   2.285   7.649 -0.0390 -0.2371  0.2685
  889YOPE   NH312479  12.534   4.836   5.286 -0.0626 -0.0392  0.0883
  889YOPE   PO412480  12.804   5.323   5.285 -0.2173  0.1742  0.3309
  889YOPE   GL112481  12.652   5.431   5.719 -0.0583  0.1151 -0.0276
  889YOPE   GL212482  12.336   5.310   5.673 -0.3209  0.0515  0.1885
  889YOPE   C1A12483  12.558   5.388   6.126  0.0802  0.0632 -0.0865
  889YOPE   D2A12484  12.244   5.343   6.313  0.1268  0.1079 -0.4230
  889YOPE   C3A12485  12.033   5.031   6.483 -0.2041 -0.0437 -0.0812
  889YOPE   C4A12486  11.967   4.744   6.789 -0.0538  0.2710  0.1443
  889YOPE   C1B12487  12.093   5.024   5.994  0.2566  0.0776  0.1349
  889YOPE   C2B12488  11.596   4.924   6.225 -0.1359 -0.0328 -0.0384
  889YOPE   D3B12489  11.191   4.809   6.400  0.2403  0.1035  0.0326
  889YOPE   C4B12490  10.792   4.734   6.222  0.0699 -0.2341 -0.0324
  890YOPE   NH312491   8.748   3.087   5.271  0.3189  0.1955  0.1095
  890YOPE   PO412492   8.866   3.568   5.209  0.0007  0.0564 -0.2172
  890YOPE   GL112493   8.906   3.470   5.639 -0.1283  0.3396  0.0486
  890YOPE   GL212494   9.112   3.252   5.748 -0.0181 -0.0893 -0.2781
  890YOPE   C1A12495   8.714   3.399   5.985  0.0025 -0.1837 -0.0128
  890YOPE   D2A12496   8.571   3.268   6.287  0.2768 -0.0772 -0.0427
  890YOPE   C3A12497   8.704   2.915   6.482  0.0574  0.1299  0.3094
  890YOPE   C4A12498   8.780   2.797   6.903  0.1807 -0.0639  0.1786
  890YOPE   C1B12499   8.886   2.836   5.999  0.1227 -0.1204  0.0533
  890YOPE   C2B12500   8.529   2.618   6.045 -0.0653 -0.1723 -0.4208
  890YOPE   D3B12501   8.179   2.580   6.359 -0.1067 -0.1094 -0.3319
  890YOPE   C4B12502   8.061   2.194   6.505 -0.2357 -0.0424  0.0238
  891YOPE   NH312503   9.315  16.788   5.838 -0.0031  0.0546  0.0332
  891YOPE   PO412504   9.564  17.159   5.704  0.1599 -0.3489 -0.0042
  891YOPE   GL112505   9.432  17.391   6.007 -0.0747  0.2669 -0.3738
  891YOPE   GL212506   9.289  17.259   6.290  0.1141 -0.0807 -0.2360
  891YOPE   C1A12507   9.599  17.621   6.415 -0.3321  0.2937 -0.1012
  891YOPE   D2A12508   9.814  17.819   6.746  0.0394  0.2634 -0.1581
  891YOPE   C3A12509   9.865  17.903   7.087 -0.1137 -0.1683  0.1261
  891YOPE   C4A12510  10.061  18.133   7.449 -0.1205 -0.0712 -0.0806
  891YOPE   C1B12511   9.328  17.362   6.748  0.1597 -0.2158  0.2058
  891YOPE   C2B12512   9.524  17.544   7.011  0.1330 -0.2075  0.0167
  891YOPE   D3B12513   9.394  17.548   7.384 -0.1554 -0.0207 -0.2095
  891YOPE   C4B12514   9.297  17.646   7.789  0.2579  0.3077 -0.2772
  892YOPE   NH312515  18.069  12.481   6.003 -0.0177 -0.0219 -0.1865
  892YOPE   PO412516  17.747  12.301   5.949 -0.1025 -0.0074 -0.1595
  892YOPE   GL112517  17.908  12.124   6.394  0.1608 -0.0285  0.1709
  892YOPE   GL212518  18.220  12.177   6.401  0.1062 -0.1100 -0.0594
  892YOPE   C1A12519  17.749  12.032   6.846  0.2794  0.1992 -0.0798
  892YOPE   D2A12520  17.825  11.791   7.115 -0.0116  0.1523 -0.0707
  892YOPE   C3A12521  17.874  11.923   7.455 -0.1081  0.3460  0.1675
  892YOPE   C4A12522  18.084  12.028   7.773  0.1686  0.0354 -0.2877
  892YOPE   C1B12523  18.482  12.267   6.716 -0.1510 -0.1133  0.1136
  892YOPE   C2B12524  18.554  12.567   7.053 -0.0841 -0.0517 -0.2359
  892YOPE   D3B12525  18.880  12.636   7.314  0.0601  0.1920 -0.1109
  892YOPE   C4B12526  18.732  12.874   7.763 -0.0863 -0.2517 -0.3713
  893YOPE   NH312527   2.409   2.011   5.595 -0.3039  0.0032 -0.0060
  893YOPE   PO412528   2.507   1.622   5.627  0.0812  0.2442 -0.1006
  893YOPE   GL112529   2.354   1.526   5.976  0.0931  0.0772 -0.1127
  893YOPE   GL212530   2.448   1.289   6.119  0.1358 -0.2563 -0.3172
  893YOPE   C1A12531   2.335   1.635   6.491  0.0881  0.0904  0.2533
  893YOPE   D2A12532   2.300   1.654   6.920 -0.1279 -0.2506 -0.1951
  893YOPE   C3A12533   2.509   1.474   7.261 -0.2263 -0.0517 -0.0355
  893YOPE   C4A12534   2.925   1.392   7.483  0.0455  0.2700  0.1324
  893YOPE   C1B12535   2.389   1.152   6.552 -0.0398 -0.0323  0.0645
  893YOPE   C2B12536   2.292   1.107   6.923 -0.0478  0.1701  0.0478
  893YOPE   D3B12537   2.279   1.026   7.399  0.0415  0.1873 -0.2776
  893YOPE   C4B12538   2.054   1.117   7.760  0.1489 -0.1519  0.2469
  894YOPE   NH312539  16.834   2.309   5.920  0.2045  0.3472 -0.2190
  894YOPE   PO412540  16.410   2.308   5.808 -0.2480 -0.0391 -0.0300
  894YOPE   GL112541  16.449   2.502   6.222  0.2117 -0.1652 -0.1354
  894YOPE   GL212542  16.713   2.438   6.370  0.1823  0.1610  0.0277
  894YOPE   C1A12543  16.316   2.280   6.673  0.3599  0.3188 -0.2811
  894YOPE   D2A12544  16.488   2.226   7.057 -0.0225 -0.0997 -0.2782
  894YOPE   C3A12545  16.225   2.250   7.379 -0.1126 -0.2044 -0.1296
  894YOPE   C4A12546  15.890   2.313   7.819 -0.1658  0.0827 -0.2828
  894YOPE   C1B12547  16.844   2.279   6.744 -0.0636  0.2079  0.0997
  894YOPE   C2B12548  17.005   2.284   7.206 -0.0428 -0.1198  0.0426
  894YOPE   D3B12549  16.713   2.394   7.458 -0.1829  0.0103  0.1096
  894YOPE   C4B12550  16.420   2.539   7.742 -0.0553  0.0654 -0.1979
  895YOPE   NH312551  13.240  16.534   6.023 -0.1427 -0.0253 -0.0852
  895YOPE   PO412552  12.821  16.500   5.995  0.1909 -0.1558 -0.2292
  895YOPE   GL112553  12.408  16.867   6.125 -0.1774  0.1990  0.1798
  895YOPE   GL212554  12.517  16.689   6.425 -0.0434 -0.1690  0.0928
  895YOPE   C1A12555  12.051  17.040   6.397 -0.2530  0.0223 -0.2658
  895YOPE   D2A12556  11.826  17.176   6.867 -0.2072  0.0480  0.1229
  895YOPE   C3A12557  11.951  17.488   7.205 -0.2425  0.5058  0.3291
  895YOPE   C4A12558  11.876  17.670   7.578  0.1682 -0.2573 -0.3435
  895YOPE   C1B12559  12.304  16.957   6.829 -0.0826 -0.1265 -0.4093
  895YOPE   C2B12560  12.275  17.122   7.191  0.2071 -0.0921  0.2746
  895YOPE   D3B12561  12.115  17.067   7.503  0.0914  0.1358 -0.0977
  895YOPE   C4B12562  11.730  17.083   7.783  0.0302 -0.0030  0.2711
  896YOPE   NH312563  13.486   0.143   5.829 -0.0976  0.2897  0.2130
  896YOPE   PO412564  13.051   0.172   5.997 -0.0414  0.0792 -0.2308
  896YOPE   GL112565  13.189   0.227   6.354 -0.1184  0.1243 -0.2364
  896YOPE   GL212566  13.263  -0.053   6.512 -0.0511 -0.2237  0.2523
  896YOPE   C1A12567  13.232   0.415   6.739 -0.3334  0.0823  0.3547
  896YOPE   D2A12568  13.333   0.495   7.121  0.0538  0.0816 -0.0926
  896YOPE   C3A12569  13.220   0.403   7.581  0.1567  0.2247  0.0297
  896YOPE   C4A12570  13.204   0.548   7.922 -0.2658  0.0965  0.0293
  896YOPE   C1B12571  13.379  -0.094   6.857  0.0451 -0.3191 -0.0048
  896YOPE   C2B12572  13.301  -0.020   7.297 -0.0812  0.0054  0.1517
  896YOPE   D3B12573  13.439  -0.018   7.662  0.0306 -0.2108 -0.1733
  896YOPE   C4B12574  13.528  -0.001   8.103  0.1584 -0.2256  0.1076
  897YOPE   NH312575   8.143   9.225   6.258  0.0778 -0.0164  0.2879
  897YOPE   PO412576   8.498   9.088   5.958  0.1474  0.3110 -0.0780
  897YOPE   GL112577   8.601   8.994   6.298  0.0791 -0.1105 -0.1702
  897YOPE   GL212578   8.364   8.755   6.380  0.0780 -0.0545  0.0868
  897YOPE   C1A12579   8.782   8.942   6.711  0.0066 -0.0080  0.0384
  897YOPE   D2A12580   8.824   8.750   7.050  0.1095 -0.1521 -0.2663
  897YOPE   C3A12581   9.298   8.587   7.136  0.1431 -0.0116  0.0154
  897YOPE   C4A12582   9.602   8.655   7.578 -0.2877 -0.0302  0.1065
  897YOPE   C1B12583   8.356   8.698   6.714  0.1122 -0.1884 -0.0366
  897YOPE   C2B12584   8.191   8.624   7.152  0.0196  0.0153  0.2479
  897YOPE   D3B12585   8.371   8.637   7.555  0.3521  0.1907  0.0986
  897YOPE   C4B12586   8.374   8.636   7.991 -0.0465  0.1028 -0.1448
  898YOPE   NH312587  16.599   9.395   6.325  0.0496 -0.0897 -0.0609
  898YOPE   PO412588  16.841   9.091   6.060  0.2621 -0.0330 -0.0277
  898YOPE   GL112589  16.982   9.015   6.478  0.1552 -0.0229 -0.1157
  898YOPE   GL212590  16.859   9.055   6.731 -0.2558 -0.0049 -0.0278
  898YOPE   C1A12591  17.241   8.804   6.828  0.2659 -0.1349  0.0232
  898YOPE   D2A12592  17.567   8.603   6.844  0.0678  0.2118  0.0305
  898YOPE   C3A12593  17.739   8.475   7.246  0.0438 -0.1266  0.0434
  898YOPE   C4A12594  17.760   8.467   7.744  0.0727  0.1225  0.1848
  898YOPE   C1B12595  16.700   9.302   7.073 -0.0399 -0.1173 -0.1350
  898YOPE   C2B12596  16.578   9.298   7.538  0.0232  0.0833  0.1609
  898YOPE   D3B12597  16.624   9.162   7.974  0.0699  0.1365 -0.1170
  898YOPE   C4B12598  16.539   8.846   8.232  0.2787  0.1764 -0.0504
  899YOPE   NH312599  13.593  17.397   5.678  0.2199 -0.0286  0.2320
  899YOPE   PO412600  13.955  17.207   5.711  0.1040 -0.1449  0.0940
  899YOPE   GL112601  14.029  17.072   6.116 -0.2409 -0.1983  0.1247
  899YOPE   GL212602  14.259  17.370   6.112 -0.2858 -0.1256  0.0071
  899YOPE   C1A12603  13.790  16.993   6.530  0.0009 -0.1678  0.1466
  899YOPE   D2A12604  13.869  17.094   6.962 -0.0824  0.1399  0.1385
  899YOPE   C3A12605  14.170  16.970   7.167  0.0516 -0.0760  0.1299
  899YOPE   C4A12606  14.413  16.971   7.522 -0.1621 -0.2861 -0.0779
  899YOPE   C1B12607  14.293  17.748   6.431  0.0805  0.2150 -0.0430
  899YOPE   C2B12608  14.225  17.788   6.829  0.1356 -0.0311  0.0787
  899YOPE   D3B12609  14.110  17.558   7.187  0.0589  0.3389 -0.0889
  899YOPE   C4B12610  13.709  17.545   7.273  0.4279  0.1177 -0.1404
  900YOPE   NH312611   1.077   5.615   6.117  0.2418 -0.2386 -0.2231
  900YOPE   PO412612   1.334   6.007   6.077 -0.0321 -0.2026 -0.0086
  900YOPE   GL112613   1.042   6.023   6.443  0.3192 -0.2820 -0.5785
  900YOPE   GL212614   0.626   6.029   6.433  0.1229  0.1618  0.6023
  900YOPE   C1A12615   1.064   5.984   6.905 -0.1546  0.0039  0.0770
  900YOPE   D2A12616   1.308   5.907   7.277  0.0307  0.1293 -0.1231
  900YOPE   C3A12617   1.457   5.992   7.724  0.1652  0.4034 -0.1094
  900YOPE   C4A12618   1.771   6.198   8.017 -0.0979  0.0120 -0.0200
  900YOPE   C1B12619   0.668   6.263   6.911  0.2895  0.2655 -0.4033
  900YOPE   C2B12620   0.839   6.309   7.260  0.1000 -0.1172 -0.2631
  900YOPE   D3B12621   0.898   6.001   7.584  0.2801 -0.0241  0.1067
  900YOPE   C4B12622   1.041   5.727   7.865  0.0294 -0.1096 -0.2509
  901YOPE   NH312623   6.240  17.105   5.521  0.0880  0.1292 -0.1086
  901YOPE   PO412624   6.651  16.955   5.704  0.0128 -0.0365  0.0327
  901YOPE   GL112625   6.681  16.592   5.938 -0.2014  0.0632  0.0466
  901YOPE   GL212626   6.940  16.423   6.056 -0.0579  0.2330 -0.1033
  901YOPE   C1A12627   6.531  16.575   6.307  0.2200 -0.0604 -0.2210
  901YOPE   D2A12628   6.596  16.472   6.739 -0.2662 -0.0470 -0.1379
  901YOPE   C3A12629   6.457  16.360   7.081 -0.1579 -0.2367 -0.1878
  901YOPE   C4A12630   6.293  16.224   7.431 -0.0426  0.1050 -0.2029
  901YOPE   C1B12631   7.017  16.694   6.393  0.0811 -0.0773  0.0380
  901YOPE   C2B12632   7.141  16.561   6.786  0.2450  0.1888  0.2178
  901YOPE   D3B12633   6.915  16.691   7.051  0.0709  0.0783 -0.3809
  901YOPE   C4B12634   6.936  16.927   7.442 -0.0238  0.0552  0.4218
  902YOPE   NH312635   3.309   7.363   5.881 -0.1062 -0.0504 -0.0342
  902YOPE   PO412636   3.754   7.233   5.840  0.0087 -0.0564  0.0055
  902YOPE   GL112637   3.772   7.365   6.276 -0.3641 -0.2711 -0.3511
  902YOPE   GL212638   3.626   7.602   6.320  0.0050 -0.1910  0.0095
  902YOPE   C1A12639   3.969   7.321   6.604  0.1335  0.0297 -0.1401
  902YOPE   D2A12640   3.938   7.280   6.982 -0.4451 -0.1210 -0.2457
  902YOPE   C3A12641   3.865   7.236   7.408 -0.0436  0.0868  0.0551
  902YOPE   C4A12642   3.876   7.000   7.775  0.1061 -0.2862  0.1743
  902YOPE   C1B12643   3.530   7.409   6.773  0.0646 -0.1020  0.1684
  902YOPE   C2B12644   3.367   7.330   7.089 -0.0007  0.1677 -0.1196
  902YOPE   D3B12645   3.450   7.422   7.577  0.2130 -0.0603 -0.0486
  902YOPE   C4B12646   3.460   7.196   7.925  0.0369 -0.1281 -0.2759
  903YOPE   NH312647  12.221  17.084   5.382 -0.2819 -0.1369  0.0544
  903YOPE   PO412648  12.445  17.486   5.487 -0.0401 -0.1077  0.2022
  903YOPE   GL112649  12.258  17.666   5.902 -0.2776 -0.2753 -0.2226
  903YOPE   GL212650  11.940  17.885   5.902  0.1936  0.2761  0.0005
  903YOPE   C1A12651  12.131  17.557   6.329  0.0317  0.2698  0.0375
  903YOPE   D2A12652  12.265  17.492   6.835  0.0511  0.0362  0.0694
  903YOPE   C3A12653  12.315  17.835   7.174  0.0532  0.1181 -0.1600
  903YOPE   C4A12654  12.204  18.335   7.119  0.5008  0.0676 -0.1273
  903YOPE   C1B12655  11.921  18.023   6.314 -0.0512 -0.3631 -0.0232
  903YOPE   C2B12656  11.855  17.879   6.710  0.0169 -0.1953 -0.2631
  903YOPE   D3B12657  11.844  17.990   7.095 -0.0110 -0.2316 -0.1219
  903YOPE   C4B12658  11.648  18.111   7.477 -0.0101  0.2161 -0.2728
  904YOPE   NH312659   9.935  16.822   5.775 -0.1418  0.0489 -0.0864
  904YOPE   PO412660   9.706  16.480   5.821  0.1225 -0.1332  0.1018
  904YOPE   GL112661   9.687  16.604   6.209  0.1467 -0.2673 -0.0182
  904YOPE   GL212662   9.637  16.892   6.179 -0.2374 -0.2498 -0.4112
  904YOPE   C1A12663   9.486  16.352   6.451  0.0038  0.2683  0.0165
  904YOPE   D2A12664   9.205  16.209   6.780 -0.1892  0.3964  0.2505
  904YOPE   C3A12665   9.364  16.176   7.139 -0.0790  0.0215  0.0121
  904YOPE   C4A12666   9.229  16.223   7.473 -0.0857 -0.1236 -0.1937
  904YOPE   C1B12667   9.591  16.918   6.597 -0.1110 -0.0772  0.1233
  904YOPE   C2B12668   9.563  16.662   6.831  0.2934  0.1302 -0.0013
  904YOPE   D3B12669   9.435  16.640   7.269  0.2864 -0.0437 -0.0551
  904YOPE   C4B12670   9.307  16.594   7.772  0.0852  0.1154  0.1401
  905YOPE   NH312671   1.316   8.783   6.298  0.1741  0.0133 -0.0513
  905YOPE   PO412672   1.233   9.225   6.193 -0.3193  0.1670 -0.0474
  905YOPE   GL112673   1.086   9.262   6.566 -0.3341  0.0117  0.1180
  905YOPE   GL212674   0.764   9.316   6.667 -0.0939 -0.0588 -0.1745
  905YOPE   C1A12675   1.207   8.994   6.963  0.0371  0.0807 -0.1149
  905YOPE   D2A12676   0.988   8.994   7.385  0.2328  0.0697  0.1365
  905YOPE   C3A12677   0.722   8.881   7.644  0.0127 -0.0908 -0.0717
  905YOPE   C4A12678   0.810   8.898   8.039  0.1910  0.1833 -0.1651
  905YOPE   C1B12679   0.596   9.148   7.066  0.2138 -0.1553  0.1127
  905YOPE   C2B12680   0.573   9.325   7.517 -0.0837  0.3744  0.0652
  905YOPE   D3B12681   0.633   9.305   7.886  0.2342  0.0579 -0.0388
  905YOPE   C4B12682   0.393   9.522   8.216  0.0176  0.3580 -0.0677
  906YOPE   NH312683   8.937   8.928   5.822 -0.0400  0.0299  0.2840
  906YOPE   PO412684   8.668   8.564   5.902 -0.0621  0.1302  0.1241
  906YOPE   GL112685   8.805   8.507   6.297 -0.1840 -0.1514 -0.2938
  906YOPE   GL212686   8.788   8.151   6.189 -0.0147 -0.2964 -0.0389
  906YOPE   C1A12687   9.166   8.643   6.579 -0.1704 -0.0255 -0.0337
  906YOPE   D2A12688   9.255   9.006   6.785 -0.1171  0.3844  0.3645
  906YOPE   C3A12689   9.587   9.009   6.991  0.0840 -0.0766 -0.1450
  906YOPE   C4A12690   9.793   9.015   7.269  0.3408  0.0634  0.1217
  906YOPE   C1B12691   9.013   8.107   6.543  0.1980 -0.2052 -0.2428
  906YOPE   C2B12692   9.169   8.193   6.951 -0.1203  0.1020  0.2065
  906YOPE   D3B12693   9.531   8.153   7.007  0.3285 -0.0423  0.0651
  906YOPE   C4B12694   9.937   7.997   6.943  0.0484  0.0937  0.1790
  907YOPE   NH312695   8.385   0.591   5.782 -0.2025 -0.2063 -0.1217
  907YOPE   PO412696   8.070   0.318   5.768  0.1910 -0.2137  0.0046
  907YOPE   GL112697   8.138   0.284   6.130 -0.3058  0.1635  0.1004
  907YOPE   GL212698   7.820   0.102   6.261  0.0836 -0.2566 -0.1863
  907YOPE   C1A12699   8.179   0.268   6.557  0.1816  0.3018 -0.0618
  907YOPE   D2A12700   8.114   0.400   6.990  0.2511  0.0126 -0.2239
  907YOPE   C3A12701   8.160   0.647   7.444 -0.0420  0.3720  0.2343
  907YOPE   C4A12702   8.161   0.962   7.620 -0.0118 -0.0236  0.1092
  907YOPE   C1B12703   7.773   0.535   6.355 -0.2780 -0.4661  0.0925
  907YOPE   C2B12704   7.743   0.837   6.738  0.2524  0.3900 -0.0431
  907YOPE   D3B12705   7.807   0.792   7.085  0.0024  0.1760 -0.1060
  907YOPE   C4B12706   7.717   1.030   7.408  0.1162 -0.0344  0.1164
  908YOPE   NH312707  11.403   7.205   5.737  0.0065 -0.1959 -0.0903
  908YOPE   PO412708  11.792   6.993   5.584  0.0168  0.1441 -0.0229
  908YOPE   GL112709  11.646   6.800   5.985  0.3497 -0.0227 -0.2274
  908YOPE   GL212710  11.248   6.647   6.022 -0.1298  0.0208 -0.0573
  908YOPE   C1A12711  11.654   6.815   6.390  0.1565  0.1175 -0.4129
  908YOPE   D2A12712  11.557   7.035   6.748 -0.2804 -0.1179  0.1244
  908YOPE   C3A12713  11.843   6.931   6.982 -0.4329  0.2411  0.3541
  908YOPE   C4A12714  11.845   6.907   7.403 -0.2893  0.2889  0.0882
  908YOPE   C1B12715  11.128   6.555   6.448 -0.2101  0.2253  0.2059
  908YOPE   C2B12716  11.343   6.606   6.800  0.0146  0.1238  0.0265
  908YOPE   D3B12717  11.651   6.465   7.023  0.1860  0.0347  0.0897
  908YOPE   C4B12718  11.611   6.157   7.305  0.0620  0.1132 -0.1924
  909YOPE   NH312719   9.748   1.233   5.564 -0.2229  0.0082  0.1427
  909YOPE   PO412720  10.150   1.185   5.322  0.0125  0.0906 -0.0027
  909YOPE   GL112721  10.246   1.158   5.725  0.0667 -0.1901 -0.0239
  909YOPE   GL212722   9.966   1.381   5.990 -0.0187 -0.3392  0.1096
  909YOPE   C1A12723  10.443   1.080   6.078 -0.1344  0.0571 -0.1964
  909YOPE   D2A12724  10.596   0.918   6.502  0.0128  0.1838 -0.3563
  909YOPE   C3A12725  10.393   1.087   6.800 -0.4295  0.0505  0.0400
  909YOPE   C4A12726  10.093   1.220   7.120  0.0517  0.0387  0.3476
  909YOPE   C1B12727   9.787   1.455   6.413 -0.1256  0.0629  0.2083
  909YOPE   C2B12728   9.655   1.575   6.771 -0.1625  0.0194 -0.1938
  909YOPE   D3B12729   9.548   1.554   7.201 -0.1049 -0.1181 -0.0838
  909YOPE   C4B12730   9.538   1.862   7.537  0.2221 -0.0443  0.1161
  910YOPE   NH312731   2.462   4.917   5.693 -0.2795 -0.2646 -0.0174
  910YOPE   PO412732   2.041   4.978   5.825  0.0712 -0.1020 -0.2067
  910YOPE   GL112733   2.098   4.909   6.184  0.1201 -0.2936  0.1356
  910YOPE   GL212734   2.481   4.890   6.179 -0.0539  0.2801 -0.2723
  910YOPE   C1A12735   1.936   4.637   6.436  0.0079  0.2989  0.2588
  910YOPE   D2A12736   1.957   4.223   6.493  0.1572 -0.0272  0.0936
  910YOPE   C3A12737   1.913   4.309   6.980 -0.1679  0.0605  0.0468
  910YOPE   C4A12738   1.931   4.530   7.386  0.0303  0.0956  0.0383
  910YOPE   C1B12739   2.608   4.958   6.573 -0.1595  0.1475  0.1160
  910YOPE   C2B12740   2.613   4.911   6.961 -0.1093  0.2139 -0.1134
  910YOPE   D3B12741   2.631   4.661   7.419  0.0176 -0.4065 -0.0076
  910YOPE   C4B12742   2.691   4.624   7.908 -0.2000 -0.5676 -0.0603
  911YOPE   NH312743  12.619   0.043   5.867  0.3719  0.1765 -0.0393
  911YOPE   PO412744  12.860  -0.367   5.980 -0.1479 -0.0237  0.0801
  911YOPE   GL112745  13.028  -0.546   6.337  0.1329 -0.0265  0.1895
  911YOPE   GL212746  12.987  -0.454   6.669 -0.2425  0.1527 -0.0309
  911YOPE   C1A12747  13.394  -0.762   6.549 -0.3554  0.0120  0.0433
  911YOPE   D2A12748  13.455  -1.130   6.858  0.1208 -0.2556  0.0604
  911YOPE   C3A12749  13.236  -1.074   7.259 -0.0084 -0.0369  0.1342
  911YOPE   C4A12750  13.383  -0.948   7.641  0.1674  0.1470 -0.0458
  911YOPE   C1B12751  12.840  -0.389   7.039 -0.2629 -0.1910  0.0651
  911YOPE   C2B12752  12.696  -0.343   7.320 -0.1917 -0.0479 -0.0318
  911YOPE   D3B12753  12.437  -0.008   7.520  0.3931 -0.2759  0.1027
  911YOPE   C4B12754  12.282   0.329   7.798 -0.1664  0.0663  0.0120
  912YOPE   NH312755   8.037   4.771   5.412  0.1016 -0.1819 -0.0859
  912YOPE   PO412756   7.659   4.880   5.641  0.1703 -0.2906 -0.0986
  912YOPE   GL112757   7.567   4.752   5.942  0.0322  0.3388 -0.1000
  912YOPE   GL212758   7.536   4.427   5.988  0.2322  0.1203 -0.1940
  912YOPE   C1A12759   7.389   4.718   6.332  0.1012 -0.1692 -0.0204
  912YOPE   D2A12760   7.347   4.752   6.738  0.0099 -0.1371 -0.2859
  912YOPE   C3A12761   7.422   4.564   7.120  0.0241  0.2139  0.0508
  912YOPE   C4A12762   7.748   4.458   7.273  0.0099  0.2802 -0.1800
  912YOPE   C1B12763   7.764   4.378   6.266 -0.0838 -0.0396  0.0509
  912YOPE   C2B12764   8.072   4.452   6.477 -0.0448  0.3214  0.2198
  912YOPE   D3B12765   8.399   4.673   6.663  0.0108  0.0010 -0.1578
  912YOPE   C4B12766   8.288   4.799   7.068 -0.0223  0.0069  0.1474
  913YOPE   NH312767   6.494  17.950   5.877  0.0641 -0.2653 -0.0851
  913YOPE   PO412768   6.758  18.263   5.764  0.7185  0.0729  0.0862
  913YOPE   GL112769   6.891  18.306   6.220 -0.0148  0.3461 -0.1504
  913YOPE   GL212770   6.731  18.023   6.304 -0.4561 -0.1480 -0.1967
  913YOPE   C1A12771   6.807  18.193   6.749  0.0414  0.2629  0.1042
  913YOPE   D2A12772   6.684  18.133   7.192  0.1045 -0.1065  0.0177
  913YOPE   C3A12773   6.625  18.361   7.485  0.1672 -0.3540 -0.0589
  913YOPE   C4A12774   6.829  18.577   7.921 -0.0558 -0.2304  0.0245
  913YOPE   C1B12775   6.446  17.892   6.493 -0.1905  0.1913  0.0689
  913YOPE   C2B12776   6.138  17.769   6.806 -0.0173  0.0050 -0.1147
  913YOPE   D3B12777   6.126  17.581   7.201 -0.2003 -0.1088 -0.0922
  913YOPE   C4B12778   6.422  17.720   7.599 -0.2597  0.0084 -0.1059
  914YOPE   NH312779   6.854  11.129   6.012  0.1007  0.0422 -0.1037
  914YOPE   PO412780   7.311  11.184   6.054  0.1579  0.1254  0.0553
  914YOPE   GL112781   7.134  11.013   6.474 -0.0527  0.0575  0.3772
  914YOPE   GL212782   7.383  11.163   6.658  0.2314  0.1775  0.0591
  914YOPE   C1A12783   6.938  10.998   6.880 -0.0336  0.1238 -0.0859
  914YOPE   D2A12784   6.774  10.974   7.243  0.2811  0.0912 -0.1464
  914YOPE   C3A12785   7.043  10.980   7.616 -0.0019 -0.2994  0.0162
  914YOPE   C4A12786   7.381  10.882   7.975 -0.1455 -0.0597  0.4559
  914YOPE   C1B12787   7.462  10.860   6.974  0.3689 -0.1515 -0.1018
  914YOPE   C2B12788   7.528  10.876   7.407  0.0024  0.1092  0.2816
  914YOPE   D3B12789   7.738  11.012   7.697 -0.2717 -0.0946 -0.0342
  914YOPE   C4B12790   7.935  10.765   8.080  0.0175 -0.0041 -0.3224
  915YOPE   NH312791  11.485   1.505   5.764  0.0423  0.0893  0.3065
  915YOPE   PO412792  11.910   1.639   5.649  0.4630 -0.0547  0.1123
  915YOPE   GL112793  11.776   1.567   6.137  0.1323  0.0609  0.1841
  915YOPE   GL212794  11.717   1.314   6.250 -0.2642  0.2430 -0.2148
  915YOPE   C1A12795  11.622   1.855   6.498 -0.0128 -0.0968  0.0372
  915YOPE   D2A12796  11.856   1.903   6.932  0.3372 -0.2067  0.2197
  915YOPE   C3A12797  11.699   1.833   7.372  0.3732 -0.0722  0.0582
  915YOPE   C4A12798  11.397   1.952   7.662  0.1079 -0.0225  0.1994
  915YOPE   C1B12799  11.870   1.446   6.674 -0.1457 -0.1145  0.1490
  915YOPE   C2B12800  11.772   1.421   7.051 -0.0359 -0.1556  0.2325
  915YOPE   D3B12801  11.956   1.459   7.494  0.1367  0.2839 -0.1047
  915YOPE   C4B12802  11.938   1.231   7.858 -0.0864 -0.0413  0.2888
  916YOPE   NH312803  14.320  18.341   5.833  0.1346  0.0318 -0.1466
  916YOPE   PO412804  14.680  18.569   5.824 -0.1050 -0.0216 -0.1145
  916YOPE   GL112805  14.637  18.743   6.210  0.0231 -0.0773  0.1481
  916YOPE   GL212806  14.298  18.633   6.366  0.1703 -0.1708 -0.1735
  916YOPE   C1A12807  14.667  19.038   6.584 -0.1239  0.1670 -0.0820
  916YOPE   D2A12808  14.576  19.429   6.797 -0.0303 -0.0462  0.0660
  916YOPE   C3A12809  14.690  19.437   7.168  0.1546 -0.2257  0.1659
  916YOPE   C4A12810  14.715  19.412   7.638 -0.1694 -0.3966 -0.0371
  916YOPE   C1B12811  14.478  18.628   6.788 -0.1666 -0.2072 -0.1347
  916YOPE   C2B12812  14.400  18.581   7.177 -0.0014  0.0799 -0.1047
  916YOPE   D3B12813  14.427  18.426   7.620  0.0948 -0.2629  0.0706
  916YOPE   C4B12814  14.724  18.521   7.986 -0.0499 -0.0869 -0.1300
  917YOPE   NH312815   9.951  12.346   5.677  0.1226 -0.0019 -0.1397
  917YOPE   PO412816   9.696  12.634   5.501  0.1150 -0.0935  0.3098
  917YOPE   GL112817   9.726  12.759   5.830  0.0237 -0.0747  0.0004
  917YOPE   GL212818   9.576  12.672   6.140 -0.0544  0.2424  0.4876
  917YOPE   C1A12819   9.827  13.107   6.093  0.3314 -0.1786 -0.1910
  917YOPE   D2A12820   9.856  13.429   6.448 -0.0960 -0.2066  0.0279
  917YOPE   C3A12821   9.968  13.889   6.611  0.2244 -0.1158  0.4057
  917YOPE   C4A12822  10.224  14.182   6.863  0.0625 -0.0496  0.2157
  917YOPE   C1B12823   9.666  13.002   6.554  0.1636 -0.2460  0.1923
  917YOPE   C2B12824   9.731  13.220   6.919  0.0912 -0.0492  0.0739
  917YOPE   D3B12825   9.886  13.664   7.066 -0.2080 -0.0052 -0.0333
  917YOPE   C4B12826  10.167  13.956   7.343 -0.0484 -0.0741  0.1107
  918YOPE   NH312827   7.363  14.630   5.763 -0.0819  0.1412  0.2301
  918YOPE   PO412828   7.462  14.224   5.446  0.0507  0.1846 -0.2174
  918YOPE   GL112829   7.609  14.201   5.905 -0.2031  0.2667  0.1369
  918YOPE   GL212830   7.339  14.097   6.098  0.2285 -0.0291  0.0604
  918YOPE   C1A12831   7.980  13.921   6.150 -0.2949 -0.0362  0.0906
  918YOPE   D2A12832   8.272  13.719   6.358  0.0123 -0.2033  0.0991
  918YOPE   C3A12833   8.000  13.630   6.737  0.1088 -0.1315  0.1136
  918YOPE   C4A12834   7.571  13.573   6.767 -0.0140 -0.0896 -0.2014
  918YOPE   C1B12835   7.339  13.728   6.165 -0.1226 -0.0539  0.1436
  918YOPE   C2B12836   7.208  13.313   6.458  0.0691  0.2613  0.1191
  918YOPE   D3B12837   7.261  13.018   6.761  0.1880  0.2997  0.0350
  918YOPE   C4B12838   7.367  12.880   7.115 -0.0489 -0.1398 -0.0207
  919YOPE   NH312839  14.390   5.483   5.570 -0.1615  0.0397  0.0224
  919YOPE   PO412840  13.980   5.387   5.716  0.0035  0.1410  0.1425
  919YOPE   GL112841  13.977   5.509   6.138 -0.2614  0.0721 -0.4034
  919YOPE   GL212842  13.674   5.633   6.161 -0.1112  0.0438  0.0075
  919YOPE   C1A12843  13.870   5.315   6.552 -0.1577  0.1570 -0.0493
  919YOPE   D2A12844  14.246   5.238   6.784  0.2408  0.0536 -0.1390
  919YOPE   C3A12845  14.099   5.099   7.285  0.1347  0.1037  0.0850
  919YOPE   C4A12846  14.145   4.971   7.740  0.0076  0.0162  0.1538
  919YOPE   C1B12847  13.407   5.397   6.437 -0.0584  0.1770  0.0446
  919YOPE   C2B12848  13.477   5.173   6.839  0.3267  0.1320 -0.1261
  919YOPE   D3B12849  13.558   5.151   7.171 -0.0243 -0.1405 -0.3089
  919YOPE   C4B12850  13.701   5.160   7.586 -0.1703 -0.1829  0.1153
  920YOPE   NH312851   0.422   9.045   6.321 -0.0608 -0.0456 -0.0399
  920YOPE   PO412852   0.109   9.267   6.090  0.0123 -0.2533 -0.0692
  920YOPE   GL112853   0.151   9.438   6.439 -0.3725 -0.3792  0.1255
  920YOPE   GL212854   0.344   9.665   6.522  0.1514 -0.3718  0.1088
  920YOPE   C1A12855  -0.011   9.744   6.835 -0.2933  0.1442 -0.0945
  920YOPE   D2A12856  -0.158   9.898   7.206  0.0484  0.1865 -0.2440
  920YOPE   C3A12857  -0.059   9.884   7.652 -0.1534 -0.1448  0.1460
  920YOPE   C4A12858   0.142   9.992   8.069 -0.1463 -0.0091  0.0817
  920YOPE   C1B12859   0.492   9.693   6.905  0.1934 -0.1342  0.2657
  920YOPE   C2B12860   0.342   9.858   7.287  0.1852 -0.0616  0.1897
  920YOPE   D3B12861   0.482   9.788   7.700 -0.0275  0.2568  0.0608
  920YOPE   C4B12862   0.814   9.763   8.070  0.2082 -0.0913 -0.0552
  921YOPE   NH312863  18.334   3.825   5.162  0.1028  0.1844  0.0632
  921YOPE   PO412864  18.301   3.888   5.597  0.3193  0.0373 -0.2592
  921YOPE   GL112865  18.339   3.914   6.061  0.0716  0.0901  0.2575
  921YOPE   GL212866  18.558   3.763   6.235 -0.1236  0.2086 -0.1130
  921YOPE   C1A12867  18.007   3.737   6.269 -0.0362 -0.0415 -0.4075
  921YOPE   D2A12868  17.732   3.320   6.299  0.0950  0.1266  0.0435
  921YOPE   C3A12869  17.799   3.448   6.680 -0.3098  0.0007 -0.4701
  921YOPE   C4A12870  17.696   3.701   6.989 -0.2131 -0.0128 -0.0584
  921YOPE   C1B12871  18.411   3.452   6.591 -0.1237  0.3561  0.0198
  921YOPE   C2B12872  18.275   3.329   6.996  0.0118  0.1214 -0.2351
  921YOPE   D3B12873  18.580   3.043   7.226 -0.0650  0.0034  0.1235
  921YOPE   C4B12874  18.792   3.027   7.630  0.0312  0.2295 -0.0320
  922YOPE   NH312875   3.916   2.595   5.620  0.0853  0.0245 -0.1966
  922YOPE   PO412876   3.743   2.327   5.509 -0.0696 -0.0703  0.0782
  922YOPE   GL112877   3.709   2.166   5.877  0.1077  0.2354  0.1559
  922YOPE   GL212878   3.903   2.130   6.127 -0.3250 -0.0329  0.0361
  922YOPE   C1A12879   3.611   2.523   6.207 -0.0300  0.2531 -0.1854
  922YOPE   D2A12880   3.506   2.753   6.591 -0.0349  0.2306  0.3499
  922YOPE   C3A12881   3.888   2.913   6.866  0.1779 -0.1539 -0.0146
  922YOPE   C4A12882   4.280   2.766   6.878 -0.1246  0.1884 -0.0554
  922YOPE   C1B12883   3.978   1.967   6.438 -0.0658  0.2157  0.1343
  922YOPE   C2B12884   3.942   1.704   6.834  0.0697 -0.0331 -0.0403
  922YOPE   D3B12885   3.802   1.541   7.281 -0.0297  0.0536  0.4762
  922YOPE   C4B12886   3.597   1.221   7.506 -0.5043 -0.0251  0.0249
  923YOPE   NH312887   9.457   9.304   5.997  0.3867 -0.1553 -0.4126
  923YOPE   PO412888   9.642   9.640   5.933 -0.0479 -0.0628  0.0829
  923YOPE   GL112889   9.532   9.662   6.371 -0.1998 -0.2701 -0.0730
  923YOPE   GL212890   9.308   9.480   6.536 -0.2155  0.0917  0.0676
  923YOPE   C1A12891   9.646   9.883   6.666  0.0984  0.1391  0.1611
  923YOPE   D2A12892   9.811   9.931   6.997  0.2196  0.2931  0.2159
  923YOPE   C3A12893   9.958  10.233   7.209  0.2175 -0.0683  0.1190
  923YOPE   C4A12894  10.085  10.649   7.281 -0.4476  0.1030  0.1412
  923YOPE   C1B12895   9.533   9.443   6.840  0.1908  0.2389  0.0108
  923YOPE   C2B12896   9.655   9.527   7.226  0.1603  0.2784  0.1382
  923YOPE   D3B12897   9.481   9.357   7.562  0.1633  0.0868  0.1771
  923YOPE   C4B12898   9.347   9.114   7.809 -0.0879  0.0859 -0.2159
  924YOPE   NH312899  18.036   0.121   5.562  0.1523 -0.3052 -0.2533
  924YOPE   PO412900  18.080   0.233   5.881 -0.2912 -0.0643 -0.1703
  924YOPE   GL112901  18.482   0.245   6.062  0.1748  0.1660  0.2073
  924YOPE   GL212902  18.683   0.005   6.156 -0.1149 -0.2254  0.0177
  924YOPE   C1A12903  18.545   0.398   6.468 -0.2014 -0.0765  0.2127
  924YOPE   D2A12904  18.625   0.445   6.979  0.0404 -0.0915 -0.0231
  924YOPE   C3A12905  18.453   0.408   7.453  0.2194  0.0189  0.0477
  924YOPE   C4A12906  18.237   0.124   7.752  0.0701  0.0461  0.0550
  924YOPE   C1B12907  18.241  -0.187   6.426  0.4134  0.2052  0.3687
  924YOPE   C2B12908  18.209  -0.273   6.883  0.2626  0.2431  0.2315
  924YOPE   D3B12909  18.328  -0.073   7.323  0.2477  0.2130  0.3152
  924YOPE   C4B12910  18.642  -0.135   7.532 -0.2737  0.0796  0.1589
  925YOPE   NH312911  11.959   8.837   5.832  0.1470  0.3309  0.0184
  925YOPE   PO412912  11.907   9.203   5.635  0.1046  0.1759 -0.3211
  925YOPE   GL112913  12.110   9.297   6.069 -0.0993 -0.0722  0.1710
  925YOPE   GL212914  12.340   9.059   6.134 -0.0784 -0.0782 -0.1053
  925YOPE   C1A12915  12.139   9.351   6.543  0.2178 -0.0653 -0.1955
  925YOPE   D2A12916  11.780   9.630   6.708  0.1399 -0.0884 -0.0638
  925YOPE   C3A12917  11.759   9.604   7.191  0.0691  0.1225 -0.3521
  925YOPE   C4A12918  11.737   9.419   7.675  0.0083  0.2701  0.0072
  925YOPE   C1B12919  12.616   9.030   6.407  0.1664  0.2008 -0.1609
  925YOPE   C2B12920  12.917   8.986   6.757  0.1959 -0.2335  0.3594
  925YOPE   D3B12921  12.802   8.898   7.112  0.1354  0.0570  0.0866
  925YOPE   C4B12922  12.418   8.709   7.239 -0.0903  0.1169  0.1098
  926YOPE   NH312923  15.403   0.119   5.594 -0.1047 -0.0145  0.0522
  926YOPE   PO412924  15.523   0.609   5.584  0.1633  0.1563  0.1823
  926YOPE   GL112925  15.356   0.493   5.996 -0.1186 -0.1793 -0.1398
  926YOPE   GL212926  15.184   0.254   6.184 -0.0766 -0.0775  0.0702
  926YOPE   C1A12927  15.574   0.556   6.321 -0.0724 -0.1469  0.0743
  926YOPE   D2A12928  15.529   0.975   6.464 -0.1343 -0.2275  0.1131
  926YOPE   C3A12929  15.694   0.939   6.740  0.0308 -0.0331 -0.0219
  926YOPE   C4A12930  15.582   0.916   7.232  0.2011 -0.0408  0.1394
  926YOPE   C1B12931  14.936   0.100   6.592 -0.0482 -0.1687 -0.0196
  926YOPE   C2B12932  15.064   0.053   7.041 -0.1989 -0.3502 -0.1199
  926YOPE   D3B12933  14.934   0.066   7.491  0.2832 -0.1822  0.1309
  926YOPE   C4B12934  15.056   0.461   7.824  0.2609 -0.3021 -0.0349
  927YOPE   NH312935   4.281  15.688   5.608  0.0310 -0.0163  0.2175
  927YOPE   PO412936   4.454  15.319   5.434 -0.1852  0.1225  0.2279
  927YOPE   GL112937   4.633  15.199   5.842 -0.3355 -0.0631  0.0320
  927YOPE   GL212938   4.394  15.340   6.039 -0.3738  0.1004  0.1501
  927YOPE   C1A12939   4.992  15.288   6.015 -0.1073  0.3132 -0.1465
  927YOPE   D2A12940   5.361  15.451   6.355 -0.3573  0.2590 -0.0018
  927YOPE   C3A12941   5.170  15.661   6.763 -0.1163 -0.1448 -0.2313
  927YOPE   C4A12942   5.305  15.572   7.213 -0.1911  0.2166 -0.0448
  927YOPE   C1B12943   4.154  15.541   6.265 -0.1120  0.0129 -0.1767
  927YOPE   C2B12944   4.170  15.761   6.642  0.0973 -0.1822  0.0396
  927YOPE   D3B12945   4.310  15.854   7.096  0.0492  0.2479  0.1574
  927YOPE   C4B12946   4.142  16.102   7.384 -0.1756 -0.2724 -0.0924
  928YOPE   NH312947   0.677   7.189   6.316 -0.2368 -0.2166  0.1664
  928YOPE   PO412948   0.252   6.900   6.337  0.0168  0.0514 -0.3981
  928YOPE   GL112949  -0.053   6.930   6.634  0.1090 -0.1949 -0.2362
  928YOPE   GL212950   0.075   7.283   6.661 -0.0993  0.2445 -0.0333
  928YOPE   C1A12951  -0.407   6.950   6.954  0.0548  0.1376 -0.2536
  928YOPE   D2A12952  -0.491   6.914   7.421 -0.1078 -0.0557  0.0056
  928YOPE   C3A12953  -0.489   6.526   7.622 -0.0603  0.0677  0.0596
  928YOPE   C4A12954  -0.775   6.243   7.875 -0.3475 -0.2853  0.0989
  928YOPE   C1B12955   0.016   7.134   7.107  0.1123  0.2916  0.3016
  928YOPE   C2B12956  -0.086   7.222   7.574 -0.1133  0.0013 -0.2644
  928YOPE   D3B12957  -0.260   7.128   7.999 -0.1681  0.2078 -0.0342
  928YOPE   C4B12958  -0.183   6.727   7.988 -0.0979  0.0123  0.0947
  929YOPE   NH312959  13.069   5.068   5.688  0.0739  0.5860  0.0767
  929YOPE   PO412960  12.995   4.657   5.500 -0.2062  0.0104  0.1372
  929YOPE   GL112961  13.077   4.634   5.987  0.1496 -0.1153 -0.0615
  929YOPE   GL212962  13.207   4.882   6.130  0.2085  0.0221  0.4316
  929YOPE   C1A12963  12.996   4.447   6.302 -0.1363 -0.0110 -0.0674
  929YOPE   D2A12964  12.969   4.328   6.789  0.0747  0.1725  0.0195
  929YOPE   C3A12965  12.839   4.558   7.086 -0.4664  0.3212  0.0029
  929YOPE   C4A12966  12.685   4.770   7.397 -0.0195 -0.6486  0.0829
  929YOPE   C1B12967  13.157   4.882   6.556 -0.1436 -0.4352  0.2772
  929YOPE   C2B12968  13.023   5.078   6.868  0.2569 -0.1090 -0.0283
  929YOPE   D3B12969  12.687   5.111   7.070  0.1968 -0.0798 -0.2057
  929YOPE   C4B12970  12.324   5.411   7.288 -0.0058 -0.2897 -0.0784
  930YOPE   NH312971  10.927   4.014   5.393  0.0984  0.1025  0.0686
  930YOPE   PO412972  11.369   4.313   5.553  0.0269  0.0529 -0.2059
  930YOPE   GL112973  11.072   4.295   5.952  0.0752  0.2252  0.0808
  930YOPE   GL212974  11.105   3.976   5.937  0.1523 -0.0856  0.2170
  930YOPE   C1A12975  11.022   4.322   6.409  0.1988 -0.0392  0.1345
  930YOPE   D2A12976  10.915   4.487   6.802 -0.4217 -0.1249  0.0142
  930YOPE   C3A12977  11.094   4.849   6.898 -0.3673 -0.5021 -0.1937
  930YOPE   C4A12978  10.998   4.906   7.259 -0.3616 -0.1822 -0.0840
  930YOPE   C1B12979  11.247   3.904   6.328  0.0245 -0.3098  0.1223
  930YOPE   C2B12980  11.124   3.851   6.800 -0.1356 -0.0163 -0.2234
  930YOPE   D3B12981  11.194   3.686   7.176 -0.1808  0.1715 -0.1567
  930YOPE   C4B12982  11.159   3.800   7.587  0.2731  0.1150 -0.1560
  931YOPE   NH312983  11.326   0.231   5.526 -0.2115 -0.0588  0.1895
  931YOPE   PO412984  11.624   0.345   5.675 -0.0953 -0.1132 -0.0432
  931YOPE   GL112985  11.829   0.548   5.990 -0.1232 -0.2282 -0.1040
  931YOPE   GL212986  11.609   0.750   6.144 -0.2504 -0.3646  0.0429
  931YOPE   C1A12987  11.817   0.446   6.446  0.1138 -0.1778 -0.0123
  931YOPE   D2A12988  11.834   0.551   6.860  0.0862  0.2730 -0.0015
  931YOPE   C3A12989  11.862   0.665   7.194 -0.3795  0.0134 -0.1101
  931YOPE   C4A12990  11.820   0.948   7.441  0.0906 -0.0326 -0.1217
  931YOPE   C1B12991  11.561   0.992   6.551 -0.0569 -0.0231  0.1479
  931YOPE   C2B12992  11.525   0.960   6.937 -0.1048 -0.0049  0.1531
  931YOPE   D3B12993  11.302   0.905   7.320 -0.0215 -0.1010 -0.1217
  931YOPE   C4B12994  11.267   0.874   7.805 -0.1202  0.0563  0.2090
  932YOPE   NH312995  16.964   6.257   5.910 -0.2127 -0.2511 -0.1171
  932YOPE   PO412996  16.724   5.960   5.759  0.1605 -0.1767  0.0518
  932YOPE   GL112997  16.616   5.878   6.229 -0.0607  0.2358 -0.0815
  932YOPE   GL212998  16.780   6.063   6.337  0.0706  0.1358 -0.0665
  932YOPE   C1A12999  16.321   5.917   6.640  0.0934 -0.0479 -0.0590
  932YOPE   D2A13000  16.114   6.046   7.025 -0.2800 -0.1983  0.2407
  932YOPE   C3A13001  16.360   5.894   7.320 -0.0599  0.0947 -0.1069
  932YOPE   C4A13002  16.624   5.539   7.381  0.1256  0.0877  0.0083
  932YOPE   C1B13003  16.734   6.277   6.727  0.0062  0.1714 -0.0295
  932YOPE   C2B13004  16.637   6.273   7.228  0.0340 -0.1567 -0.0086
  932YOPE   D3B13005  16.560   6.477   7.655  0.1756 -0.2613  0.0499
  932YOPE   C4B13006  16.366   6.449   8.118  0.1475  0.0859  0.1853
  933YOPE   NH313007   1.522   0.405   5.388  0.1313  0.3261  0.1001
  933YOPE   PO413008   1.920   0.574   5.369  0.2228  0.0913  0.0394
  933YOPE   GL113009   1.806   0.661   5.720  0.2299 -0.2721 -0.1247
  933YOPE   GL213010   1.960   0.778   5.880 -0.0358 -0.0359 -0.0249
  933YOPE   C1A13011   1.581   0.524   6.096 -0.3581 -0.2861  0.1186
  933YOPE   D2A13012   1.624   0.535   6.490 -0.0648 -0.0636  0.0606
  933YOPE   C3A13013   1.616   0.838   6.777  0.2515  0.2081 -0.1353
  933YOPE   C4A13014   1.846   0.926   7.093 -0.0558 -0.4443  0.0019
  933YOPE   C1B13015   2.017   0.864   6.227 -0.2668 -0.1219 -0.0128
  933YOPE   C2B13016   2.081   0.734   6.665  0.2862  0.0688 -0.3341
  933YOPE   D3B13017   1.842   0.401   7.001 -0.1801  0.1542 -0.0628
  933YOPE   C4B13018   1.501   0.189   7.309 -0.1212 -0.2763 -0.0283
  934YOPE   NH313019   2.625  10.524   5.803  0.0973 -0.1252  0.1723
  934YOPE   PO413020   2.237  10.835   5.926  0.0074  0.0070 -0.0197
  934YOPE   GL113021   2.509  10.772   6.277 -0.0568  0.1563  0.3561
  934YOPE   GL213022   2.443  10.378   6.320 -0.0273  0.2491  0.1096
  934YOPE   C1A13023   2.760  10.799   6.601 -0.2247 -0.3107 -0.0680
  934YOPE   D2A13024   2.826  10.853   7.038 -0.1241  0.2515 -0.2605
  934YOPE   C3A13025   2.743  10.655   7.372  0.2693  0.0467 -0.1880
  934YOPE   C4A13026   2.516  10.250   7.462 -0.0398  0.1445  0.0967
  934YOPE   C1B13027   2.656  10.366   6.718  0.0926  0.0903 -0.0250
  934YOPE   C2B13028   2.832  10.260   7.105 -0.0586  0.2809 -0.1534
  934YOPE   D3B13029   3.130  10.199   7.355  0.0825  0.1139  0.0367
  934YOPE   C4B13030   3.538  10.032   7.376  0.0179 -0.0814  0.0956
  935YOPE   NH313031   3.661  13.720   5.630  0.0624  0.2206 -0.2303
  935YOPE   PO413032   3.266  13.893   5.725  0.1615 -0.0265  0.2127
  935YOPE   GL113033   3.207  13.637   6.083 -0.0506 -0.0458  0.0117
  935YOPE   GL213034   3.212  13.905   6.289 -0.0001 -0.3184 -0.0245
  935YOPE   C1A13035   2.995  13.449   6.502 -0.0757  0.2265  0.0936
  935YOPE   D2A13036   2.894  13.499   6.992  0.0184 -0.2307  0.2419
  935YOPE   C3A13037   2.802  13.702   7.300 -0.1544 -0.0321  0.1138
  935YOPE   C4A13038   2.785  13.646   7.727 -0.0917  0.2622 -0.1954
  935YOPE   C1B13039   3.083  13.924   6.730 -0.2575 -0.2288  0.2443
  935YOPE   C2B13040   3.165  14.048   7.146  0.0647  0.3293  0.3957
  935YOPE   D3B13041   3.355  13.875   7.543 -0.0483  0.3910  0.0103
  935YOPE   C4B13042   3.391  13.657   7.919 -0.0892  0.2123 -0.2878
  936YOPE   NH313043  14.019   4.858   5.654  0.0858  0.0888  0.0822
  936YOPE   PO413044  13.892   4.442   5.668  0.0071  0.1125 -0.2254
  936YOPE   GL113045  13.742   4.182   6.057 -0.0081  0.0228 -0.0223
  936YOPE   GL213046  13.397   4.215   6.076 -0.1462 -0.1344 -0.0898
  936YOPE   C1A13047  13.848   3.870   6.362  0.1470  0.1142 -0.2403
  936YOPE   D2A13048  14.099   3.713   6.682  0.2508 -0.1883 -0.4439
  936YOPE   C3A13049  14.003   3.977   7.051  0.1922 -0.0619 -0.0051
  936YOPE   C4A13050  13.715   4.308   7.090  0.0800  0.2392 -0.2368
  936YOPE   C1B13051  13.435   4.362   6.581 -0.1212  0.2851  0.3348
  936YOPE   C2B13052  13.349   4.617   6.976 -0.0616  0.0228 -0.1219
  936YOPE   D3B13053  13.545   4.594   7.419 -0.0307 -0.3699  0.0692
  936YOPE   C4B13054  13.763   4.552   7.769  0.1317 -0.1988  0.0722
  937YOPE   NH313055  10.535  15.632   5.682 -0.0271  0.1247 -0.0766
  937YOPE   PO413056  10.528  15.318   5.957 -0.1654  0.3297  0.1081
  937YOPE   GL113057  10.600  15.545   6.333 -0.1680 -0.3643  0.0652
  937YOPE   GL213058  10.849  15.658   6.124 -0.2501 -0.0164  0.2816
  937YOPE   C1A13059  10.546  15.947   6.587 -0.0172 -0.4208  0.0205
  937YOPE   D2A13060  10.472  16.419   6.628 -0.0380  0.0575 -0.0985
  937YOPE   C3A13061  10.469  16.504   6.937 -0.0025  0.4450 -0.3463
  937YOPE   C4A13062  10.357  16.410   7.361  0.3075 -0.0219  0.1482
  937YOPE   C1B13063  10.947  15.666   6.670  0.0572  0.1444 -0.0564
  937YOPE   C2B13064  11.070  15.611   7.160  0.1207 -0.0502 -0.0510
  937YOPE   D3B13065  11.193  15.830   7.537  0.1964 -0.0316  0.0032
  937YOPE   C4B13066  11.141  16.013   7.912 -0.1446  0.3302 -0.2429
  938YOPE   NH313067  17.729   1.079   5.521  0.3044 -0.1121 -0.0683
  938YOPE   PO413068  18.107   1.052   5.635  0.2492  0.2456 -0.0777
  938YOPE   GL113069  18.126   1.109   6.061 -0.1561  0.1376  0.1477
  938YOPE   GL213070  18.282   0.802   6.188 -0.1092 -0.2519 -0.1464
  938YOPE   C1A13071  17.829   0.780   6.404 -0.1912  0.1738  0.0607
  938YOPE   D2A13072  17.659   0.467   6.842  0.2046  0.1450  0.1126
  938YOPE   C3A13073  17.579   0.539   7.211 -0.0174 -0.1167 -0.1180
  938YOPE   C4A13074  17.820   0.417   7.611 -0.0326  0.2027  0.1296
  938YOPE   C1B13075  18.249   0.749   6.621  0.1787 -0.0002  0.0375
  938YOPE   C2B13076  18.333   0.871   6.998  0.0658  0.2265 -0.0149
  938YOPE   D3B13077  18.159   0.807   7.395 -0.4631 -0.1167  0.1525
  938YOPE   C4B13078  18.228   0.653   7.831  0.2598 -0.0547  0.1068
  939YOPE   NH313079  10.299  18.260   5.221  0.1602 -0.0749  0.1140
  939YOPE   PO413080  10.134  17.825   5.292 -0.0897  0.1640 -0.0433
  939YOPE   GL113081   9.947  18.152   5.556 -0.1047  0.1688  0.0606
  939YOPE   GL213082  10.116  18.232   5.814 -0.1486 -0.0327  0.1695
  939YOPE   C1A13083   9.581  18.360   5.733  0.1701  0.3400 -0.2215
  939YOPE   D2A13084   9.603  18.350   6.101  0.1144 -0.2371 -0.3130
  939YOPE   C3A13085   9.715  18.177   6.454  0.0778  0.0976  0.1459
  939YOPE   C4A13086   9.766  18.328   6.838 -0.0285  0.0700  0.4134
  939YOPE   C1B13087  10.114  18.353   6.213 -0.5163 -0.0016 -0.0566
  939YOPE   C2B13088  10.223  18.184   6.619  0.1300 -0.4487 -0.0718
  939YOPE   D3B13089  10.261  18.237   6.963  0.0582 -0.1173  0.0402
  939YOPE   C4B13090  10.548  18.557   7.171  0.1546 -0.0183 -0.2035
  940YOPE   NH313091  12.780   2.758   5.806  0.2242  0.1902  0.1202
  940YOPE   PO413092  12.329   2.569   5.784 -0.0979 -0.0117  0.0799
  940YOPE   GL113093  12.045   2.431   6.109  0.1656 -0.0230 -0.0557
  940YOPE   GL213094  11.964   2.761   6.267  0.0846 -0.1240  0.2025
  940YOPE   C1A13095  12.036   2.336   6.487  0.1816  0.1939 -0.0853
  940YOPE   D2A13096  11.974   2.354   7.021  0.1886  0.1343 -0.1218
  940YOPE   C3A13097  12.142   2.223   7.402 -0.0938 -0.1431  0.2075
  940YOPE   C4A13098  12.033   1.997   7.686  0.0918  0.2923 -0.1001
  940YOPE   C1B13099  11.892   2.727   6.733  0.2723 -0.0418  0.0025
  940YOPE   C2B13100  11.950   2.836   7.049 -0.1747 -0.0804  0.2884
  940YOPE   D3B13101  12.051   2.710   7.407  0.2465 -0.0452 -0.2085
  940YOPE   C4B13102  12.160   2.929   7.834  0.1046  0.1093 -0.0560
  941YOPE   NH313103   3.932   0.819   5.565 -0.1955  0.0048 -0.2234
  941YOPE   PO413104   4.328   0.852   5.604 -0.0547 -0.3995 -0.1406
  941YOPE   GL113105   4.632   1.012   5.814  0.2976  0.2213  0.2253
  941YOPE   GL213106   4.556   0.765   6.016 -0.0960 -0.3035  0.1216
  941YOPE   C1A13107   4.871   1.200   6.033  0.0150  0.3204  0.0768
  941YOPE   D2A13108   5.231   1.069   6.393 -0.1157  0.0474  0.0878
  941YOPE   C3A13109   5.264   1.477   6.741 -0.1300 -0.1153 -0.1237
  941YOPE   C4A13110   5.250   1.803   7.036  0.1078  0.2600  0.2928
  941YOPE   C1B13111   4.835   0.724   6.270  0.2903 -0.0001 -0.0191
  941YOPE   C2B13112   4.918   0.789   6.701  0.1105  0.1803 -0.2679
  941YOPE   D3B13113   5.082   0.758   7.087  0.1087 -0.0125 -0.0067
  941YOPE   C4B13114   5.484   0.813   7.458 -0.1438  0.1513  0.2107
  942POPC   NC313115   1.886  10.410   6.047 -0.0438 -0.0904 -0.2986
  942POPC   PO413116   2.137  10.010   6.119  0.1768 -0.0119  0.1241
  942POPC   GL113117   1.859  10.043   6.412 -0.2973 -0.1020  0.2907
  942POPC   GL213118   2.084  10.152   6.635 -0.0618 -0.1132 -0.1107
  942POPC   C1A13119   1.721   9.773   6.732 -0.0195 -0.0470  0.1834
  942POPC   D2A13120   1.468   9.433   6.847 -0.2234  0.1181  0.0506
  942POPC   C3A13121   1.033   9.458   7.104 -0.1406  0.1723  0.1315
  942POPC   C4A13122   1.051   9.457   7.529 -0.3015 -0.3381  0.3111
  942POPC   C1B13123   1.794  10.297   6.967  0.0530 -0.3820  0.0441
  942POPC   C2B13124   1.659  10.428   7.310  0.2425  0.0527  0.0752
  942POPC   C3B13125   2.034  10.297   7.643 -0.2647 -0.3081  0.0232
  942POPC   C4B13126   2.363  10.030   7.879  0.0827 -0.2966 -0.0495
  943POPC   NC313127   6.269   9.543   5.368 -0.0139 -0.0383 -0.0099
  943POPC   PO413128   5.943   9.753   5.545 -0.0905  0.0955  0.2055
  943POPC   GL113129   5.951   9.807   6.015 -0.2620  0.2218 -0.4075
  943POPC   GL213130   6.053  10.035   6.189  0.0837 -0.0917  0.1793
  943POPC   C1A13131   6.078   9.428   6.331  0.2217  0.0305  0.1596
  943POPC   D2A13132   5.923   9.228   6.627 -0.1929  0.0106 -0.1760
  943POPC   C3A13133   6.025   9.130   7.081  0.0158 -0.2007 -0.1006
  943POPC   C4A13134   5.857   8.936   7.457  0.4289  0.2558 -0.0553
  943POPC   C1B13135   5.999   9.890   6.531  0.2223  0.4499  0.4125
  943POPC   C2B13136   6.005   9.706   6.904 -0.1169  0.1605  0.0522
  943POPC   C3B13137   5.845   9.589   7.326 -0.1673 -0.2665 -0.1312
  943POPC   C4B13138   5.949   9.359   7.780  0.1104  0.0418  0.0890
  944POPC   NC313139  17.696  11.821   6.013  0.0698  0.2710  0.1380
  944POPC   PO413140  17.635  11.361   5.995  0.0389 -0.0151  0.3111
  944POPC   GL113141  17.619  11.062   6.376 -0.2234 -0.2561  0.0006
  944POPC   GL213142  17.944  11.012   6.582  0.0068  0.1326 -0.1358
  944POPC   C1A13143  17.514  10.905   6.810 -0.0702 -0.0778  0.0620
  944POPC   D2A13144  17.179  10.648   6.972 -0.0045 -0.0444  0.1273
  944POPC   C3A13145  17.250  10.646   7.375  0.2521  0.0328 -0.1346
  944POPC   C4A13146  17.040  10.460   7.645  0.0757 -0.1061 -0.0400
  944POPC   C1B13147  18.010  10.922   6.938  0.0652 -0.1167 -0.3071
  944POPC   C2B13148  18.249  10.902   7.342 -0.0307  0.0365  0.1176
  944POPC   C3B13149  18.209  10.716   7.625 -0.0429 -0.1594  0.0264
  944POPC   C4B13150  18.218  10.339   7.815  0.1241 -0.3439 -0.2457
  945POPC   NC313151   1.439   7.448   5.387  0.2659  0.4787  0.1295
  945POPC   PO413152   1.444   7.216   5.782 -0.2057  0.3785 -0.2825
  945POPC   GL113153   1.592   7.019   6.232 -0.1082 -0.0931 -0.1415
  945POPC   GL213154   1.400   6.956   6.480  0.0699 -0.0844  0.2293
  945POPC   C1A13155   1.842   7.136   6.626  0.1444  0.3235 -0.0184
  945POPC   D2A13156   1.893   7.210   7.059  0.5046 -0.2585  0.2366
  945POPC   C3A13157   1.944   7.138   7.455  0.2113 -0.2187  0.0593
  945POPC   C4A13158   1.680   7.397   7.683 -0.3238  0.1488 -0.0807
  945POPC   C1B13159   1.467   6.993   6.857  0.1053 -0.0581  0.0935
  945POPC   C2B13160   1.385   7.134   7.366  0.0206  0.0916 -0.0746
  945POPC   C3B13161   1.054   7.021   7.680 -0.1288 -0.0929 -0.0763
  945POPC   C4B13162   0.669   6.939   7.942  0.0706  0.1992 -0.1140
  946POPC   NC313163  10.297  13.913   4.976 -0.2447 -0.2332  0.1484
  946POPC   PO413164  10.512  14.106   5.197  0.0590 -0.1203  0.0776
  946POPC   GL113165  10.556  14.135   5.739 -0.0279  0.2193 -0.0736
  946POPC   GL213166  10.894  13.931   5.864  0.1134 -0.3407  0.4964
  946POPC   C1A13167  10.479  13.830   6.081 -0.4614  0.1711  0.3083
  946POPC   D2A13168  10.341  13.558   6.354 -0.1286 -0.2235 -0.3368
  946POPC   C3A13169  10.547  13.350   6.666 -0.1169 -0.3502 -0.1067
  946POPC   C4A13170  10.864  13.306   6.932 -0.1948 -0.0139  0.0852
  946POPC   C1B13171  10.909  14.090   6.348  0.1128  0.0620 -0.1190
  946POPC   C2B13172  11.050  14.277   6.752 -0.1885 -0.1852 -0.0666
  946POPC   C3B13173  10.962  14.417   7.135 -0.1296  0.0573 -0.2533
  946POPC   C4B13174  11.026  14.571   7.485  0.0457 -0.1753  0.0345
  947POPC   NC313175   9.991  15.399   5.947 -0.0966 -0.0898  0.1327
  947POPC   PO413176  10.172  15.780   5.981 -0.0456 -0.2772  0.2112
  947POPC   GL113177  10.102  15.655   6.372 -0.2375  0.0733 -0.2148
  947POPC   GL213178  10.151  15.230   6.402 -0.2188 -0.0316  0.1289
  947POPC   C1A13179  10.210  15.558   6.793 -0.0291  0.0195  0.1957
  947POPC   D2A13180  10.081  15.577   7.169  0.1134 -0.0337  0.3105
  947POPC   C3A13181  10.109  15.947   7.531  0.0350 -0.0402  0.2541
  947POPC   C4A13182  10.185  16.235   7.934 -0.3316 -0.1021 -0.0296
  947POPC   C1B13183   9.891  15.143   6.830 -0.2224 -0.2109 -0.3181
  947POPC   C2B13184   9.842  15.173   7.231 -0.2543  0.1694  0.1540
  947POPC   C3B13185   9.927  15.451   7.610  0.3192 -0.1657 -0.2795
  947POPC   C4B13186  10.227  15.564   7.826  0.0761  0.1155 -0.0562
  948POPC   NC313187   9.329   4.957   5.189 -0.3649 -0.0885  0.0764
  948POPC   PO413188   9.716   5.174   5.364  0.0678  0.1728  0.3592
  948POPC   GL113189   9.684   5.120   5.712  0.1457 -0.2533 -0.0623
  948POPC   GL213190   9.396   5.286   5.749 -0.1602  0.0971  0.0659
  948POPC   C1A13191   9.912   4.939   6.032  0.1920  0.0027 -0.1573
  948POPC   D2A13192  10.081   4.766   6.382  0.0106 -0.1006 -0.2015
  948POPC   C3A13193  10.090   5.051   6.738  0.0055 -0.0719 -0.0317
  948POPC   C4A13194  10.192   5.060   7.197 -0.1519  0.1522 -0.0033
  948POPC   C1B13195   9.459   5.324   6.179 -0.1500  0.3456  0.2849
  948POPC   C2B13196   9.629   5.083   6.438  0.2233 -0.1731  0.0618
  948POPC   C3B13197   9.242   4.933   6.543 -0.0100  0.0159 -0.1280
  948POPC   C4B13198   8.902   4.775   6.712  0.2138  0.0369  0.2537
  949POPC   NC313199  11.789   6.098   5.348 -0.1787  0.0729  0.2972
  949POPC   PO413200  11.765   6.414   5.696  0.0319 -0.0923 -0.1332
  949POPC   GL113201  11.736   6.237   6.166 -0.2391  0.4973  0.0095
  949POPC   GL213202  11.411   6.104   6.180  0.0161  0.1723 -0.1811
  949POPC   C1A13203  11.881   6.320   6.565 -0.0540 -0.0080 -0.3664
  949POPC   D2A13204  11.817   5.984   6.823  0.0857  0.0803  0.0669
  949POPC   C3A13205  12.034   5.590   6.854  0.2496  0.0451 -0.0426
  949POPC   C4A13206  11.979   5.258   6.940 -0.2643 -0.0332  0.0598
  949POPC   C1B13207  11.421   6.179   6.583  0.2374  0.0781 -0.2758
  949POPC   C2B13208  11.236   5.991   6.951  0.0949  0.0102  0.0932
  949POPC   C3B13209  11.090   5.529   7.185  0.1540  0.0979 -0.0139
  949POPC   C4B13210  11.119   5.421   7.506  0.0067  0.0725  0.0303
  950POPC   NC313211  14.735   2.002   5.993  0.1872 -0.3545 -0.2894
  950POPC   PO413212  14.481   1.731   6.177 -0.0957  0.1771  0.2962
  950POPC   GL113213  14.538   1.453   6.350  0.0147 -0.1152 -0.1677
  950POPC   GL213214  14.571   1.107   6.264  0.2379  0.0805 -0.1298
  950POPC   C1A13215  14.700   1.427   6.760 -0.0474 -0.0685 -0.0761
  950POPC   D2A13216  14.813   1.514   7.269 -0.0123  0.1080 -0.3404
  950POPC   C3A13217  15.034   1.369   7.643  0.3039  0.2789  0.2059
  950POPC   C4A13218  15.302   1.177   7.900 -0.1697  0.0057 -0.3085
  950POPC   C1B13219  15.004   1.162   6.378  0.0306  0.0912 -0.0425
  950POPC   C2B13220  15.247   1.252   6.729 -0.2477 -0.3531  0.1402
  950POPC   C3B13221  15.142   1.131   7.178 -0.0199 -0.2009  0.3070
  950POPC   C4B13222  15.238   0.812   7.582 -0.2305  0.1974  0.1934
  951POPC   NC313223  11.389  17.437   5.605  0.0661 -0.4414  0.1627
  951POPC   PO413224  11.585  17.059   5.783 -0.2046  0.0187  0.0325
  951POPC   GL113225  11.413  17.171   6.176  0.1200 -0.0122  0.2205
  951POPC   GL213226  11.306  17.454   6.176 -0.1769 -0.1738 -0.0760
  951POPC   C1A13227  11.419  16.979   6.479  0.3393 -0.0607 -0.3521
  951POPC   D2A13228  11.356  17.135   6.802 -0.1456  0.0323 -0.0761
  951POPC   C3A13229  11.452  17.123   7.343 -0.3802  0.0514 -0.3138
  951POPC   C4A13230  11.246  16.873   7.728 -0.0206  0.1852 -0.1693
  951POPC   C1B13231  11.583  17.490   6.532  0.0719  0.0069  0.0154
  951POPC   C2B13232  11.507  17.565   6.985 -0.0248 -0.2317 -0.1153
  951POPC   C3B13233  11.332  17.596   7.432 -0.3175 -0.0623 -0.2494
  951POPC   C4B13234  11.378  17.471   7.806 -0.1956  0.0365  0.0072
  952POPC   NC313235  15.674   5.901   5.961 -0.1072  0.0211 -0.2347
  952POPC   PO413236  15.657   5.463   6.020 -0.3310 -0.1682  0.1574
  952POPC   GL113237  15.409   5.193   6.215 -0.0768  0.4520 -0.0254
  952POPC   GL213238  15.457   4.882   6.112 -0.0334  0.2092 -0.1631
  952POPC   C1A13239  15.195   5.222   6.622 -0.1428 -0.0665  0.4218
  952POPC   D2A13240  15.149   5.254   6.947  0.0391  0.2201 -0.1137
  952POPC   C3A13241  15.498   5.324   7.089  0.0953  0.0366  0.0611
  952POPC   C4A13242  15.909   5.205   6.932 -0.0811  0.2099 -0.0102
  952POPC   C1B13243  15.426   4.744   6.469 -0.0494 -0.0093 -0.1226
  952POPC   C2B13244  15.526   4.891   6.885  0.1325 -0.1211 -0.0839
  952POPC   C3B13245  15.658   4.867   7.273 -0.0661 -0.1359 -0.0678
  952POPC   C4B13246  15.562   5.133   7.623 -0.1948  0.2542  0.2996
  953POPC   NC313247  15.029  12.802   5.724  0.2485  0.0821  0.0556
  953POPC   PO413248  15.367  12.509   5.617 -0.0142 -0.2240  0.1942
  953POPC   GL113249  15.595  12.361   6.011 -0.0977  0.0044  0.0499
  953POPC   GL213250  15.877  12.589   6.146  0.0054 -0.3539  0.0346
  953POPC   C1A13251  15.463  12.372   6.485  0.0434  0.0912  0.1412
  953POPC   D2A13252  15.312  12.286   6.903  0.1839  0.0433 -0.1153
  953POPC   C3A13253  15.035  12.419   7.227  0.2569 -0.0941  0.0685
  953POPC   C4A13254  14.711  12.834   7.302 -0.0897  0.0669  0.3550
  953POPC   C1B13255  15.883  12.804   6.548 -0.0006  0.4427 -0.2763
  953POPC   C2B13256  15.980  12.875   6.968 -0.0687  0.0545  0.2981
  953POPC   C3B13257  15.909  12.902   7.271  0.1742 -0.1820 -0.3323
  953POPC   C4B13258  15.863  12.824   7.772 -0.1361 -0.0237 -0.1134
  954POPC   NC313259  12.672   5.775   5.389 -0.0155  0.0338 -0.1131
  954POPC   PO413260  12.227   5.848   5.287 -0.1289 -0.1140  0.0564
  954POPC   GL113261  12.193   5.867   5.676  0.1502 -0.1990 -0.2712
  954POPC   GL213262  12.136   6.145   5.842  0.0271  0.2248  0.1354
  954POPC   C1A13263  12.112   5.643   5.978 -0.1870 -0.0932 -0.2339
  954POPC   D2A13264  12.092   5.862   6.348  0.2005 -0.0757  0.1857
  954POPC   C3A13265  12.388   5.746   6.567 -0.1032 -0.1424  0.2644
  954POPC   C4A13266  12.458   5.375   6.766  0.1853  0.1350  0.0262
  954POPC   C1B13267  12.568   5.898   6.009 -0.1542  0.0888  0.0040
  954POPC   C2B13268  12.842   5.899   6.329  0.0853 -0.1570 -0.1663
  954POPC   C3B13269  12.809   5.890   6.824  0.1752  0.0126 -0.2121
  954POPC   C4B13270  12.781   5.652   7.143  0.0879  0.2249 -0.1171
  955POPC   NC313271  12.442  15.443   5.970 -0.3186  0.2699 -0.0781
  955POPC   PO413272  12.214  15.874   6.001  0.1494  0.1624 -0.0696
  955POPC   GL113273  12.255  16.024   6.420 -0.1164  0.0789 -0.0419
  955POPC   GL213274  12.482  16.180   6.440  0.2903  0.0695 -0.1892
  955POPC   C1A13275  12.132  15.972   6.886  0.2004  0.0734 -0.0198
  955POPC   D2A13276  12.078  16.087   7.297 -0.1722 -0.1227  0.2799
  955POPC   C3A13277  12.267  16.004   7.582 -0.0303 -0.1061 -0.1709
  955POPC   C4A13278  12.466  15.794   7.933 -0.3812 -0.2785 -0.0146
  955POPC   C1B13279  12.458  16.388   6.846  0.0655 -0.0193 -0.0919
  955POPC   C2B13280  12.509  16.379   7.347  0.2311  0.1240 -0.3669
  955POPC   C3B13281  12.319  16.601   7.681  0.0880  0.0322  0.1299
  955POPC   C4B13282  12.039  16.756   7.955 -0.6278 -0.2020  0.0989
  956POPC   NC313283   5.949  11.149   5.503  0.0604  0.1557  0.0126
  956POPC   PO413284   5.798  11.452   5.586  0.1442 -0.1563 -0.2089
  956POPC   GL113285   5.964  11.425   6.046 -0.2602 -0.0752 -0.0572
  956POPC   GL213286   6.345  11.306   6.083 -0.0685  0.0420 -0.1128
  956POPC   C1A13287   5.813  11.374   6.457 -0.1873  0.0083  0.0651
  956POPC   D2A13288   6.022  11.245   6.802  0.1040  0.3108 -0.0413
  956POPC   C3A13289   5.816  11.097   7.131 -0.0872 -0.1896 -0.1190
  956POPC   C4A13290   5.973  11.116   7.582  0.3495  0.2146  0.0443
  956POPC   C1B13291   6.261  11.584   6.445  0.0323  0.1454 -0.0504
  956POPC   C2B13292   6.132  11.675   6.856  0.3052 -0.1017 -0.1585
  956POPC   C3B13293   6.036  11.557   7.266  0.0090 -0.4526  0.0295
  956POPC   C4B13294   6.289  11.611   7.708 -0.1271 -0.3204  0.3227
  957POPC   NC313295   2.942   8.366   5.534  0.1563 -0.0040 -0.0846
  957POPC   PO413296   2.995   8.707   5.805 -0.1045 -0.0785 -0.0306
  957POPC   GL113297   3.058   8.273   6.048  0.0636  0.0727 -0.1891
  957POPC   GL213298   2.799   8.101   6.237  0.1112 -0.0711  0.0684
  957POPC   C1A13299   3.348   8.000   6.386 -0.1542 -0.2324 -0.1382
  957POPC   D2A13300   3.307   7.848   6.819  0.2008  0.1474  0.3398
  957POPC   C3A13301   2.906   7.913   7.020  0.0017  0.2096  0.1408
  957POPC   C4A13302   2.612   7.893   6.821 -0.2310 -0.0847 -0.0046
  957POPC   C1B13303   2.996   8.203   6.660 -0.3864  0.2213  0.2098
  957POPC   C2B13304   3.247   8.264   7.106 -0.2675  0.1825 -0.1959
  957POPC   C3B13305   3.620   8.222   7.559 -0.1290  0.2073 -0.0317
  957POPC   C4B13306   3.954   8.247   7.944  0.2481  0.0533  0.0828
  958POPC   NC313307   9.230  12.518   5.337  0.0966  0.1721 -0.2539
  958POPC   PO413308   8.866  12.761   5.552  0.0759  0.1574 -0.1910
  958POPC   GL113309   8.741  12.901   5.998 -0.1578 -0.1727 -0.0481
  958POPC   GL213310   8.480  12.618   6.144 -0.0996  0.0644  0.4375
  958POPC   C1A13311   8.612  13.311   6.263 -0.0656 -0.0849 -0.1668
  958POPC   D2A13312   8.659  13.372   6.645 -0.0035 -0.1979 -0.3200
  958POPC   C3A13313   8.850  13.084   6.964  0.0943 -0.2261  0.3297
  958POPC   C4A13314   8.599  12.836   7.143  0.2643  0.2489  0.0049
  958POPC   C1B13315   8.090  12.686   6.376  0.0420  0.1182  0.0492
  958POPC   C2B13316   7.939  12.753   6.783  0.0022  0.2076  0.1934
  958POPC   C3B13317   7.740  13.158   6.907 -0.0139  0.1636 -0.0875
  958POPC   C4B13318   7.796  13.513   7.265 -0.2153 -0.1456 -0.0760
  959POPC   NC313319   0.552   5.076   6.041 -0.1735 -0.3074 -0.0160
  959POPC   PO413320   1.059   5.082   6.028 -0.0663  0.1080  0.1994
  959POPC   GL113321   0.896   4.976   6.387 -0.0307 -0.0803  0.3057
  959POPC   GL213322   1.231   5.178   6.520 -0.2303  0.1347  0.0235
  959POPC   C1A13323   0.817   5.096   6.883  0.0478  0.1673  0.2560
  959POPC   D2A13324   0.798   5.120   7.372 -0.0403  0.3919 -0.1965
  959POPC   C3A13325   1.161   5.432   7.515 -0.0055 -0.0021 -0.2261
  959POPC   C4A13326   1.629   5.428   7.718 -0.3034  0.0529  0.1549
  959POPC   C1B13327   1.520   5.002   6.779  0.0101  0.3916 -0.1772
  959POPC   C2B13328   1.523   4.629   7.103  0.0551 -0.0489  0.1472
  959POPC   C3B13329   1.445   4.273   7.354  0.0139  0.0360 -0.0053
  959POPC   C4B13330   1.505   3.997   7.717 -0.2507 -0.0208  0.1510
  960POPC   NC313331  14.925  17.408   5.706 -0.0032  0.1384  0.0522
  960POPC   PO413332  15.198  17.042   5.643 -0.3090 -0.0163  0.0752
  960POPC   GL113333  15.016  16.963   6.055  0.3855  0.1604 -0.1990
  960POPC   GL213334  14.735  17.123   6.091  0.0395 -0.2244 -0.2265
  960POPC   C1A13335  15.087  16.603   6.433 -0.0224  0.1755 -0.1009
  960POPC   D2A13336  15.194  16.560   6.872  0.0312  0.2966  0.1854
  960POPC   C3A13337  15.053  16.657   7.267  0.0404  0.1563 -0.2772
  960POPC   C4A13338  14.967  16.740   7.667  0.0393 -0.2122 -0.2411
  960POPC   C1B13339  14.990  17.075   6.518  0.1540 -0.0315 -0.2532
  960POPC   C2B13340  15.080  17.083   6.941 -0.4230 -0.2586 -0.0459
  960POPC   C3B13341  14.840  17.129   7.342  0.0326  0.1717 -0.2489
  960POPC   C4B13342  14.725  17.321   7.712 -0.2923 -0.0376 -0.0671
  961POPC   NC313343  10.475  12.148   5.429 -0.1040 -0.0220 -0.3089
  961POPC   PO413344  10.404  12.285   5.815  0.2615  0.2748  0.0452
  961POPC   GL113345  10.072  12.120   6.101  0.0686  0.0865 -0.1690
  961POPC   GL213346   9.769  12.185   6.203 -0.0864 -0.1324  0.1662
  961POPC   C1A13347  10.189  11.993   6.402 -0.1528 -0.2538 -0.1294
  961POPC   D2A13348  10.298  11.919   6.810 -0.0722 -0.1473 -0.4026
  961POPC   C3A13349  10.713  12.047   7.028  0.2743 -0.0469  0.0125
  961POPC   C4A13350  10.914  12.358   7.115 -0.2748  0.3686 -0.3529
  961POPC   C1B13351   9.733  11.950   6.630  0.0189 -0.1469  0.2957
  961POPC   C2B13352   9.831  11.767   7.004 -0.1155 -0.2215 -0.2407
  961POPC   C3B13353   9.912  11.627   7.483 -0.4543  0.1582 -0.1119
  961POPC   C4B13354  10.027  11.431   7.859 -0.2929 -0.0187  0.2370
  962POPC   NC313355   5.914   8.759   5.315 -0.0550  0.0308  0.3194
  962POPC   PO413356   5.944   9.110   5.517 -0.2329  0.1512 -0.0302
  962POPC   GL113357   5.726   8.928   5.808 -0.2583 -0.0565 -0.3167
  962POPC   GL213358   5.451   9.022   5.951 -0.2471  0.1520  0.1878
  962POPC   C1A13359   5.956   8.934   6.160  0.2775 -0.0317  0.1113
  962POPC   D2A13360   5.987   8.713   6.533 -0.1535  0.0480  0.1465
  962POPC   C3A13361   6.301   8.942   6.726 -0.0091 -0.2974  0.2655
  962POPC   C4A13362   6.563   8.972   7.019 -0.0345  0.0837  0.0178
  962POPC   C1B13363   5.569   8.976   6.439  0.0979 -0.2720  0.0457
  962POPC   C2B13364   5.647   8.900   6.876  0.2459  0.0873 -0.0508
  962POPC   C3B13365   5.978   8.596   7.058 -0.2710 -0.1164 -0.0284
  962POPC   C4B13366   6.386   8.524   7.153  0.0371 -0.0333  0.1704
  963POPC   NC313367  16.971   8.701   5.798  0.1329 -0.0032 -0.1004
  963POPC   PO413368  16.944   8.331   5.923 -0.1052  0.0802  0.0316
  963POPC   GL113369  16.741   8.452   6.334  0.0024  0.3924  0.0761
  963POPC   GL213370  16.443   8.289   6.275  0.0960 -0.0457  0.2422
  963POPC   C1A13371  16.723   8.563   6.719  0.0119  0.1190 -0.1379
  963POPC   D2A13372  16.798   8.690   7.135 -0.1276  0.2143 -0.1338
  963POPC   C3A13373  16.884   8.417   7.477  0.4310  0.1203  0.1014
  963POPC   C4A13374  17.199   8.171   7.629 -0.2378 -0.1540 -0.1147
  963POPC   C1B13375  16.366   8.152   6.737 -0.0154 -0.1176 -0.1502
  963POPC   C2B13376  16.038   7.782   6.864 -0.2596  0.3944  0.1615
  963POPC   C3B13377  15.690   7.472   6.869  0.0605 -0.0428  0.0507
  963POPC   C4B13378  15.453   7.294   7.091  0.0487 -0.0153 -0.0042
  964POPC   NC313379  13.962   3.913   5.614 -0.4344 -0.0070  0.0434
  964POPC   PO413380  14.386   4.035   5.694 -0.2323 -0.2193 -0.1234
  964POPC   GL113381  14.254   4.273   5.908 -0.5897 -0.0487  0.0016
  964POPC   GL213382  14.293   4.575   6.006 -0.2305  0.4508 -0.2361
  964POPC   C1A13383  14.131   4.317   6.336  0.1735  0.1520 -0.2203
  964POPC   D2A13384  13.964   4.308   6.641  0.0366  0.1866 -0.1033
  964POPC   C3A13385  14.438   4.292   6.944 -0.0914 -0.1003  0.1927
  964POPC   C4A13386  14.738   4.420   7.303  0.0248  0.2930  0.0454
  964POPC   C1B13387  14.571   4.517   6.415  0.0472 -0.1305  0.1995
  964POPC   C2B13388  14.789   4.553   6.761 -0.2435  0.0470  0.1952
  964POPC   C3B13389  14.951   4.782   7.135 -0.1110  0.1659 -0.0066
  964POPC   C4B13390  15.116   5.138   7.393  0.0422 -0.2234 -0.0074
  965POPC   NC313391   6.702   3.502   5.035  0.0643 -0.0187  0.2691
  965POPC   PO413392   7.071   3.545   5.294 -0.2130 -0.4179 -0.1508
  965POPC   GL113393   7.175   3.727   5.713 -0.0790  0.0621  0.0657
  965POPC   GL213394   6.919   3.655   5.976  0.3255  0.1895  0.2485
  965POPC   C1A13395   7.210   4.015   6.134 -0.0580 -0.1385  0.4084
  965POPC   D2A13396   7.277   4.240   6.409  0.2793 -0.0918 -0.1541
  965POPC   C3A13397   7.274   4.078   6.877 -0.0108  0.0352  0.1393
  965POPC   C4A13398   7.415   4.057   7.300 -0.0019  0.1824  0.1184
  965POPC   C1B13399   6.892   3.851   6.460 -0.1765 -0.0090  0.0706
  965POPC   C2B13400   6.921   3.728   6.910 -0.1756 -0.0223  0.1361
  965POPC   C3B13401   6.992   3.739   7.378 -0.1696  0.1080  0.1177
  965POPC   C4B13402   7.198   3.799   7.774  0.2370  0.0521  0.0511
  966POPC   NC313403   5.983   5.957   5.463 -0.0902 -0.3292  0.1741
  966POPC   PO413404   5.831   6.310   5.716 -0.0924 -0.3780 -0.0867
  966POPC   GL113405   5.607   6.222   6.071  0.0998 -0.1040 -0.0032
  966POPC   GL213406   5.215   6.334   5.910 -0.0509  0.3126  0.3638
  966POPC   C1A13407   5.524   5.978   6.489 -0.3211 -0.0709 -0.0310
  966POPC   D2A13408   5.797   6.031   6.903  0.3728 -0.2391  0.3109
  966POPC   C3A13409   5.589   6.004   7.342  0.1941  0.1766 -0.3853
  966POPC   C4A13410   5.338   6.152   7.538 -0.0672  0.1103 -0.0466
  966POPC   C1B13411   5.068   6.417   6.249  0.3770  0.3761 -0.0161
  966POPC   C2B13412   5.130   6.287   6.626  0.3649 -0.1383  0.0781
  966POPC   C3B13413   5.277   5.967   6.947  0.0166 -0.0636 -0.1196
  966POPC   C4B13414   5.158   5.667   7.264  0.0311  0.0790  0.2002
  967POPC   NC313415   6.381  11.951   5.871 -0.0204  0.2594 -0.1829
  967POPC   PO413416   6.131  12.362   5.782 -0.0942  0.2934 -0.0019
  967POPC   GL113417   6.092  12.297   6.144  0.0181  0.2053  0.0757
  967POPC   GL213418   6.327  12.440   6.302  0.2098  0.3230  0.1257
  967POPC   C1A13419   5.962  11.936   6.357  0.2233 -0.2470 -0.2513
  967POPC   D2A13420   5.540  11.853   6.483  0.1519 -0.2473  0.1570
  967POPC   C3A13421   5.595  11.679   6.823 -0.1184  0.4093 -0.1419
  967POPC   C4A13422   5.379  11.437   7.117 -0.0347 -0.0476  0.2861
  967POPC   C1B13423   6.254  12.501   6.788  0.5505 -0.0960 -0.0199
  967POPC   C2B13424   6.285  12.470   7.130 -0.1330 -0.0165 -0.0168
  967POPC   C3B13425   6.141  12.540   7.516 -0.2556 -0.0853  0.1231
  967POPC   C4B13426   5.813  12.374   7.839  0.2800 -0.2996  0.0824
  968POPC   NC313427   6.813  13.154   5.553 -0.0613  0.0336  0.1886
  968POPC   PO413428   6.704  13.498   5.613 -0.1001  0.0360  0.1212
  968POPC   GL113429   6.707  13.648   6.040 -0.0966 -0.3015  0.1425
  968POPC   GL213430   6.417  13.708   6.120  0.0948 -0.2934  0.0091
  968POPC   C1A13431   6.671  13.463   6.406  0.2652  0.0980  0.2785
  968POPC   D2A13432   6.634  13.649   6.773 -0.0328 -0.0379 -0.1257
  968POPC   C3A13433   6.905  13.543   7.005 -0.1992 -0.2338 -0.1580
  968POPC   C4A13434   7.257  13.423   7.169  0.2640  0.0789 -0.1494
  968POPC   C1B13435   6.138  13.705   6.424 -0.0325  0.1358 -0.2619
  968POPC   C2B13436   6.133  13.744   6.840 -0.1633 -0.0376  0.1650
  968POPC   C3B13437   6.276  13.695   7.209  0.0283 -0.0185  0.2747
  968POPC   C4B13438   6.483  13.401   7.355  0.2704 -0.0786 -0.0414
  969POPC   NC313439  18.231   9.617   6.026 -0.2216 -0.4093 -0.0310
  969POPC   PO413440  17.788   9.515   6.054  0.0614  0.1562  0.0507
  969POPC   GL113441  17.762   9.504   6.526  0.0036 -0.0725  0.3533
  969POPC   GL213442  18.141   9.529   6.542 -0.4883  0.2161  0.0242
  969POPC   C1A13443  17.925   9.464   7.049 -0.1439  0.0609  0.2367
  969POPC   D2A13444  18.116   9.472   7.451 -0.0090  0.4019 -0.3141
  969POPC   C3A13445  17.959   9.503   7.849  0.4853 -0.3155  0.3674
  969POPC   C4A13446  18.062   9.879   8.127 -0.1355  0.1195  0.2385
  969POPC   C1B13447  18.363   9.251   6.778 -0.0984 -0.0655  0.1165
  969POPC   C2B13448  18.580   9.338   7.153 -0.0498 -0.0478 -0.0844
  969POPC   C3B13449  18.558   9.381   7.689 -0.2693 -0.1496 -0.0827
  969POPC   C4B13450  18.373   9.455   8.075  0.0259 -0.0738 -0.0893
  970POPC   NC313451   2.378  17.164   5.625  0.1097 -0.0599 -0.2777
  970POPC   PO413452   2.863  17.191   5.616  0.0287  0.0717 -0.1555
  970POPC   GL113453   2.745  17.167   6.005 -0.0736  0.0333  0.0937
  970POPC   GL213454   2.454  17.448   6.043 -0.0842  0.1303  0.0918
  970POPC   C1A13455   2.719  17.004   6.409  0.3865 -0.3057  0.1583
  970POPC   D2A13456   2.806  17.092   6.862 -0.0463 -0.0272 -0.1575
  970POPC   C3A13457   2.489  17.055   7.149 -0.1056 -0.1342 -0.3656
  970POPC   C4A13458   2.282  17.211   7.507 -0.0630  0.2369  0.4705
  970POPC   C1B13459   2.654  17.557   6.382 -0.1727  0.2454  0.1051
  970POPC   C2B13460   2.612  17.524   6.874  0.0836 -0.3525 -0.0652
  970POPC   C3B13461   2.528  17.674   7.239  0.0467 -0.0695  0.0814
  970POPC   C4B13462   2.037  17.786   7.425 -0.0930 -0.1311 -0.3957
  971POPC   NC313463   9.635   8.393   5.609 -0.0462  0.0254 -0.1716
  971POPC   PO413464   9.445   8.038   5.636  0.1414  0.0580 -0.2070
  971POPC   GL113465   9.399   8.108   6.109 -0.1197  0.0283  0.1291
  971POPC   GL213466   9.245   7.761   6.213 -0.3198  0.2056 -0.0300
  971POPC   C1A13467   9.480   8.273   6.468 -0.2511  0.0608 -0.0851
  971POPC   D2A13468   9.648   8.571   6.791  0.1754  0.1115 -0.0067
  971POPC   C3A13469   9.823   8.496   7.213 -0.1920  0.1387 -0.0796
  971POPC   C4A13470  10.144   8.644   7.580 -0.1955 -0.2736  0.1762
  971POPC   C1B13471   9.119   7.632   6.717 -0.1561 -0.0870 -0.0088
  971POPC   C2B13472   8.747   7.887   6.960 -0.1139  0.3765 -0.3348
  971POPC   C3B13473   8.633   7.870   7.405  0.0864 -0.1748  0.1299
  971POPC   C4B13474   8.338   8.192   7.575  0.3195  0.0236  0.2003
  972POPC   NC313475   4.057  16.680   5.481  0.1545 -0.1763 -0.0321
  972POPC   PO413476   4.014  16.159   5.718  0.0109 -0.0074 -0.1622
  972POPC   GL113477   3.848  16.150   6.170  0.3342 -0.2514 -0.2247
  972POPC   GL213478   3.536  16.044   6.108 -0.0481  0.2301  0.2856
  972POPC   C1A13479   3.794  16.113   6.666  0.1856 -0.0202 -0.0771
  972POPC   D2A13480   3.541  16.061   6.987  0.2805 -0.0692  0.0464
  972POPC   C3A13481   3.553  16.444   7.348  0.3630  0.1173  0.0136
  972POPC   C4A13482   3.649  16.877   7.585  0.1696 -0.0016  0.0392
  972POPC   C1B13483   3.444  15.762   6.425  0.0241 -0.2501 -0.1389
  972POPC   C2B13484   3.701  15.605   6.682 -0.1246  0.0432  0.1808
  972POPC   C3B13485   3.838  15.694   7.163 -0.1863  0.0778  0.0700
  972POPC   C4B13486   3.643  15.882   7.585  0.4436 -0.0895  0.0628
  973POPC   NC313487   1.820  13.032   5.989 -0.1767 -0.2276  0.0568
  973POPC   PO413488   2.225  12.963   6.006  0.1492  0.0350 -0.2418
  973POPC   GL113489   2.118  13.113   6.370 -0.0938  0.1831  0.0612
  973POPC   GL213490   2.139  13.418   6.315 -0.0424 -0.1457 -0.5089
  973POPC   C1A13491   2.096  13.097   6.800 -0.0632 -0.0203 -0.3711
  973POPC   D2A13492   1.991  13.204   7.226 -0.1520 -0.1520  0.3124
  973POPC   C3A13493   1.811  13.593   7.416  0.1254 -0.1121 -0.0700
  973POPC   C4A13494   2.058  14.006   7.393 -0.0582 -0.1243 -0.2086
  973POPC   C1B13495   2.382  13.484   6.641 -0.1929  0.0280  0.4759
  973POPC   C2B13496   2.344  13.551   7.058 -0.1995  0.0516 -0.0299
  973POPC   C3B13497   2.319  13.530   7.485  0.0357 -0.1602  0.1217
  973POPC   C4B13498   2.301  13.766   7.844  0.3711  0.0594  0.1634
  974POPC   NC313499  17.271  11.590   5.632 -0.2530  0.2957  0.1102
  974POPC   PO413500  17.151  11.638   6.014 -0.1167  0.0629  0.2148
  974POPC   GL113501  16.894  11.703   6.353  0.0840 -0.0419  0.0424
  974POPC   GL213502  16.631  11.878   6.314 -0.0116  0.1968  0.2258
  974POPC   C1A13503  16.691  11.721   6.820  0.2880  0.1867  0.2131
  974POPC   D2A13504  16.574  11.660   7.261  0.0745 -0.0731  0.1489
  974POPC   C3A13505  16.624  11.513   7.599  0.0235  0.1228 -0.1476
  974POPC   C4A13506  16.332  11.523   7.969  0.1268 -0.0488 -0.1362
  974POPC   C1B13507  16.433  12.160   6.598  0.1034  0.3309  0.3924
  974POPC   C2B13508  16.311  12.084   6.966 -0.1237 -0.0772  0.1266
  974POPC   C3B13509  16.119  11.857   7.210  0.0295  0.1961 -0.0077
  974POPC   C4B13510  16.024  11.748   7.623 -0.2935 -0.0584 -0.2015
  975POPC   NC313511  14.648  11.386   5.596 -0.0553  0.0713  0.5496
  975POPC   PO413512  14.449  11.001   5.812  0.0203  0.1876  0.2052
  975POPC   GL113513  14.341  11.089   6.235  0.1949  0.0059  0.2095
  975POPC   GL213514  14.209  10.830   6.227 -0.1471 -0.0894 -0.1929
  975POPC   C1A13515  14.579  11.297   6.537  0.1291  0.1855  0.0316
  975POPC   D2A13516  14.573  11.214   6.975 -0.0022  0.2794 -0.1846
  975POPC   C3A13517  14.617  10.987   7.330 -0.2567 -0.2746  0.0214
  975POPC   C4A13518  14.565  11.158   7.703 -0.4032 -0.0552  0.0743
  975POPC   C1B13519  14.201  10.899   6.716  0.0510  0.2875  0.0439
  975POPC   C2B13520  14.182  10.885   7.127  0.0546 -0.0593  0.1844
  975POPC   C3B13521  14.251  10.708   7.515  0.2914  0.0850  0.0260
  975POPC   C4B13522  14.262  10.488   7.902 -0.1362  0.2142  0.1287
  976POPC   NC313523   8.182  15.536   5.813 -0.1133  0.0257  0.2445
  976POPC   PO413524   8.175  16.010   5.863 -0.1385 -0.1594 -0.0074
  976POPC   GL113525   8.222  16.107   6.271  0.2979  0.2225  0.1567
  976POPC   GL213526   8.479  15.979   6.552 -0.1387  0.1907  0.1065
  976POPC   C1A13527   7.966  16.229   6.535  0.0405 -0.0412 -0.0307
  976POPC   D2A13528   8.013  16.171   7.008  0.2662 -0.1363  0.4844
  976POPC   C3A13529   8.420  15.991   7.163  0.0817  0.0881 -0.1550
  976POPC   C4A13530   8.639  15.957   7.506 -0.0687 -0.2571  0.3003
  976POPC   C1B13531   8.795  15.936   6.873 -0.0059 -0.1765  0.0829
  976POPC   C2B13532   8.984  15.852   7.173 -0.0505  0.1872 -0.0092
  976POPC   C3B13533   9.127  15.754   7.585 -0.2044  0.1382 -0.3772
  976POPC   C4B13534   9.455  15.553   7.896 -0.1169 -0.1803 -0.0400
  977POPC   NC313535  18.078  16.820   5.400 -0.0470  0.0805  0.3055
  977POPC   PO413536  17.830  16.581   5.606  0.0756 -0.1075  0.0963
  977POPC   GL113537  17.558  16.556   5.894 -0.0290  0.1461  0.1016
  977POPC   GL213538  17.239  16.746   6.012  0.1265  0.2143  0.1724
  977POPC   C1A13539  17.643  16.463   6.363 -0.0588 -0.0810  0.2818
  977POPC   D2A13540  17.667  16.327   6.752  0.0098 -0.1413 -0.0310
  977POPC   C3A13541  17.791  16.422   7.168  0.0883 -0.0523  0.0160
  977POPC   C4A13542  17.918  16.711   7.512 -0.2891  0.3829 -0.1211
  977POPC   C1B13543  17.156  16.645   6.472 -0.0441 -0.2970 -0.2909
  977POPC   C2B13544  17.183  16.522   6.968  0.1102 -0.0370 -0.2615
  977POPC   C3B13545  17.366  16.752   7.344 -0.0311  0.4780  0.0569
  977POPC   C4B13546  17.551  16.979   7.732 -0.1204 -0.2085 -0.0603
  978POPC   NC313547   0.500   0.392   5.146 -0.0566  0.2573  0.0359
  978POPC   PO413548   0.790   0.857   5.304 -0.1041  0.1647  0.1347
  978POPC   GL113549   0.826   0.694   5.710 -0.0901 -0.1670  0.0390
  978POPC   GL213550   0.698   0.970   5.892  0.2166  0.1676 -0.1218
  978POPC   C1A13551   1.012   0.524   6.091  0.2306 -0.0350  0.2036
  978POPC   D2A13552   1.111   0.263   6.402  0.0213  0.0736 -0.1211
  978POPC   C3A13553   1.517   0.079   6.300 -0.0685  0.0612 -0.2011
  978POPC   C4A13554   1.734  -0.070   6.129  0.0228 -0.1278 -0.0728
  978POPC   C1B13555   0.820   0.900   6.383  0.0125  0.0712  0.0213
  978POPC   C2B13556   0.860   1.197   6.652  0.0860  0.1057 -0.0299
  978POPC   C3B13557   0.628   1.209   6.981  0.1093 -0.1245 -0.2650
  978POPC   C4B13558   0.432   1.403   7.322  0.1777  0.2231 -0.1684
  979POPC   NC313559  14.282   7.907   5.646  0.1536 -0.2685 -0.2770
  979POPC   PO413560  14.210   7.492   5.810 -0.0254  0.0600  0.2980
  979POPC   GL113561  14.401   7.154   6.124  0.2381 -0.0165 -0.1216
  979POPC   GL213562  14.685   7.208   6.190  0.0896 -0.4965  0.0186
  979POPC   C1A13563  14.400   7.266   6.588  0.0509 -0.0280  0.1977
  979POPC   D2A13564  14.613   7.218   6.840 -0.0872  0.0881  0.0297
  979POPC   C3A13565  14.591   7.440   7.270  0.0188 -0.1455 -0.4934
  979POPC   C4A13566  14.663   7.481   7.744 -0.2099 -0.3581  0.1345
  979POPC   C1B13567  14.887   7.075   6.488 -0.0287  0.2479 -0.2625
  979POPC   C2B13568  14.900   6.779   6.823 -0.0077 -0.1315  0.0535
  979POPC   C3B13569  14.772   6.742   7.206  0.1253  0.1214 -0.2749
  979POPC   C4B13570  14.848   6.975   7.600 -0.0239 -0.0607 -0.2090
  980POPC   NC313571  13.229   1.915   5.697  0.1167 -0.0991  0.2782
  980POPC   PO413572  13.550   1.943   5.810 -0.3439  0.0683  0.0485
  980POPC   GL113573  13.680   1.855   6.265 -0.0534 -0.0736  0.2440
  980POPC   GL213574  14.025   1.697   6.368  0.0768  0.1225 -0.1073
  980POPC   C1A13575  13.737   1.801   6.761 -0.0442  0.1841 -0.1616
  980POPC   D2A13576  13.868   1.729   7.132  0.3355 -0.1260  0.0122
  980POPC   C3A13577  13.667   1.939   7.428  0.2019 -0.2024 -0.2167
  980POPC   C4A13578  13.358   2.174   7.611  0.0699  0.2605  0.0862
  980POPC   C1B13579  14.256   1.814   6.788  0.1925 -0.0283  0.0851
  980POPC   C2B13580  14.497   1.892   7.128 -0.0502  0.0082 -0.0195
  980POPC   C3B13581  14.611   2.124   7.483 -0.0015 -0.3351  0.0170
  980POPC   C4B13582  14.545   2.223   7.810 -0.0791  0.1769  0.3810
  981POPC   NC313583   5.251  10.399   6.029  0.2406 -0.1610 -0.2173
  981POPC   PO413584   5.084   9.947   6.138 -0.1939 -0.0859 -0.1625
  981POPC   GL113585   5.102  10.147   6.534 -0.3003 -0.1787 -0.2721
  981POPC   GL213586   4.848  10.290   6.520 -0.5703 -0.1162  0.1246
  981POPC   C1A13587   5.226  10.049   6.987 -0.2548 -0.1742 -0.1429
  981POPC   D2A13588   5.230  10.002   7.431 -0.1997  0.0087 -0.3807
  981POPC   C3A13589   5.438   9.672   7.551  0.0236 -0.0554  0.1675
  981POPC   C4A13590   5.390   9.471   7.978 -0.2079 -0.1145 -0.2595
  981POPC   C1B13591   4.791  10.378   6.960  0.2285  0.1787  0.0478
  981POPC   C2B13592   4.757  10.206   7.376  0.2280 -0.2999 -0.1782
  981POPC   C3B13593   4.937  10.148   7.785 -0.1372 -0.2768 -0.2157
  981POPC   C4B13594   5.273   9.990   7.977  0.0621  0.3313 -0.2298
  982YOPC   NC313595   8.414   9.578   5.848  0.1190 -0.1103 -0.2062
  982YOPC   PO413596   8.006   9.700   5.988 -0.1317  0.1730  0.0610
  982YOPC   GL113597   8.004   9.726   6.460  0.1408 -0.0801  0.3462
  982YOPC   GL213598   7.828  10.044   6.532 -0.1624  0.0317 -0.0792
  982YOPC   C1A13599   7.961   9.596   6.883 -0.0520 -0.1251 -0.2354
  982YOPC   D2A13600   8.149   9.572   7.268 -0.0991 -0.0157 -0.0843
  982YOPC   C3A13601   7.950   9.570   7.637  0.1362  0.0989  0.0898
  982YOPC   C4A13602   7.725   9.278   7.923  0.1008  0.0119 -0.1161
  982YOPC   C1B13603   8.146  10.114   6.903 -0.1819 -0.2199 -0.1858
  982YOPC   C2B13604   8.562  10.237   7.140 -0.2392  0.1402 -0.0828
  982YOPC   D3B13605   8.705  10.074   7.528 -0.0988 -0.1521  0.2187
  982YOPC   C4B13606   8.730  10.200   8.000 -0.2854  0.1411  0.2897
  983YOPC   NC313607   6.973   5.629   5.276  0.1650 -0.1704  0.2196
  983YOPC   PO413608   6.778   5.882   5.596 -0.1508  0.4109 -0.1256
  983YOPC   GL113609   7.188   5.981   5.663  0.2573  0.2643 -0.0729
  983YOPC   GL213610   7.307   5.705   5.578 -0.1490 -0.2505 -0.1100
  983YOPC   C1A13611   7.405   6.070   6.004 -0.3231 -0.1082  0.1547
  983YOPC   D2A13612   7.595   6.368   6.309 -0.0096  0.1010  0.1457
  983YOPC   C3A13613   7.702   6.159   6.742 -0.1937  0.1116  0.0775
  983YOPC   C4A13614   7.469   6.141   7.178 -0.1443  0.2901 -0.1920
  983YOPC   C1B13615   7.694   5.563   5.891  0.2319  0.0221 -0.4532
  983YOPC   C2B13616   7.753   5.325   6.196  0.1854 -0.3081 -0.0025
  983YOPC   D3B13617   7.544   5.308   6.540  0.0812  0.1880  0.0134
  983YOPC   C4B13618   7.139   5.302   6.741 -0.0673  0.2435 -0.1876
  984YOPC   NC313619   0.248  17.674   5.528  0.1245 -0.3335 -0.0365
  984YOPC   PO413620  -0.141  17.693   5.649 -0.0700  0.0772 -0.0574
  984YOPC   GL113621  -0.236  17.791   6.032  0.1124 -0.2041 -0.0089
  984YOPC   GL213622  -0.571  17.939   6.118  0.0753  0.1313  0.1157
  984YOPC   C1A13623  -0.296  17.745   6.545  0.1753 -0.2411  0.1608
  984YOPC   D2A13624  -0.314  17.604   7.009 -0.0704  0.0707 -0.0685
  984YOPC   C3A13625  -0.298  17.755   7.394  0.0629  0.1697 -0.1560
  984YOPC   C4A13626  -0.297  18.062   7.649  0.0302  0.2861  0.1738
  984YOPC   C1B13627  -0.731  17.656   6.452 -0.0284 -0.1812 -0.0272
  984YOPC   C2B13628  -0.722  17.343   6.672 -0.0642  0.0332 -0.0977
  984YOPC   D3B13629  -0.763  17.373   7.173  0.0494 -0.0548  0.3053
  984YOPC   C4B13630  -0.632  17.414   7.544 -0.1015  0.3945 -0.1646
  985YOPC   NC313631   5.009   7.265   5.675  0.6450 -0.0196 -0.0566
  985YOPC   PO413632   5.337   7.194   5.934 -0.0288  0.2968  0.1349
  985YOPC   GL113633   5.097   7.007   6.291  0.0423  0.0502 -0.0812
  985YOPC   GL213634   4.877   7.128   6.445  0.0314 -0.1446  0.3629
  985YOPC   C1A13635   5.209   6.773   6.658  0.0254 -0.2704  0.1660
  985YOPC   D2A13636   5.418   6.499   6.966 -0.1851 -0.1634  0.0543
  985YOPC   C3A13637   5.851   6.395   7.243  0.2826  0.1788 -0.3257
  985YOPC   C4A13638   6.148   6.102   7.231 -0.2048 -0.1822 -0.1185
  985YOPC   C1B13639   4.930   7.147   6.869 -0.1217 -0.0415 -0.0878
  985YOPC   C2B13640   5.194   6.972   7.154 -0.0355  0.1918  0.1499
  985YOPC   D3B13641   5.347   7.153   7.552 -0.0922 -0.1876 -0.0575
  985YOPC   C4B13642   5.314   7.029   7.969  0.0998 -0.0244 -0.3708
  986YOPC   NC313643  16.167  12.314   5.751 -0.2251 -0.2045  0.2862
  986YOPC   PO413644  16.577  12.413   5.956  0.1373 -0.1463  0.1765
  986YOPC   GL113645  16.350  12.526   6.320  0.1928  0.1105  0.3661
  986YOPC   GL213646  16.321  12.888   6.238  0.1276  0.2206 -0.1912
  986YOPC   C1A13647  16.307  12.565   6.811  0.0535 -0.0636 -0.0094
  986YOPC   D2A13648  16.297  12.522   7.206 -0.1539 -0.1573  0.0012
  986YOPC   C3A13649  15.992  12.348   7.467 -0.1160 -0.0577 -0.0405
  986YOPC   C4A13650  16.073  12.277   7.862  0.0923 -0.3225 -0.0459
  986YOPC   C1B13651  16.466  13.040   6.631 -0.3935  0.0552  0.1453
  986YOPC   C2B13652  16.430  13.045   7.107  0.0257  0.0538 -0.0806
  986YOPC   D3B13653  16.365  12.989   7.508 -0.0409 -0.1028  0.2574
  986YOPC   C4B13654  16.385  12.645   7.747 -0.0004 -0.1256 -0.2033
  987YOPC   NC313655  11.161   2.615   5.533 -0.0776 -0.0133  0.3503
  987YOPC   PO413656  11.071   2.168   5.403  0.2319  0.0055  0.0410
  987YOPC   GL113657  11.167   2.047   5.877  0.1080  0.2382  0.0144
  987YOPC   GL213658  10.894   1.923   6.062  0.0283 -0.1378  0.1776
  987YOPC   C1A13659  11.235   2.088   6.359  0.0452  0.3007 -0.0064
  987YOPC   D2A13660  11.131   2.055   6.775  0.2311  0.0617 -0.5482
  987YOPC   C3A13661  11.037   1.971   7.252  0.1867 -0.0434 -0.4285
  987YOPC   C4A13662  10.887   1.720   7.654  0.1379  0.3117 -0.2673
  987YOPC   C1B13663  10.721   1.849   6.473 -0.0064  0.1212 -0.0017
  987YOPC   C2B13664  10.604   1.966   6.913 -0.0324 -0.0633  0.0715
  987YOPC   D3B13665  10.468   2.089   7.340  0.1577 -0.2155  0.2350
  987YOPC   C4B13666  10.408   2.322   7.702  0.0240  0.0493 -0.0084
  988YOPC   NC313667  16.428  10.423   5.930  0.0409  0.1752 -0.0244
  988YOPC   PO413668  16.760  10.729   5.972 -0.2104 -0.0068  0.0774
  988YOPC   GL113669  16.708  10.568   6.341 -0.3326 -0.0418 -0.0688
  988YOPC   GL213670  16.982  10.403   6.499 -0.0832 -0.0528 -0.0263
  988YOPC   C1A13671  16.594  10.827   6.739 -0.3399 -0.2251  0.0982
  988YOPC   D2A13672  16.612  11.203   7.024  0.1849  0.1164 -0.0621
  988YOPC   C3A13673  16.353  11.222   7.303 -0.0572 -0.3045  0.0146
  988YOPC   C4A13674  16.068  11.289   7.549 -0.0174  0.0716 -0.0629
  988YOPC   C1B13675  17.092  10.809   6.531  0.1198 -0.0813  0.1486
  988YOPC   C2B13676  17.069  11.146   6.945 -0.3051  0.0069 -0.0209
  988YOPC   D3B13677  17.168  11.127   7.343 -0.0062 -0.1977 -0.0532
  988YOPC   C4B13678  17.112  11.336   7.756 -0.3029  0.2807 -0.1473
  989YOPC   NC313679   1.819   6.063   6.047 -0.1967 -0.3001  0.1448
  989YOPC   PO413680   2.107   6.406   5.950  0.2559  0.0748  0.0317
  989YOPC   GL113681   2.124   6.307   6.375  0.1324  0.3605  0.0908
  989YOPC   GL213682   2.362   5.994   6.453 -0.0010  0.1904 -0.0196
  989YOPC   C1A13683   2.171   6.274   6.845 -0.3333  0.0280 -0.1357
  989YOPC   D2A13684   2.345   5.932   7.082 -0.1519 -0.1159  0.0126
  989YOPC   C3A13685   2.180   5.726   7.291 -0.0621  0.0378 -0.1679
  989YOPC   C4A13686   1.908   5.840   7.638 -0.2199 -0.0411  0.1281
  989YOPC   C1B13687   2.624   5.746   6.737  0.0234 -0.2322 -0.2432
  989YOPC   C2B13688   2.794   5.780   7.224 -0.1079  0.2034  0.1415
  989YOPC   D3B13689   2.592   5.906   7.639  0.1385 -0.2547 -0.0025
  989YOPC   C4B13690   2.364   5.852   8.019  0.0437 -0.2342  0.2978
  990YOPC   NC313691   7.223   4.661   5.447  0.1083  0.0722 -0.1963
  990YOPC   PO413692   6.950   4.995   5.334  0.1541  0.3793 -0.1942
  990YOPC   GL113693   7.184   5.148   5.731 -0.0109  0.0468 -0.2041
  990YOPC   GL213694   7.045   4.934   5.859 -0.0993  0.1481 -0.1196
  990YOPC   C1A13695   7.259   5.217   6.193 -0.0609  0.1651  0.0231
  990YOPC   D2A13696   7.262   5.642   6.253 -0.1927 -0.1478  0.2457
  990YOPC   C3A13697   7.602   5.842   6.370 -0.0881 -0.0359 -0.2342
  990YOPC   C4A13698   7.916   6.030   6.101 -0.1069  0.0003 -0.3472
  990YOPC   C1B13699   6.696   4.912   6.215 -0.0643  0.0710  0.0473
  990YOPC   C2B13700   6.629   5.056   6.541  0.0903 -0.2360 -0.3441
  990YOPC   D3B13701   6.802   4.930   6.957 -0.2276 -0.0760 -0.1728
  990YOPC   C4B13702   7.173   5.059   7.182 -0.1370 -0.1639  0.1998
  991YOPC   NC313703   7.677   9.468   5.683  0.0029 -0.0697  0.0174
  991YOPC   PO413704   7.420   9.756   5.780  0.0527  0.2743 -0.1867
  991YOPC   GL113705   7.498   9.742   6.246  0.0907  0.2961  0.2295
  991YOPC   GL213706   7.609   9.490   6.369 -0.2886 -0.0805  0.2396
  991YOPC   C1A13707   7.191   9.520   6.628  0.0260  0.1010  0.1662
  991YOPC   D2A13708   7.012   9.684   6.947  0.0210 -0.0024  0.1470
  991YOPC   C3A13709   6.916   9.492   7.374 -0.0571 -0.1868 -0.0896
  991YOPC   C4A13710   6.766   9.403   7.695  0.0646  0.0536 -0.0191
  991YOPC   C1B13711   7.644   9.293   6.683  0.1977 -0.0046 -0.1005
  991YOPC   C2B13712   7.477   9.536   7.025  0.0899 -0.1038 -0.0578
  991YOPC   D3B13713   7.704   9.860   7.287  0.1429 -0.1475 -0.0590
  991YOPC   C4B13714   8.052  10.143   7.372 -0.0075 -0.0063  0.1678
  992YOPC   NC313715   5.143  15.862   5.284  0.0494  0.2626 -0.0170
  992YOPC   PO413716   5.635  15.971   5.356  0.2820 -0.0833  0.0507
  992YOPC   GL113717   5.760  16.161   5.724 -0.0342  0.1461  0.1725
  992YOPC   GL213718   5.682  15.915   5.873 -0.3396 -0.1119  0.0569
  992YOPC   C1A13719   5.820  16.326   6.196  0.2091  0.2400  0.0115
  992YOPC   D2A13720   5.648  16.546   6.594 -0.1211 -0.2608  0.0407
  992YOPC   C3A13721   5.299  16.614   6.866 -0.1200 -0.0289 -0.1634
  992YOPC   C4A13722   4.965  16.680   7.141 -0.2762  0.0516 -0.0584
  992YOPC   C1B13723   5.827  15.885   6.328 -0.0078  0.3180 -0.1456
  992YOPC   C2B13724   5.573  15.996   6.645 -0.0490  0.1727 -0.0353
  992YOPC   D3B13725   5.583  16.185   7.084  0.0163  0.1715 -0.0893
  992YOPC   C4B13726   5.411  16.464   7.327 -0.1337  0.0415  0.0417
  993YOPC   NC313727   2.990   4.049   5.721  0.3246 -0.0155  0.2129
  993YOPC   PO413728   2.498   4.019   5.926 -0.2382 -0.0413  0.2565
  993YOPC   GL113729   2.392   3.906   6.384 -0.0633  0.1057 -0.1091
  993YOPC   GL213730   2.309   3.552   6.469  0.2629  0.0659 -0.3103
  993YOPC   C1A13731   2.691   3.937   6.668  0.1710 -0.1910 -0.1367
  993YOPC   D2A13732   2.856   3.982   7.143  0.0732 -0.0843  0.0289
  993YOPC   C3A13733   3.219   4.217   7.138  0.0144  0.1422 -0.2651
  993YOPC   C4A13734   3.512   4.340   7.477  0.0324  0.0271  0.0282
  993YOPC   C1B13735   2.502   3.333   6.841  0.0286 -0.1339  0.1812
  993YOPC   C2B13736   2.751   3.330   7.225 -0.0870  0.0034  0.1541
  993YOPC   D3B13737   3.226   3.459   7.298 -0.1112  0.0584  0.0591
  993YOPC   C4B13738   3.444   3.418   7.638  0.3354  0.0560  0.1373
  994YOPC   NC313739  17.926   4.146   5.786  0.0817  0.2986 -0.3859
  994YOPC   PO413740  17.616   4.437   5.984 -0.2253  0.2289 -0.0361
  994YOPC   GL113741  17.250   4.690   6.214  0.0458 -0.0879 -0.1016
  994YOPC   GL213742  16.928   4.584   6.330  0.0590 -0.1694  0.0286
  994YOPC   C1A13743  17.029   5.155   6.338  0.2856  0.0083  0.0023
  994YOPC   D2A13744  16.740   5.433   6.366 -0.1257 -0.0153  0.1422
  994YOPC   C3A13745  16.785   5.625   6.687 -0.1704 -0.2860 -0.0684
  994YOPC   C4A13746  16.736   5.804   6.975  0.0706  0.1242  0.3529
  994YOPC   C1B13747  17.012   4.756   6.759  0.1808 -0.2611  0.2846
  994YOPC   C2B13748  17.183   4.788   7.226  0.1309 -0.1540  0.1519
  994YOPC   D3B13749  17.098   4.529   7.466 -0.2910 -0.0076  0.0546
  994YOPC   C4B13750  17.410   4.400   7.619 -0.1978  0.0346 -0.1808
  995YOPC   NC313751  18.384   2.810   5.273  0.0032  0.2742  0.1556
  995YOPC   PO413752  18.309   2.358   5.192 -0.2155 -0.1518 -0.1680
  995YOPC   GL113753  18.224   2.444   5.648  0.0599  0.3178 -0.1882
  995YOPC   GL213754  17.860   2.415   5.697 -0.2684 -0.2010 -0.1015
  995YOPC   C1A13755  18.366   2.503   6.055  0.0481  0.0683 -0.3561
  995YOPC   D2A13756  18.703   2.486   6.461 -0.1246 -0.0598 -0.0450
  995YOPC   C3A13757  18.738   2.508   6.905 -0.1398  0.0892 -0.1274
  995YOPC   C4A13758  18.853   2.426   7.360  0.0061  0.0592 -0.0380
  995YOPC   C1B13759  18.032   2.118   6.040  0.1220  0.1160 -0.2449
  995YOPC   C2B13760  17.937   1.905   6.495  0.2534 -0.1111  0.0421
  995YOPC   D3B13761  18.221   1.645   6.703  0.4403 -0.0747  0.1212
  995YOPC   C4B13762  18.445   1.343   6.880 -0.0198  0.0985  0.2124
  996YOPC   NC313763   8.694  13.788   4.865  0.2736  0.0541 -0.2527
  996YOPC   PO413764   8.370  13.761   5.113 -0.0352 -0.1251 -0.2135
  996YOPC   GL113765   8.278  13.702   5.559 -0.1042  0.1439  0.1398
  996YOPC   GL213766   8.254  13.852   5.686 -0.2756 -0.2626  0.2847
  996YOPC   C1A13767   8.277  13.385   5.927  0.0943  0.0922 -0.0280
  996YOPC   D2A13768   8.184  13.191   6.408 -0.3400 -0.0815  0.1362
  996YOPC   C3A13769   8.199  13.220   6.898 -0.1592  0.1733  0.0389
  996YOPC   C4A13770   8.401  13.225   7.281  0.0145 -0.1008 -0.3374
  996YOPC   C1B13771   8.633  13.823   5.945  0.1667 -0.4305 -0.3055
  996YOPC   C2B13772   8.965  13.614   6.170  0.0982 -0.1426  0.1911
  996YOPC   D3B13773   9.076  13.614   6.579  0.0400 -0.1581  0.0843
  996YOPC   C4B13774   9.036  13.526   7.039  0.0818  0.0119  0.1235
  997YOPC   NC313775  14.174  13.225   5.542  0.1858 -0.1827  0.0614
  997YOPC   PO413776  14.371  12.863   5.440  0.2024 -0.2047  0.4779
  997YOPC   GL113777  14.433  12.895   5.896 -0.0640  0.0868  0.0413
  997YOPC   GL213778  14.299  13.111   6.051 -0.0706 -0.4553 -0.1337
  997YOPC   C1A13779  14.476  12.624   6.253  0.2285  0.0272 -0.0275
  997YOPC   D2A13780  14.501  12.618   6.622  0.0366  0.2333  0.0014
  997YOPC   C3A13781  14.670  12.348   6.719 -0.1091 -0.0890  0.0724
  997YOPC   C4A13782  15.012  12.086   6.589  0.1780  0.2415 -0.2313
  997YOPC   C1B13783  14.187  12.973   6.465 -0.0447  0.0078 -0.1226
  997YOPC   C2B13784  14.319  12.912   6.979 -0.1300  0.1942 -0.2800
  997YOPC   D3B13785  14.184  13.038   7.379  0.1749 -0.0179  0.1546
  997YOPC   C4B13786  13.810  12.964   7.575 -0.1683  0.1183  0.1305
  998YOPC   NC313787  15.422   2.479   5.727 -0.0308 -0.0584  0.0582
  998YOPC   PO413788  15.992   2.533   5.746  0.1836 -0.1559  0.0880
  998YOPC   GL113789  15.791   2.554   6.055 -0.1345 -0.2453 -0.0623
  998YOPC   GL213790  15.466   2.607   6.188  0.1616  0.3450  0.1838
  998YOPC   C1A13791  15.942   2.643   6.469  0.0970  0.1472  0.3306
  998YOPC   D2A13792  15.777   3.087   6.668  0.0099  0.4377  0.2286
  998YOPC   C3A13793  15.624   3.112   6.979 -0.1263 -0.0468  0.1137
  998YOPC   C4A13794  15.321   3.319   7.186  0.2446  0.0982 -0.2583
  998YOPC   C1B13795  15.462   2.691   6.523 -0.2429 -0.0800 -0.0326
  998YOPC   C2B13796  15.627   2.631   6.919  0.0145 -0.2370  0.0117
  998YOPC   D3B13797  15.999   2.772   6.991 -0.2053  0.1516 -0.1850
  998YOPC   C4B13798  16.342   2.742   7.287 -0.1055 -0.0846 -0.1421
  999YOPC   NC313799   8.199  11.435   5.853 -0.1641  0.2016  0.0893
  999YOPC   PO413800   8.431  11.753   5.950 -0.3810  0.0468  0.2179
  999YOPC   GL113801   8.618  12.158   6.021  0.0279 -0.0319 -0.0530
  999YOPC   GL213802   8.793  12.048   6.142  0.1403  0.0683 -0.0581
  999YOPC   C1A13803   8.821  12.368   6.474  0.5167 -0.0158  0.0795
  999YOPC   D2A13804   8.925  12.517   6.912  0.0853  0.1644 -0.1324
  999YOPC   C3A13805   8.802  12.369   7.329  0.0156  0.0088 -0.1806
  999YOPC   C4A13806   9.005  12.241   7.689 -0.1792 -0.0606  0.0806
  999YOPC   C1B13807   8.711  11.908   6.606  0.0805 -0.0694 -0.0471
  999YOPC   C2B13808   8.847  11.951   6.990 -0.2481  0.2222 -0.3058
  999YOPC   D3B13809   8.716  11.881   7.360  0.4080  0.2058  0.0270
  999YOPC   C4B13810   8.524  11.932   7.685  0.3767 -0.1637  0.1028
 1000YOPC   NC313811  15.910   7.159   5.160  0.1746  0.0134  0.0405
 1000YOPC   PO413812  15.921   7.226   5.679 -0.1183  0.1315  0.3883
 1000YOPC   GL113813  16.042   7.259   6.074 -0.0008 -0.0427 -0.0138
 1000YOPC   GL213814  16.308   7.289   6.251 -0.0386 -0.1691 -0.0863
 1000YOPC   C1A13815  15.777   7.212   6.437 -0.1393  0.4499 -0.1974
 1000YOPC   D2A13816  15.338   7.040   6.589 -0.0550 -0.0250 -0.1359
 1000YOPC   C3A13817  15.355   6.582   6.587  0.1046  0.0715 -0.0215
 1000YOPC   C4A13818  15.221   6.299   6.870  0.1558 -0.0738 -0.3125
 1000YOPC   C1B13819  16.202   7.306   6.767 -0.4375  0.0718  0.3836
 1000YOPC   C2B13820  16.024   7.371   7.251 -0.2196 -0.0514  0.3615
 1000YOPC   D3B13821  15.811   7.612   7.421  0.1657 -0.2190  0.0620
 1000YOPC   C4B13822  15.656   7.770   7.794 -0.1883  0.1706  0.0294
 1001YOPC   NC313823  17.821  17.584   5.766  0.0409 -0.1226  0.2535
 1001YOPC   PO413824  17.532  17.945   5.732  0.3223  0.0143  0.0359
 1001YOPC   GL113825  17.318  17.909   6.100 -0.2419  0.3328 -0.1755
 1001YOPC   GL213826  17.320  18.135   6.241  0.1643 -0.2414  0.0681
 1001YOPC   C1A13827  17.216  17.619   6.488 -0.1186 -0.0491  0.1946
 1001YOPC   D2A13828  17.322  17.524   6.883 -0.1102 -0.4203  0.2977
 1001YOPC   C3A13829  17.150  17.722   7.168 -0.0253  0.4433  0.2445
 1001YOPC   C4A13830  16.848  17.859   7.295 -0.0942  0.4189 -0.0307
 1001YOPC   C1B13831  17.417  18.034   6.629  0.1200  0.1936 -0.0528
 1001YOPC   C2B13832  17.701  17.821   6.938  0.1401  0.0611 -0.1547
 1001YOPC   D3B13833  17.693  17.862   7.315  0.1835 -0.0652 -0.2820
 1001YOPC   C4B13834  17.458  18.040   7.454 -0.0018 -0.1741 -0.1044
 1002YOPC   NC313835  17.104  15.798   5.627  0.0733  0.0192 -0.2255
 1002YOPC   PO413836  17.059  16.337   5.766  0.0447 -0.2500 -0.0741
 1002YOPC   GL113837  17.254  16.201   6.138  0.1536  0.1789 -0.0319
 1002YOPC   GL213838  17.113  15.947   6.130  0.1182  0.2365 -0.1461
 1002YOPC   C1A13839  17.221  16.093   6.594 -0.0605  0.0194 -0.1695
 1002YOPC   D2A13840  17.369  16.054   7.051  0.0860 -0.2957 -0.2348
 1002YOPC   C3A13841  17.400  16.216   7.419  0.0719  0.2099 -0.1523
 1002YOPC   C4A13842  17.696  16.312   7.680 -0.1701  0.0998  0.3873
 1002YOPC   C1B13843  17.296  15.631   6.466 -0.2037 -0.1788 -0.0170
 1002YOPC   C2B13844  17.249  15.213   6.731 -0.3464  0.1716 -0.6571
 1002YOPC   D3B13845  17.132  15.332   7.125 -0.1589  0.0466 -0.2718
 1002YOPC   C4B13846  17.117  15.226   7.508 -0.0301 -0.5181  0.1356
 1003YOPC   NC313847   0.226  14.254   4.911  0.1104  0.0539  0.1716
 1003YOPC   PO413848   0.198  14.511   5.302  0.3214 -0.0024  0.1206
 1003YOPC   GL113849   0.105  14.437   5.783 -0.2008 -0.2030  0.0678
 1003YOPC   GL213850  -0.192  14.497   5.882  0.1960  0.2940 -0.0648
 1003YOPC   C1A13851   0.177  14.552   6.196  0.2178  0.1254  0.0826
 1003YOPC   D2A13852   0.044  14.469   6.599 -0.0328 -0.1240  0.0635
 1003YOPC   C3A13853   0.132  14.731   6.922  0.0022  0.1474  0.0273
 1003YOPC   C4A13854  -0.034  14.808   7.365 -0.1511 -0.2903 -0.0346
 1003YOPC   C1B13855  -0.333  14.362   6.295  0.1455 -0.3894 -0.0908
 1003YOPC   C2B13856  -0.369  14.131   6.713  0.0543  0.3020 -0.0743
 1003YOPC   D3B13857  -0.159  14.283   7.075  0.2783  0.0442  0.1617
 1003YOPC   C4B13858  -0.043  14.206   7.430 -0.1016  0.0142 -0.0163
 1004YOPC   NC313859   1.205   6.551   6.260 -0.1073 -0.0269  0.1090
 1004YOPC   PO413860   1.558   6.491   6.033 -0.0912  0.0975  0.0999
 1004YOPC   GL113861   1.703   6.557   6.358 -0.1439 -0.2353  0.0318
 1004YOPC   GL213862   1.581   6.228   6.496 -0.0863  0.0413  0.1850
 1004YOPC   C1A13863   1.814   6.576   6.785  0.3471 -0.0942  0.1130
 1004YOPC   D2A13864   1.834   6.721   7.197 -0.0282  0.1774  0.0478
 1004YOPC   C3A13865   2.197   6.706   7.542  0.1359 -0.2228  0.0237
 1004YOPC   C4A13866   2.567   6.645   7.824 -0.1703 -0.4424 -0.1856
 1004YOPC   C1B13867   1.682   6.127   6.889 -0.2531 -0.1004 -0.0788
 1004YOPC   C2B13868   1.915   6.182   7.275 -0.0786  0.0532  0.1290
 1004YOPC   D3B13869   1.749   6.415   7.597  0.0544  0.1312  0.1336
 1004YOPC   C4B13870   1.681   6.757   7.763  0.4427  0.2773 -0.0112
 1005YOPC   NC313871  13.885   2.172   5.495 -0.0632 -0.0847 -0.0102
 1005YOPC   PO413872  13.998   2.409   5.948  0.0584  0.2369 -0.1012
 1005YOPC   GL113873  13.867   2.287   6.226 -0.0741 -0.0507  0.2293
 1005YOPC   GL213874  13.586   2.313   6.202 -0.1904  0.2461 -0.1148
 1005YOPC   C1A13875  13.928   2.215   6.603 -0.1706  0.1949  0.1431
 1005YOPC   D2A13876  13.864   2.208   6.984  0.2058 -0.1234 -0.3098
 1005YOPC   C3A13877  14.090   2.155   7.258  0.0988 -0.1178  0.1969
 1005YOPC   C4A13878  14.173   1.894   7.638  0.3380  0.0165  0.0753
 1005YOPC   C1B13879  13.530   2.493   6.610  0.1211 -0.0917  0.0409
 1005YOPC   C2B13880  13.462   2.600   7.049  0.5216 -0.1110 -0.1435
 1005YOPC   D3B13881  13.740   2.448   7.397  0.0364  0.0543  0.3365
 1005YOPC   C4B13882  13.763   2.190   7.865  0.1147 -0.2033  0.3923
 1006YOPC   NC313883   6.252  10.513   6.096 -0.0294  0.1447 -0.2254
 1006YOPC   PO413884   6.426  10.813   5.926 -0.2798  0.0732  0.3490
 1006YOPC   GL113885   6.612  10.762   6.410 -0.2432  0.1214 -0.2442
 1006YOPC   GL213886   6.953  10.569   6.531  0.2111 -0.1466  0.3657
 1006YOPC   C1A13887   6.422  11.000   6.810 -0.2800 -0.1040  0.2018
 1006YOPC   D2A13888   6.311  11.103   7.204 -0.1029 -0.3113  0.1481
 1006YOPC   C3A13889   6.478  11.170   7.646  0.1319  0.1247  0.0002
 1006YOPC   C4A13890   6.389  11.173   8.070 -0.5113  0.2408 -0.0614
 1006YOPC   C1B13891   6.640  10.574   6.977  0.1769 -0.2319 -0.2861
 1006YOPC   C2B13892   6.403  10.503   7.326  0.2205 -0.1261  0.1331
 1006YOPC   D3B13893   6.425  10.370   7.631  0.1836 -0.0048 -0.1117
 1006YOPC   C4B13894   6.178  10.168   7.960 -0.0950 -0.1051 -0.0728
 1007YOPC   NC313895   8.035   3.900   5.406 -0.1500 -0.1037  0.0410
 1007YOPC   PO413896   7.895   3.464   5.239 -0.1804 -0.0363  0.0786
 1007YOPC   GL113897   7.954   3.450   5.680 -0.1216 -0.0309  0.0556
 1007YOPC   GL213898   8.097   3.453   5.848 -0.0731  0.3278 -0.0931
 1007YOPC   C1A13899   7.650   3.562   5.952 -0.1589  0.0168 -0.4167
 1007YOPC   D2A13900   7.634   3.915   6.403 -0.4308  0.2973 -0.3720
 1007YOPC   C3A13901   8.069   3.972   6.599  0.2095  0.0039  0.0676
 1007YOPC   C4A13902   8.171   4.332   6.926 -0.1375  0.2315  0.2383
 1007YOPC   C1B13903   7.977   3.535   6.340  0.1847  0.3083 -0.0648
 1007YOPC   C2B13904   7.964   3.486   6.733  0.3048 -0.0390 -0.1986
 1007YOPC   D3B13905   7.696   3.921   6.926 -0.0439  0.0750 -0.0900
 1007YOPC   C4B13906   7.699   4.375   6.785  0.0720 -0.2849 -0.0037
 1008YOPC   NC313907   6.589  14.014   5.700  0.0338  0.0291 -0.0526
 1008YOPC   PO413908   6.212  14.090   5.834  0.3756  0.0031  0.0744
 1008YOPC   GL113909   6.189  14.269   6.181  0.1486  0.0868 -0.3047
 1008YOPC   GL213910   6.451  14.574   6.315 -0.0408 -0.0645  0.1921
 1008YOPC   C1A13911   6.319  14.124   6.613 -0.0115  0.2611 -0.2051
 1008YOPC   D2A13912   6.550  14.078   6.991 -0.3559  0.0128 -0.2685
 1008YOPC   C3A13913   6.756  13.856   7.360  0.2791 -0.1080 -0.2350
 1008YOPC   C4A13914   6.927  13.483   7.585 -0.2640 -0.0337 -0.0044
 1008YOPC   C1B13915   6.729  14.521   6.709 -0.1223 -0.0119  0.3572
 1008YOPC   C2B13916   6.850  14.409   7.113  0.0611 -0.0809 -0.1174
 1008YOPC   D3B13917   7.144  14.229   7.265 -0.0177 -0.0188 -0.1113
 1008YOPC   C4B13918   7.288  13.908   7.497  0.2657 -0.1506 -0.1214
 1009YOPC   NC313919   0.677   8.076   6.230 -0.2463 -0.0125 -0.2484
 1009YOPC   PO413920   0.731   7.634   6.087  0.1184 -0.0337  0.0365
 1009YOPC   GL113921   0.761   7.631   6.571 -0.0002 -0.0381  0.0744
 1009YOPC   GL213922   0.555   7.490   6.720  0.1383 -0.1778  0.0958
 1009YOPC   C1A13923   0.944   7.984   6.828 -0.1087 -0.2409 -0.4861
 1009YOPC   D2A13924   1.049   8.065   7.242 -0.0193  0.1996  0.2287
 1009YOPC   C3A13925   1.006   8.468   7.469 -0.2552 -0.1615  0.0071
 1009YOPC   C4A13926   1.205   8.741   7.759 -0.1456 -0.3945 -0.0008
 1009YOPC   C1B13927   0.520   7.787   7.125 -0.0236 -0.0975  0.1624
 1009YOPC   C2B13928   0.494   7.890   7.524  0.0357  0.2330 -0.0112
 1009YOPC   D3B13929   0.929   8.016   7.698  0.1256 -0.0412  0.1182
 1009YOPC   C4B13930   1.369   8.275   7.863  0.1555  0.0686  0.1250
 1010YOPC   NC313931   6.445  15.584   5.613  0.1331 -0.0005 -0.0192
 1010YOPC   PO413932   6.261  15.335   5.919 -0.1805 -0.0708 -0.1408
 1010YOPC   GL113933   5.910  15.356   6.031  0.0300  0.0605  0.0939
 1010YOPC   GL213934   5.693  15.137   6.138  0.0542 -0.0449 -0.0393
 1010YOPC   C1A13935   5.822  15.444   6.501  0.0053 -0.1666 -0.2287
 1010YOPC   D2A13936   5.679  15.505   6.849  0.0591  0.1058 -0.0550
 1010YOPC   C3A13937   5.779  15.744   7.179  0.0697  0.2537  0.0669
 1010YOPC   C4A13938   6.133  15.778   7.492  0.1744  0.2045  0.2168
 1010YOPC   C1B13939   5.637  15.006   6.546  0.1111 -0.0668  0.0856
 1010YOPC   C2B13940   5.836  15.008   6.908  0.1538 -0.2087 -0.2411
 1010YOPC   D3B13941   5.615  15.170   7.230  0.1036 -0.1610  0.4776
 1010YOPC   C4B13942   5.702  15.498   7.661  0.1700 -0.0268 -0.0706
 1011YOPC   NC313943  18.096  11.381   5.839 -0.2113  0.0225  0.1121
 1011YOPC   PO413944  18.512  11.496   6.015  0.3251 -0.1617 -0.0627
 1011YOPC   GL113945  18.240  11.660   6.335 -0.0649  0.2057 -0.1129
 1011YOPC   GL213946  18.030  11.540   6.384  0.2539  0.0534 -0.1196
 1011YOPC   C1A13947  18.206  11.830   6.743  0.2405 -0.2407 -0.2160
 1011YOPC   D2A13948  18.418  12.036   7.138 -0.0334  0.2102 -0.0588
 1011YOPC   C3A13949  18.491  11.795   7.594  0.1226  0.3592 -0.0449
 1011YOPC   C4A13950  18.814  11.896   7.976 -0.0045 -0.0098 -0.3329
 1011YOPC   C1B13951  17.768  11.462   6.751 -0.0677  0.0927  0.2290
 1011YOPC   C2B13952  17.596  11.331   7.091 -0.2601  0.1011 -0.0060
 1011YOPC   D3B13953  17.560  11.549   7.497 -0.1251  0.1473  0.0463
 1011YOPC   C4B13954  17.435  11.636   7.959  0.1077  0.3692 -0.3991
 1012YOPC   NC313955  18.242  15.649   5.766 -0.2131 -0.0610  0.0260
 1012YOPC   PO413956  18.496  15.377   5.837  0.0677 -0.0128 -0.0141
 1012YOPC   GL113957  18.426  15.609   6.286  0.1752 -0.0183 -0.1302
 1012YOPC   GL213958  18.092  15.670   6.250  0.0771 -0.0472  0.1600
 1012YOPC   C1A13959  18.564  15.971   6.498 -0.2706 -0.0653 -0.2830
 1012YOPC   D2A13960  18.599  16.201   6.928 -0.1911  0.0960 -0.0082
 1012YOPC   C3A13961  18.366  16.131   7.341 -0.0256 -0.0045 -0.1893
 1012YOPC   C4A13962  18.040  15.956   7.601 -0.0707  0.0581  0.0080
 1012YOPC   C1B13963  18.139  15.502   6.761 -0.1807  0.1015  0.1338
 1012YOPC   C2B13964  18.207  15.193   7.082 -0.1815 -0.0046 -0.1831
 1012YOPC   D3B13965  18.198  15.237   7.560 -0.4174 -0.1823 -0.0715
 1012YOPC   C4B13966  17.939  15.528   7.840  0.1638 -0.1750  0.1487
 1013YOPC   NC313967  13.893   6.490   5.720 -0.1835  0.2569 -0.1794
 1013YOPC   PO413968  14.311   6.510   5.672 -0.1347  0.3256  0.2253
 1013YOPC   GL113969  14.343   6.327   6.022 -0.1385 -0.0144  0.0101
 1013YOPC   GL213970  14.112   6.571   6.157  0.0699  0.2298 -0.0283
 1013YOPC   C1A13971  14.165   6.144   6.347 -0.1747  0.0641  0.2001
 1013YOPC   D2A13972  13.932   6.378   6.666 -0.0026 -0.0539 -0.1565
 1013YOPC   C3A13973  13.895   6.090   6.953 -0.0247  0.2909 -0.0619
 1013YOPC   C4A13974  14.010   5.923   7.280  0.1370  0.1277 -0.1713
 1013YOPC   C1B13975  14.048   6.870   6.511 -0.1953  0.1775 -0.0808
 1013YOPC   C2B13976  14.044   7.029   6.862 -0.1687  0.2431  0.0448
 1013YOPC   D3B13977  14.325   6.898   7.190 -0.2694 -0.0501 -0.1764
 1013YOPC   C4B13978  14.399   6.727   7.655 -0.1867 -0.0423 -0.0182
 1014YOPC   NC313979   1.204   9.705   6.395  0.1071  0.2491 -0.0327
 1014YOPC   PO413980   0.762   9.826   6.209  0.1646  0.2847 -0.1605
 1014YOPC   GL113981   0.760  10.052   6.570 -0.0211  0.1621  0.0901
 1014YOPC   GL213982   0.699  10.344   6.603  0.3211  0.1600  0.1330
 1014YOPC   C1A13983   0.853   9.986   6.990 -0.0078 -0.1610 -0.3364
 1014YOPC   D2A13984   0.826   9.912   7.313 -0.1075  0.0960 -0.0965
 1014YOPC   C3A13985   0.889  10.164   7.736  0.2347  0.2035 -0.0740
 1014YOPC   C4A13986   1.059  10.568   8.060 -0.1100  0.0553  0.1677
 1014YOPC   C1B13987   0.772  10.579   6.984  0.1202  0.2714  0.0160
 1014YOPC   C2B13988   1.043  10.908   7.115 -0.0779  0.1670  0.1620
 1014YOPC   D3B13989   1.074  10.982   7.532 -0.0785 -0.1834 -0.0385
 1014YOPC   C4B13990   1.318  11.005   7.890  0.0417  0.0455  0.0343
 1015YOPC   NC313991   2.814  13.627   5.795  0.2704 -0.1604  0.0413
 1015YOPC   PO413992   2.589  13.317   5.952  0.1251  0.1677 -0.1071
 1015YOPC   GL113993   2.610  13.148   6.348 -0.0240  0.2880 -0.0254
 1015YOPC   GL213994   2.686  12.790   6.315  0.1555  0.0535  0.2249
 1015YOPC   C1A13995   2.644  13.115   6.806  0.0633  0.0427 -0.0748
 1015YOPC   D2A13996   2.632  13.206   7.270 -0.1647  0.2028  0.1997
 1015YOPC   C3A13997   2.468  13.088   7.615  0.0451  0.2295  0.0322
 1015YOPC   C4A13998   2.534  12.931   8.048 -0.3017 -0.0102 -0.0501
 1015YOPC   C1B13999   2.241  12.656   6.636 -0.2247  0.2522  0.0796
 1015YOPC   C2B14000   2.105  12.699   7.096  0.3177  0.1592 -0.0351
 1015YOPC   D3B14001   1.920  12.323   7.335  0.0513  0.3150 -0.1863
 1015YOPC   C4B14002   1.725  11.960   7.253 -0.1555  0.2064 -0.3391
 1016YOPC   NC314003   4.981  13.763   5.773  0.1032  0.1008  0.0879
 1016YOPC   PO414004   4.662  13.876   5.816  0.2080 -0.0525 -0.0978
 1016YOPC   GL114005   4.611  13.950   6.140  0.1683  0.2829  0.2723
 1016YOPC   GL214006   4.289  13.954   6.262 -0.1526  0.1069  0.0431
 1016YOPC   C1A14007   4.851  14.117   6.415  0.2334 -0.2171  0.3310
 1016YOPC   D2A14008   5.022  14.484   6.509 -0.0503 -0.1411  0.1066
 1016YOPC   C3A14009   4.898  14.592   6.922  0.1430 -0.0111  0.0333
 1016YOPC   C4A14010   4.936  14.684   7.429  0.1277 -0.3374  0.0802
 1016YOPC   C1B14011   4.503  13.696   6.574  0.2258  0.0033 -0.0946
 1016YOPC   C2B14012   4.511  13.404   6.865 -0.0386 -0.0027 -0.0211
 1016YOPC   D3B14013   4.471  13.520   7.327  0.0039  0.0592  0.2327
 1016YOPC   C4B14014   4.154  13.499   7.729 -0.2239  0.2708 -0.0482
 1017YOPC   NC314015   2.190   0.443   4.996 -0.0390 -0.0602 -0.0306
 1017YOPC   PO414016   2.463   0.209   5.213 -0.2319 -0.0677  0.1280
 1017YOPC   GL114017   2.373   0.179   5.621 -0.0324  0.1927  0.0757
 1017YOPC   GL214018   2.375   0.378   5.879  0.3063  0.2894  0.1394
 1017YOPC   C1A14019   2.272  -0.107   5.994  0.0738 -0.1831 -0.5200
 1017YOPC   D2A14020   2.301  -0.231   6.424 -0.0662  0.0285  0.0114
 1017YOPC   C3A14021   2.562  -0.507   6.594 -0.2016 -0.0252  0.2193
 1017YOPC   C4A14022   2.896  -0.608   6.806 -0.2098  0.0521 -0.1447
 1017YOPC   C1B14023   2.024   0.345   6.173  0.0027  0.1935  0.0603
 1017YOPC   C2B14024   1.906   0.165   6.570  0.2102 -0.2708  0.0103
 1017YOPC   D3B14025   2.086  -0.074   6.877 -0.0075  0.1230  0.1274
 1017YOPC   C4B14026   2.338  -0.359   7.078 -0.1872 -0.0608  0.0265
 1018YOPC   NC314027   9.214   9.841   6.043 -0.2103 -0.1885  0.1119
 1018YOPC   PO414028   8.951   9.447   5.971 -0.0413 -0.1325  0.1637
 1018YOPC   GL114029   8.730   9.462   6.312 -0.1379 -0.4139 -0.2313
 1018YOPC   GL214030   8.494   9.617   6.419 -0.2181 -0.2346  0.0659
 1018YOPC   C1A14031   8.878   9.465   6.875  0.0105  0.2047  0.2139
 1018YOPC   D2A14032   9.161   9.345   7.143  0.0771  0.2980 -0.4583
 1018YOPC   C3A14033   9.153   8.993   7.378 -0.1626 -0.2054  0.2172
 1018YOPC   C4A14034   8.972   8.714   7.664 -0.0851  0.1509 -0.0675
 1018YOPC   C1B14035   8.490   9.778   6.825 -0.1312  0.1413  0.0771
 1018YOPC   C2B14036   8.617   9.734   7.229 -0.0943 -0.0099  0.0918
 1018YOPC   D3B14037   8.909   9.642   7.430 -0.1701  0.0579  0.1928
 1018YOPC   C4B14038   9.134   9.703   7.719 -0.0548  0.1592  0.2194
 1019YOPC   NC314039  13.355  14.595   6.070 -0.0432  0.2551 -0.0616
 1019YOPC   PO414040  13.685  14.773   5.795 -0.0639  0.1462  0.3484
 1019YOPC   GL114041  13.678  14.924   6.155 -0.0386 -0.1807  0.2294
 1019YOPC   GL214042  13.933  15.133   6.334 -0.0859  0.0502 -0.0454
 1019YOPC   C1A14043  13.486  14.978   6.577  0.1000 -0.0186  0.1057
 1019YOPC   D2A14044  13.553  14.757   6.948 -0.1803 -0.0546  0.1073
 1019YOPC   C3A14045  13.678  14.943   7.272 -0.1520  0.0367  0.0039
 1019YOPC   C4A14046  14.160  14.940   7.473  0.1738 -0.0491  0.2608
 1019YOPC   C1B14047  13.936  15.164   6.743  0.0507  0.0511  0.0691
 1019YOPC   C2B14048  14.028  15.291   7.158 -0.2128 -0.3000  0.0834
 1019YOPC   D3B14049  14.231  15.407   7.490  0.1083 -0.4996 -0.0219
 1019YOPC   C4B14050  14.431  15.452   7.920  0.2026  0.0896 -0.3996
 1020YOPC   NC314051  15.909  13.215   5.572  0.0169 -0.1901  0.0467
 1020YOPC   PO414052  15.571  13.496   5.588  0.0999 -0.0554 -0.0424
 1020YOPC   GL114053  15.688  13.540   5.966  0.0447  0.0553 -0.0020
 1020YOPC   GL214054  15.750  13.834   6.172  0.0288  0.0537  0.4310
 1020YOPC   C1A14055  15.493  13.242   6.235 -0.0605  0.0285 -0.1725
 1020YOPC   D2A14056  15.298  12.821   6.162 -0.0599 -0.0726 -0.0617
 1020YOPC   C3A14057  14.978  12.735   6.484 -0.0209  0.0358  0.0428
 1020YOPC   C4A14058  14.960  12.760   6.879  0.0487 -0.1214  0.0813
 1020YOPC   C1B14059  15.548  13.752   6.581  0.0974  0.3122  0.3135
 1020YOPC   C2B14060  15.432  13.550   6.920  0.0000 -0.1428  0.0256
 1020YOPC   D3B14061  15.580  13.249   7.102  0.0989 -0.0691 -0.0498
 1020YOPC   C4B14062  15.540  13.169   7.539  0.2662  0.1663 -0.1762
 1021YOPC   NC314063  15.323   6.564   5.767  0.0792  0.2082  0.0611
 1021YOPC   PO414064  15.279   6.195   6.024 -0.0109 -0.2050 -0.0368
 1021YOPC   GL114065  15.251   6.035   6.473 -0.2432  0.1225  0.1362
 1021YOPC   GL214066  15.442   5.752   6.386 -0.0607  0.0095 -0.1948
 1021YOPC   C1A14067  15.208   5.714   6.803 -0.0759 -0.0853 -0.3020
 1021YOPC   D2A14068  15.261   5.912   7.283  0.0732  0.0791  0.3238
 1021YOPC   C3A14069  15.260   6.321   7.380  0.1549  0.3337  0.0225
 1021YOPC   C4A14070  15.325   6.743   7.127  0.1029 -0.0879 -0.0476
 1021YOPC   C1B14071  15.736   5.916   6.700 -0.4057  0.1827  0.1208
 1021YOPC   C2B14072  15.859   5.659   7.112  0.2312  0.1070 -0.4916
 1021YOPC   D3B14073  15.610   5.632   7.407 -0.1321 -0.2138 -0.3386
 1021YOPC   C4B14074  15.430   5.554   7.804 -0.0302  0.1213 -0.1789
 1022YOPC   NC314075  13.010  15.793   5.430 -0.0939 -0.2813 -0.0212
 1022YOPC   PO414076  13.200  15.946   5.723 -0.1925 -0.0449  0.1010
 1022YOPC   GL114077  13.453  16.102   6.079  0.0296  0.2421  0.1093
 1022YOPC   GL214078  13.783  16.101   6.222 -0.0909  0.2737 -0.1443
 1022YOPC   C1A14079  13.403  16.095   6.566  0.0138  0.4267 -0.0050
 1022YOPC   D2A14080  13.212  15.947   6.946 -0.0773  0.0899  0.1563
 1022YOPC   C3A14081  12.998  15.520   6.951 -0.1803  0.2329 -0.0960
 1022YOPC   C4A14082  12.901  15.312   6.463 -0.0710  0.0286  0.1824
 1022YOPC   C1B14083  13.942  16.071   6.643 -0.1247  0.3016  0.0697
 1022YOPC   C2B14084  13.979  16.208   7.010 -0.0213  0.2260 -0.0618
 1022YOPC   D3B14085  14.181  16.583   6.875  0.1454  0.2664  0.1091
 1022YOPC   C4B14086  14.634  16.815   6.981  0.1481 -0.0276  0.0122
 1023YOPC   NC314087   8.072   8.779   5.955 -0.2997  0.1603  0.0007
 1023YOPC   PO414088   7.663   8.990   6.070 -0.0631  0.0749  0.0721
 1023YOPC   GL114089   7.849   8.867   6.437  0.0560 -0.2720 -0.2992
 1023YOPC   GL214090   7.914   8.571   6.427  0.1825 -0.0243 -0.1191
 1023YOPC   C1A14091   7.999   8.956   6.817 -0.3719  0.0154  0.0156
 1023YOPC   D2A14092   7.843   9.169   7.176 -0.2030 -0.2779 -0.1452
 1023YOPC   C3A14093   8.093   9.140   7.495 -0.3281  0.1346  0.0093
 1023YOPC   C4A14094   8.376   9.156   7.972  0.3614 -0.0113  0.1217
 1023YOPC   C1B14095   8.057   8.315   6.781 -0.1311 -0.0529 -0.1759
 1023YOPC   C2B14096   7.880   8.235   7.249 -0.2491  0.2097 -0.0718
 1023YOPC   D3B14097   7.895   8.082   7.711  0.1389  0.0845 -0.2154
 1023YOPC   C4B14098   8.056   8.183   8.053  0.1438  0.0876 -0.0722
 1024YOPC   NC314099   1.456  17.334   5.455 -0.1829 -0.0870  0.0548
 1024YOPC   PO414100   1.958  17.296   5.401 -0.2011  0.1399  0.0664
 1024YOPC   GL114101   1.836  17.150   5.738 -0.1446 -0.1823  0.3851
 1024YOPC   GL214102   1.942  17.439   5.888 -0.1052 -0.0334 -0.1222
 1024YOPC   C1A14103   1.892  16.819   6.092 -0.4243  0.0345  0.0503
 1024YOPC   D2A14104   1.738  16.834   6.500  0.0449  0.0836  0.1778
 1024YOPC   C3A14105   1.889  16.990   6.903  0.1636  0.0833  0.0742
 1024YOPC   C4A14106   2.072  16.755   7.167 -0.0763  0.1475  0.1446
 1024YOPC   C1B14107   2.060  17.285   6.220 -0.0172  0.2918 -0.0186
 1024YOPC   C2B14108   2.187  17.203   6.583 -0.1533  0.3786  0.1494
 1024YOPC   D3B14109   2.278  16.868   6.594  0.1107 -0.4261  0.0617
 1024YOPC   C4B14110   2.484  16.661   6.866 -0.1262  0.0022 -0.3375
 1025YOPC   NC314111  13.847   0.849   5.964  0.1385  0.2140  0.1639
 1025YOPC   PO414112  13.413   0.605   6.051 -0.0228  0.2469  0.2225
 1025YOPC   GL114113  13.241   0.791   6.354  0.1303 -0.1474 -0.0284
 1025YOPC   GL214114  13.064   1.138   6.324  0.0605 -0.0212  0.0961
 1025YOPC   C1A14115  13.262   0.906   6.771  0.0548  0.0376 -0.2770
 1025YOPC   D2A14116  13.270   1.084   7.194 -0.1010 -0.0529 -0.4344
 1025YOPC   C3A14117  13.387   0.897   7.569 -0.0259 -0.0285  0.0360
 1025YOPC   C4A14118  13.599   0.917   7.901  0.0112 -0.1491 -0.1965
 1025YOPC   C1B14119  13.315   1.430   6.607 -0.1206 -0.1595  0.2940
 1025YOPC   C2B14120  13.663   1.293   6.926  0.1425  0.0967  0.0184
 1025YOPC   D3B14121  13.644   1.352   7.423 -0.2271  0.0195  0.0231
 1025YOPC   C4B14122  13.885   1.387   7.779 -0.0111 -0.3330  0.0112
 1026YOPC   NC314123   2.095  12.093   6.226  0.4770  0.0102  0.4139
 1026YOPC   PO414124   1.749  11.903   6.015  0.0566 -0.0296 -0.1952
 1026YOPC   GL114125   1.325  11.788   6.198  0.4722 -0.4421  0.2875
 1026YOPC   GL214126   1.133  11.951   6.309  0.0723  0.0860  0.1698
 1026YOPC   C1A14127   1.108  11.498   6.379  0.0860 -0.0498  0.0895
 1026YOPC   D2A14128   1.275  11.175   6.559 -0.1672 -0.2066  0.0044
 1026YOPC   C3A14129   1.665  11.024   6.554 -0.0957 -0.1752 -0.0797
 1026YOPC   C4A14130   2.006  11.257   6.778 -0.1081 -0.0406  0.0211
 1026YOPC   C1B14131   0.905  11.837   6.622  0.3145 -0.1276 -0.0138
 1026YOPC   C2B14132   0.892  12.010   7.030  0.0799  0.0456  0.0314
 1026YOPC   D3B14133   1.221  11.882   7.232 -0.1802  0.0719 -0.2915
 1026YOPC   C4B14134   1.429  11.927   7.673 -0.3095 -0.3853  0.2972
 1027YOPC   NC314135  14.260  14.363   5.772  0.0997  0.0197  0.1385
 1027YOPC   PO414136  14.080  14.037   5.964  0.0211  0.1249  0.2093
 1027YOPC   GL114137  14.146  14.040   6.370  0.2006  0.3039 -0.0657
 1027YOPC   GL214138  13.918  14.031   6.558 -0.1040  0.3411 -0.0562
 1027YOPC   C1A14139  14.460  14.150   6.694 -0.0051 -0.0119  0.1222
 1027YOPC   D2A14140  14.816  14.287   6.924 -0.1459  0.0582  0.0239
 1027YOPC   C3A14141  14.945  14.130   7.373 -0.0038  0.1962 -0.1242
 1027YOPC   C4A14142  14.925  14.219   7.791  0.1614 -0.2779  0.2529
 1027YOPC   C1B14143  14.061  13.997   6.962  0.0000 -0.1876  0.0656
 1027YOPC   C2B14144  14.461  14.077   7.187  0.0991  0.2483  0.1332
 1027YOPC   D3B14145  14.386  14.112   7.681  0.0766 -0.0519 -0.1747
 1027YOPC   C4B14146  14.545  13.901   7.981  0.1104  0.0773  0.0291
 1028YOPC   NC314147  13.544   5.661   5.676  0.0276  0.4867 -0.0109
 1028YOPC   PO414148  13.169   5.552   5.632  0.1892 -0.1852  0.1216
 1028YOPC   GL114149  13.199   5.617   6.010 -0.1483 -0.1077  0.0321
 1028YOPC   GL214150  13.035   5.371   6.120  0.2044 -0.1257  0.1000
 1028YOPC   C1A14151  13.350   5.864   6.407  0.2427 -0.1852  0.0090
 1028YOPC   D2A14152  13.318   6.066   6.852  0.0270  0.1199 -0.3738
 1028YOPC   C3A14153  13.202   5.967   7.211 -0.1752 -0.1119  0.0596
 1028YOPC   C4A14154  13.064   5.976   7.605  0.0727 -0.0741  0.2080
 1028YOPC   C1B14155  12.906   5.405   6.502  0.1777  0.0032  0.0793
 1028YOPC   C2B14156  13.179   5.564   6.839  0.1960 -0.1206  0.2364
 1028YOPC   D3B14157  13.158   5.408   7.282 -0.0779 -0.0762 -0.0977
 1028YOPC   C4B14158  12.801   5.253   7.595  0.0052 -0.0421 -0.1090
 1029YOPC   NC314159   3.222   1.075   5.232 -0.1073 -0.0269 -0.2434
 1029YOPC   PO414160   3.051   1.485   5.441 -0.0587  0.0941 -0.1823
 1029YOPC   GL114161   3.200   1.483   5.966 -0.3707 -0.1767 -0.0780
 1029YOPC   GL214162   2.958   1.539   6.096  0.0200  0.0814 -0.0140
 1029YOPC   C1A14163   3.352   1.233   6.290 -0.2657 -0.1530 -0.0489
 1029YOPC   D2A14164   3.637   1.015   6.564 -0.1046  0.1419  0.1546
 1029YOPC   C3A14165   3.948   0.839   6.324  0.1253  0.1830 -0.0073
 1029YOPC   C4A14166   4.325   0.381   6.316  0.1178 -0.0463  0.2192
 1029YOPC   C1B14167   2.803   1.450   6.453  0.1410  0.3571 -0.0530
 1029YOPC   C2B14168   2.770   1.302   6.902  0.1064  0.1354  0.1378
 1029YOPC   D3B14169   2.735   0.983   7.221 -0.5581  0.1413 -0.3009
 1029YOPC   C4B14170   2.865   0.576   7.348 -0.0221 -0.1864  0.1832
 1030YOPC   NC314171  15.732  15.755   5.332 -0.0534 -0.1665 -0.0504
 1030YOPC   PO414172  15.667  16.250   5.388  0.3717  0.0007 -0.0409
 1030YOPC   GL114173  15.407  16.202   5.702  0.0846 -0.1202  0.0374
 1030YOPC   GL214174  15.420  16.491   5.918  0.2610  0.0874  0.1064
 1030YOPC   C1A14175  15.346  15.949   6.044  0.1305  0.0791  0.0909
 1030YOPC   D2A14176  15.442  15.793   6.417 -0.0436 -0.2758 -0.1573
 1030YOPC   C3A14177  15.412  15.981   6.886  0.2920  0.0579  0.0005
 1030YOPC   C4A14178  15.526  15.744   7.248  0.0653 -0.0360  0.4844
 1030YOPC   C1B14179  15.571  16.382   6.372 -0.0875  0.0703  0.0988
 1030YOPC   C2B14180  15.699  16.467   6.813  0.3684  0.1398 -0.0736
 1030YOPC   D3B14181  15.532  16.332   7.196  0.0472  0.1291  0.0740
 1030YOPC   C4B14182  15.368  16.439   7.628  0.0150 -0.0196  0.0320
 1031YOPC   NC314183   2.520  11.221   5.774  0.2540  0.2857 -0.2546
 1031YOPC   PO414184   2.601  11.502   6.072 -0.1997  0.2492 -0.1805
 1031YOPC   GL114185   2.390  11.697   6.440  0.0081 -0.1852  0.1990
 1031YOPC   GL214186   2.081  11.721   6.537  0.1999  0.2534  0.1488
 1031YOPC   C1A14187   2.508  11.793   6.766 -0.1572 -0.0166  0.1790
 1031YOPC   D2A14188   2.393  12.237   7.017  0.1294 -0.1234 -0.1068
 1031YOPC   C3A14189   1.971  12.277   6.877  0.1881 -0.0160 -0.4035
 1031YOPC   C4A14190   1.654  12.647   6.711 -0.1599  0.0805 -0.1028
 1031YOPC   C1B14191   2.082  11.705   6.982 -0.1700  0.0321 -0.0311
 1031YOPC   C2B14192   1.957  11.535   7.308  0.1851  0.5151  0.1713
 1031YOPC   D3B14193   1.905  11.153   7.312 -0.1925  0.1040 -0.2333
 1031YOPC   C4B14194   1.670  10.880   7.536 -0.0469  0.4237  0.1119
 1032YOPC   NC314195  15.489  10.617   5.690 -0.0618 -0.0924  0.1739
 1032YOPC   PO414196  15.081  10.281   5.781 -0.0257  0.0265  0.2032
 1032YOPC   GL114197  15.017  10.542   6.185  0.1968 -0.1614 -0.3360
 1032YOPC   GL214198  14.752  10.700   6.136  0.1915  0.0483 -0.0133
 1032YOPC   C1A14199  15.007  10.490   6.700 -0.1706  0.1817 -0.2528
 1032YOPC   D2A14200  15.074  10.585   7.093  0.0039  0.2455 -0.0921
 1032YOPC   C3A14201  15.449  10.625   7.375  0.0113  0.2015 -0.2648
 1032YOPC   C4A14202  15.662  10.273   7.585  0.1793 -0.1928 -0.0455
 1032YOPC   C1B14203  14.669  10.818   6.509  0.0177  0.0010 -0.0728
 1032YOPC   C2B14204  14.622  10.722   6.935  0.0193  0.1662 -0.1922
 1032YOPC   D3B14205  14.653  10.412   7.304  0.0460 -0.0479  0.0580
 1032YOPC   C4B14206  14.685  10.140   7.717  0.2461  0.1167 -0.2386
 1033YOPC   NC314207  11.078  11.352   5.419 -0.1593  0.1795  0.2122
 1033YOPC   PO414208  10.673  11.334   5.670 -0.0636 -0.1231 -0.1152
 1033YOPC   GL114209  10.881  11.076   5.864  0.1538 -0.0436  0.2227
 1033YOPC   GL214210  11.149  10.939   5.788 -0.1192  0.1553 -0.2886
 1033YOPC   C1A14211  10.915  10.793   6.204  0.0003 -0.1038 -0.0569
 1033YOPC   D2A14212  10.868  10.376   6.260 -0.1452  0.3758 -0.2309
 1033YOPC   C3A14213  10.616  10.307   6.664  0.0637 -0.2492  0.0672
 1033YOPC   C4A14214  10.448  10.495   6.889 -0.2363 -0.3026  0.1313
 1033YOPC   C1B14215  11.267  11.190   6.224  0.1056  0.2760 -0.4619
 1033YOPC   C2B14216  11.080  11.335   6.511 -0.1220  0.0283 -0.3153
 1033YOPC   D3B14217  11.211  11.486   6.933 -0.2870  0.1112 -0.1051
 1033YOPC   C4B14218  11.341  11.445   7.375  0.0894  0.1674 -0.1170
 1034YOPC   NC314219   9.807   2.150   4.828 -0.1442  0.0584 -0.3292
 1034YOPC   PO414220   9.824   2.220   5.299  0.0720  0.2757  0.0728
 1034YOPC   GL114221  10.058   2.228   5.656  0.0283  0.0207 -0.0565
 1034YOPC   GL214222  10.275   2.396   5.727  0.0564 -0.4927 -0.0133
 1034YOPC   C1A14223   9.948   2.065   6.112  0.0266  0.0018  0.1239
 1034YOPC   D2A14224   9.952   2.148   6.494  0.1222 -0.1207  0.2485
 1034YOPC   C3A14225   9.769   2.454   6.681 -0.0221  0.1701 -0.0843
 1034YOPC   C4A14226   9.623   2.725   7.107  0.1337 -0.1335 -0.0240
 1034YOPC   C1B14227   9.983   2.524   6.062 -0.0410 -0.2577 -0.3492
 1034YOPC   C2B14228   9.589   2.455   6.228 -0.2344 -0.2749  0.1674
 1034YOPC   D3B14229   9.250   2.665   6.407 -0.0463  0.1904 -0.0812
 1034YOPC   C4B14230   9.272   2.689   6.789  0.2000  0.0188 -0.0400
 1035YOPC   NC314231  17.945   1.925   5.049  0.1162 -0.1684  0.1520
 1035YOPC   PO414232  18.058   1.495   5.369  0.0097 -0.3395  0.1153
 1035YOPC   GL114233  18.204   1.522   5.785 -0.0210  0.0625 -0.1484
 1035YOPC   GL214234  18.534   1.559   5.708  0.0171 -0.1771  0.0327
 1035YOPC   C1A14235  18.242   1.559   6.203 -0.0603 -0.1015 -0.1006
 1035YOPC   D2A14236  18.390   1.300   6.435 -0.0299 -0.0761 -0.1941
 1035YOPC   C3A14237  18.007   1.158   6.755  0.0672 -0.1493  0.0778
 1035YOPC   C4A14238  17.846   1.063   7.083  0.0482  0.1011 -0.0940
 1035YOPC   C1B14239  18.837   1.464   6.020 -0.3082 -0.1390  0.1145
 1035YOPC   C2B14240  18.910   1.390   6.420  0.0911 -0.0134 -0.1330
 1035YOPC   D3B14241  18.832   1.664   6.844 -0.0853  0.0282  0.0505
 1035YOPC   C4B14242  19.030   1.876   7.285  0.2113 -0.1661 -0.2827
 1036YOPC   NC314243  10.819  14.914   6.018  0.1007 -0.1037  0.1884
 1036YOPC   PO414244  11.278  14.803   6.113  0.1025 -0.0288 -0.0082
 1036YOPC   GL114245  11.084  14.764   6.490  0.2680 -0.1859 -0.0103
 1036YOPC   GL214246  10.841  14.610   6.415 -0.0401  0.2582  0.0849
 1036YOPC   C1A14247  10.987  14.846   6.884  0.2103  0.2320  0.0254
 1036YOPC   D2A14248  10.777  14.955   7.229 -0.0989  0.0492 -0.1436
 1036YOPC   C3A14249  10.531  14.772   7.578 -0.1254 -0.4019 -0.0731
 1036YOPC   C4A14250  10.365  15.066   7.879  0.1168  0.2681  0.1366
 1036YOPC   C1B14251  10.606  14.457   6.700  0.3080 -0.2543 -0.2119
 1036YOPC   C2B14252  10.448  14.581   7.168  0.1509  0.2844  0.0842
 1036YOPC   D3B14253  10.630  14.249   7.523 -0.1176  0.1059  0.1481
 1036YOPC   C4B14254  10.766  13.915   7.858 -0.3408 -0.0280  0.1838
 1037YOPC   NC314255   6.799   3.949   5.390  0.2991 -0.1114 -0.2055
 1037YOPC   PO414256   6.833   4.359   5.283 -0.0627  0.2591  0.3039
 1037YOPC   GL114257   6.966   4.313   5.716 -0.1774  0.0841  0.2669
 1037YOPC   GL214258   6.810   4.110   5.875  0.1258  0.1048 -0.0253
 1037YOPC   C1A14259   6.982   4.532   6.127 -0.1535  0.0200  0.0914
 1037YOPC   D2A14260   6.896   4.595   6.555 -0.1420  0.0148 -0.0535
 1037YOPC   C3A14261   6.836   4.317   6.888  0.0490 -0.2189 -0.0254
 1037YOPC   C4A14262   6.709   4.149   7.178 -0.1286  0.2565 -0.1318
 1037YOPC   C1B14263   6.625   4.241   6.299  0.2975 -0.1784 -0.0917
 1037YOPC   C2B14264   6.481   4.027   6.774  0.1020  0.1270  0.1809
 1037YOPC   D3B14265   6.209   4.207   7.070 -0.5281 -0.2802 -0.0187
 1037YOPC   C4B14266   5.988   4.325   7.387  0.0035  0.5297 -0.0498
 1038YOPC   NC314267   7.745  11.830   5.166 -0.1438 -0.1982  0.2540
 1038YOPC   PO414268   7.691  11.634   5.636 -0.1404  0.0290  0.1248
 1038YOPC   GL114269   7.692  11.539   6.067  0.1306  0.2536 -0.1030
 1038YOPC   GL214270   7.904  11.775   6.187 -0.1571 -0.1289 -0.1503
 1038YOPC   C1A14271   7.546  11.588   6.497  0.1482 -0.1333  0.0115
 1038YOPC   D2A14272   7.484  11.813   6.827  0.3063  0.0231  0.2702
 1038YOPC   C3A14273   7.280  11.629   7.095 -0.2051  0.2965  0.1025
 1038YOPC   C4A14274   7.245  11.268   7.242 -0.1555 -0.0195  0.0283
 1038YOPC   C1B14275   7.956  11.848   6.548 -0.1134  0.2597 -0.1611
 1038YOPC   C2B14276   7.889  11.971   7.017 -0.3661 -0.3598  0.1959
 1038YOPC   D3B14277   7.618  12.009   7.355 -0.0478 -0.3799 -0.2976
 1038YOPC   C4B14278   7.293  11.853   7.588 -0.2083  0.2053 -0.2019
 1039YOPC   NC314279   1.887   2.338   5.401  0.2848 -0.1240  0.1216
 1039YOPC   PO414280   1.991   1.950   5.321  0.4668  0.1333 -0.1904
 1039YOPC   GL114281   1.953   1.922   5.795 -0.0937  0.1988 -0.1756
 1039YOPC   GL214282   1.890   1.648   5.752  0.0899 -0.0422 -0.1697
 1039YOPC   C1A14283   1.946   1.801   6.242 -0.2145  0.0417 -0.1223
 1039YOPC   D2A14284   1.777   1.762   6.619  0.0700 -0.3341  0.0759
 1039YOPC   C3A14285   1.870   1.848   7.028 -0.0787 -0.0872 -0.1928
 1039YOPC   C4A14286   1.593   1.973   7.419  0.2024 -0.1403  0.0093
 1039YOPC   C1B14287   1.527   1.649   5.902  0.1034 -0.0476  0.0434
 1039YOPC   C2B14288   1.393   1.783   6.264  0.1017  0.0432  0.1551
 1039YOPC   D3B14289   1.306   1.494   6.604  0.1854 -0.0858  0.0960
 1039YOPC   C4B14290   1.251   1.180   6.894 -0.2958 -0.0473  0.2448
 1040YOPC   NC314291   2.863   0.306   5.610 -0.2303 -0.1450 -0.1056
 1040YOPC   PO414292   2.902   0.783   5.513  0.1540 -0.0719  0.1379
 1040YOPC   GL114293   2.721   0.722   5.911  0.0957 -0.2044  0.3407
 1040YOPC   GL214294   2.823   0.927   6.253 -0.0038 -0.1193  0.0044
 1040YOPC   C1A14295   2.719   0.414   6.265  0.3934 -0.0020 -0.0891
 1040YOPC   D2A14296   2.402   0.256   6.507 -0.0201 -0.2879 -0.2309
 1040YOPC   C3A14297   2.359   0.338   6.916 -0.0649  0.0586  0.0563
 1040YOPC   C4A14298   2.327   0.643   7.121 -0.0010  0.1401  0.1587
 1040YOPC   C1B14299   3.053   0.922   6.627 -0.1159  0.0743 -0.0343
 1040YOPC   C2B14300   3.312   0.802   6.887 -0.2637 -0.2380  0.3206
 1040YOPC   D3B14301   3.232   0.406   7.085  0.1998  0.0162  0.0091
 1040YOPC   C4B14302   3.243   0.088   7.217 -0.2715  0.3534  0.1583
 1041YOPC   NC314303  13.562   8.102   5.511  0.0394  0.1478 -0.0787
 1041YOPC   PO414304  13.916   8.232   5.687  0.3290 -0.2567 -0.0197
 1041YOPC   GL114305  13.866   8.583   6.044  0.2110 -0.1544 -0.2891
 1041YOPC   GL214306  13.623   8.820   6.044  0.1435  0.0860 -0.1353
 1041YOPC   C1A14307  13.753   8.513   6.436  0.0114 -0.5033  0.1478
 1041YOPC   D2A14308  13.851   8.618   6.852 -0.1664  0.0992  0.2032
 1041YOPC   C3A14309  13.705   8.629   7.237  0.4064 -0.1287  0.0446
 1041YOPC   C4A14310  13.529   8.432   7.693  0.2696  0.0979 -0.0121
 1041YOPC   C1B14311  13.857   9.045   6.401  0.0480 -0.0316  0.0942
 1041YOPC   C2B14312  13.881   9.108   6.790  0.1310 -0.0345 -0.1676
 1041YOPC   D3B14313  13.834   9.102   7.275  0.0711 -0.0981 -0.2021
 1041YOPC   C4B14314  13.843   8.838   7.653  0.0923  0.2153 -0.1488
 1042YOPC   NC314315   4.945   2.617   5.820  0.0151  0.1390  0.0146
 1042YOPC   PO414316   4.411   2.650   5.555 -0.2458 -0.2277  0.0033
 1042YOPC   GL114317   4.457   2.512   5.948 -0.0173 -0.1075 -0.3756
 1042YOPC   GL214318   4.102   2.568   6.082 -0.1608 -0.2320  0.0016
 1042YOPC   C1A14319   4.524   2.604   6.408 -0.0507 -0.1580  0.3407
 1042YOPC   D2A14320   4.734   2.522   6.774 -0.1236 -0.2099  0.1400
 1042YOPC   C3A14321   4.663   2.114   7.003  0.0738 -0.1889  0.1419
 1042YOPC   C4A14322   4.531   2.036   7.423 -0.0194  0.2064  0.1365
 1042YOPC   C1B14323   4.018   2.443   6.509 -0.2023 -0.0435 -0.1251
 1042YOPC   C2B14324   3.778   2.350   6.723 -0.1036  0.1662 -0.0758
 1042YOPC   D3B14325   3.585   2.569   7.070  0.0565  0.2945  0.0285
 1042YOPC   C4B14326   3.404   2.721   7.438 -0.0181 -0.0841 -0.4101
 1043YOPC   NC314327   6.949   9.983   5.816 -0.1097  0.0437 -0.2932
 1043YOPC   PO414328   7.322  10.170   6.044  0.0751  0.2368  0.1366
 1043YOPC   GL114329   7.277  10.222   6.452  0.1576 -0.1348 -0.0233
 1043YOPC   GL214330   7.498  10.471   6.603 -0.1589  0.0493 -0.2487
 1043YOPC   C1A14331   7.369  10.036   6.885 -0.0757  0.1283 -0.6434
 1043YOPC   D2A14332   7.222  10.009   7.296  0.1015  0.1785 -0.0744
 1043YOPC   C3A14333   7.450  10.069   7.656 -0.1588  0.2906 -0.1811
 1043YOPC   C4A14334   7.787   9.908   7.937  0.3906  0.0430 -0.3868
 1043YOPC   C1B14335   7.705  10.406   6.957  0.3764 -0.3095  0.3971
 1043YOPC   C2B14336   7.578  10.416   7.329 -0.1441 -0.1579 -0.0672
 1043YOPC   D3B14337   7.741  10.481   7.733  0.0562 -0.0431 -0.1892
 1043YOPC   C4B14338   7.633  10.343   8.161 -0.2660  0.0273 -0.1492
 1044YOPC   NC314339  10.672   1.198   5.308 -0.1803 -0.0920  0.2370
 1044YOPC   PO414340  10.648   1.575   5.569  0.1420 -0.0365  0.2884
 1044YOPC   GL114341  10.457   1.609   5.949 -0.2691  0.2408 -0.0957
 1044YOPC   GL214342  10.371   1.878   5.983 -0.1270 -0.0547 -0.1494
 1044YOPC   C1A14343  10.291   1.528   6.301 -0.1789 -0.1364  0.3012
 1044YOPC   D2A14344  10.272   1.587   6.795 -0.0035  0.2521 -0.2612
 1044YOPC   C3A14345  10.028   1.762   7.134  0.0730  0.0908  0.2030
 1044YOPC   C4A14346   9.777   2.087   7.141  0.0409 -0.0736  0.2494
 1044YOPC   C1B14347  10.404   2.241   6.266 -0.0393  0.2980  0.1672
 1044YOPC   C2B14348  10.487   2.389   6.703  0.0911  0.0681 -0.0335
 1044YOPC   D3B14349  10.205   2.304   6.964 -0.1660 -0.0345 -0.0165
 1044YOPC   C4B14350  10.258   2.581   7.296  0.0008 -0.1063  0.1908
 1045YOPC   NC314351  13.038  16.742   5.536 -0.3060  0.0149 -0.0168
 1045YOPC   PO414352  13.044  17.003   5.959 -0.1698  0.1903  0.0368
 1045YOPC   GL114353  12.954  16.958   6.347  0.0783  0.1974 -0.0420
 1045YOPC   GL214354  13.250  16.878   6.598 -0.2308 -0.0322 -0.0066
 1045YOPC   C1A14355  12.809  16.845   6.780 -0.2186  0.0749 -0.1840
 1045YOPC   D2A14356  12.685  16.878   7.139 -0.0521  0.2511  0.0163
 1045YOPC   C3A14357  12.973  16.945   7.412  0.1073  0.2330  0.3255
 1045YOPC   C4A14358  12.975  17.261   7.672  0.1528  0.1253 -0.2673
 1045YOPC   C1B14359  13.296  16.953   7.062 -0.3347  0.0921 -0.1538
 1045YOPC   C2B14360  13.631  17.083   7.409  0.0239 -0.0588  0.1338
 1045YOPC   D3B14361  13.934  17.260   7.653 -0.0179  0.0063 -0.1170
 1045YOPC   C4B14362  14.249  17.147   8.003  0.2074  0.1848  0.1822
 1046YOPC   NC314363   4.835  17.917   5.410 -0.1913 -0.1224 -0.0567
 1046YOPC   PO414364   4.649  17.559   5.504 -0.1323 -0.0496 -0.1256
 1046YOPC   GL114365   4.803  17.461   5.863  0.2361  0.0435 -0.0949
 1046YOPC   GL214366   4.679  17.247   6.012 -0.1975  0.0286 -0.1325
 1046YOPC   C1A14367   4.847  17.637   6.235 -0.2835 -0.1005 -0.0730
 1046YOPC   D2A14368   5.195  17.640   6.533  0.2863  0.1842 -0.0884
 1046YOPC   C3A14369   5.238  17.932   6.917  0.0072  0.1471  0.0004
 1046YOPC   C4A14370   5.288  18.247   7.191  0.0230  0.0648  0.1430
 1046YOPC   C1B14371   4.480  17.378   6.397  0.0451  0.3477  0.2556
 1046YOPC   C2B14372   4.352  17.258   6.708  0.2097  0.1755  0.1684
 1046YOPC   D3B14373   4.550  17.139   7.059  0.0497  0.2475  0.1319
 1046YOPC   C4B14374   4.815  17.137   7.390 -0.0797  0.0494  0.0113
 1047YOPC   NC314375   2.687  15.125   5.012  0.1674  0.5223  0.0391
 1047YOPC   PO414376   2.651  15.288   5.515  0.1356 -0.2412 -0.0351
 1047YOPC   GL114377   2.331  15.396   5.842 -0.2518 -0.0211 -0.0142
 1047YOPC   GL214378   2.002  15.567   5.915 -0.0726  0.0868 -0.2644
 1047YOPC   C1A14379   2.304  15.339   6.263  0.2148  0.0926 -0.0226
 1047YOPC   D2A14380   1.957  15.435   6.536 -0.0171  0.2457  0.1928
 1047YOPC   C3A14381   2.037  15.383   6.928  0.1573 -0.1527 -0.1450
 1047YOPC   C4A14382   1.872  15.381   7.297  0.0068 -0.0666  0.0074
 1047YOPC   C1B14383   1.750  15.259   6.142  0.0438  0.0367  0.0981
 1047YOPC   C2B14384   1.417  15.221   6.485  0.1720 -0.0419 -0.0343
 1047YOPC   D3B14385   1.503  15.187   7.017  0.0674  0.1232 -0.1104
 1047YOPC   C4B14386   1.451  14.957   7.191  0.3622 -0.1759 -0.0286
 1048YOPC   NC314387   3.578  18.292   5.563 -0.0222 -0.0959 -0.1475
 1048YOPC   PO414388   3.867  18.019   5.528  0.1830  0.1964 -0.3009
 1048YOPC   GL114389   3.748  18.100   5.982 -0.2120  0.0890  0.0528
 1048YOPC   GL214390   4.056  18.357   5.947  0.0872 -0.0713 -0.0920
 1048YOPC   C1A14391   3.798  18.188   6.348  0.1340 -0.0243 -0.3233
 1048YOPC   D2A14392   3.973  18.357   6.660 -0.2382  0.3543  0.0582
 1048YOPC   C3A14393   4.105  18.689   6.755 -0.0914 -0.0405 -0.0201
 1048YOPC   C4A14394   4.233  18.803   7.118 -0.1805  0.2797  0.1969
 1048YOPC   C1B14395   4.321  18.328   6.322 -0.2348  0.0181 -0.1929
 1048YOPC   C2B14396   4.468  18.414   6.759  0.0154  0.0144 -0.2254
 1048YOPC   D3B14397   4.232  18.324   7.071  0.0199  0.0341 -0.1289
 1048YOPC   C4B14398   3.941  18.291   7.432  0.1786 -0.1304  0.1282
 1049YOPC   NC314399   4.084  18.460   5.418  0.2426 -0.3076  0.3506
 1049YOPC   PO414400   3.774  18.805   5.309 -0.3443 -0.1970  0.3628
 1049YOPC   GL114401   3.708  18.725   5.711  0.1780  0.1384  0.0599
 1049YOPC   GL214402   3.728  19.059   5.928 -0.1407  0.3914  0.0142
 1049YOPC   C1A14403   3.822  18.704   6.280  0.2155 -0.0594  0.0188
 1049YOPC   D2A14404   3.695  18.968   6.684 -0.0592  0.3755 -0.0974
 1049YOPC   C3A14405   4.056  19.198   6.764  0.1103  0.0321  0.0409
 1049YOPC   C4A14406   4.391  19.283   6.569  0.0964 -0.0605  0.1853
 1049YOPC   C1B14407   3.368  19.137   6.271 -0.3274 -0.0062 -0.0812
 1049YOPC   C2B14408   3.210  18.916   6.579  0.3566  0.1142  0.2694
 1049YOPC   D3B14409   2.824  18.967   6.804  0.1457 -0.1689 -0.0077
 1049YOPC   C4B14410   2.608  19.172   6.663  0.5158 -0.1630  0.3016
 1050YOPC   NC314411   6.094  12.831   5.471  0.3188 -0.0347 -0.0582
 1050YOPC   PO414412   6.477  12.775   5.695 -0.0948 -0.1805 -0.2123
 1050YOPC   GL114413   6.589  12.856   6.173 -0.1009 -0.0911 -0.0316
 1050YOPC   GL214414   6.735  13.104   6.070 -0.1049  0.5768  0.0549
 1050YOPC   C1A14415   6.608  12.834   6.599 -0.3075  0.0188 -0.1875
 1050YOPC   D2A14416   6.770  13.135   6.845  0.0099  0.1211  0.0591
 1050YOPC   C3A14417   6.865  13.070   7.230 -0.3404 -0.1194 -0.1105
 1050YOPC   C4A14418   7.140  13.031   7.594  0.2856 -0.1373  0.0806
 1050YOPC   C1B14419   7.103  12.810   6.288  0.0745 -0.1896  0.0970
 1050YOPC   C2B14420   7.519  12.727   6.347 -0.1906  0.0405 -0.1494
 1050YOPC   D3B14421   7.685  13.088   6.442  0.7030 -0.2129  0.0012
 1050YOPC   C4B14422   7.762  13.458   6.263 -0.0051  0.0039  0.0607
 1051YOPC   NC314423  14.295  12.046   5.705 -0.1263 -0.2597  0.2431
 1051YOPC   PO414424  14.702  11.906   5.622  0.0172 -0.0313  0.1651
 1051YOPC   GL114425  14.782  11.670   6.007  0.1338 -0.2103 -0.1664
 1051YOPC   GL214426  14.822  11.297   6.010 -0.0194  0.2395 -0.2642
 1051YOPC   C1A14427  14.967  11.619   6.424 -0.2513 -0.2183 -0.1338
 1051YOPC   D2A14428  14.905  11.543   6.882  0.2359  0.0563  0.1316
 1051YOPC   C3A14429  15.208  11.801   7.117  0.2089  0.1086  0.2595
 1051YOPC   C4A14430  15.120  11.978   7.544 -0.2361 -0.0878  0.2146
 1051YOPC   C1B14431  15.072  11.067   6.341 -0.1347 -0.0709  0.0723
 1051YOPC   C2B14432  15.059  11.067   6.740 -0.2878  0.0341  0.1559
 1051YOPC   D3B14433  15.111  11.175   7.181  0.0612 -0.0780 -0.1592
 1051YOPC   C4B14434  15.159  11.006   7.495 -0.0014 -0.0751  0.0862
 1052YOPC   NC314435  13.500   9.247   5.124  0.0436 -0.2495 -0.1444
 1052YOPC   PO414436  13.154   9.388   5.266  0.2900 -0.0533  0.0816
 1052YOPC   GL114437  12.929   9.484   5.616  0.2790  0.0102 -0.2550
 1052YOPC   GL214438  12.713   9.287   5.657  0.1186  0.3068  0.0328
 1052YOPC   C1A14439  13.000   9.448   6.010  0.0029  0.1525  0.0770
 1052YOPC   D2A14440  12.991   9.569   6.439 -0.0627  0.1109  0.0945
 1052YOPC   C3A14441  13.120   9.888   6.645  0.0348 -0.2750 -0.4341
 1052YOPC   C4A14442  13.290   9.957   7.079  0.0982 -0.1878 -0.0599
 1052YOPC   C1B14443  12.573   9.484   6.157 -0.1322 -0.1164  0.0825
 1052YOPC   C2B14444  12.504   9.769   6.489 -0.0278  0.2293  0.2273
 1052YOPC   D3B14445  12.244   9.633   6.966  0.1610 -0.0271 -0.1920
 1052YOPC   C4B14446  12.202   9.917   7.272  0.1465  0.1729 -0.1227
 1053YOPC   NC314447  12.853   0.643   5.966 -0.0058 -0.0281  0.0518
 1053YOPC   PO414448  12.435   0.487   6.024  0.2397 -0.1495  0.0531
 1053YOPC   GL114449  12.269   0.366   6.335  0.0576  0.1195 -0.1477
 1053YOPC   GL214450  12.212   0.106   6.269 -0.2073 -0.0531  0.2049
 1053YOPC   C1A14451  12.219   0.335   6.776 -0.3699  0.0310  0.0253
 1053YOPC   D2A14452  12.251   0.430   7.170  0.2390  0.0614 -0.0588
 1053YOPC   C3A14453  12.288   0.678   7.469  0.0943 -0.3890 -0.0503
 1053YOPC   C4A14454  12.297   0.900   7.918  0.0150 -0.0102 -0.3440
 1053YOPC   C1B14455  12.211  -0.132   6.574  0.0822 -0.2985  0.0865
 1053YOPC   C2B14456  12.410  -0.480   6.730  0.0772 -0.2279 -0.0237
 1053YOPC   D3B14457  12.620  -0.789   6.465 -0.0413 -0.0365  0.0168
 1053YOPC   C4B14458  12.528  -1.239   6.467  0.1039 -0.0536  0.0748
 1054YOPC   NC314459  16.509  15.471   5.169 -0.0459  0.3191 -0.0264
 1054YOPC   PO414460  16.151  15.466   5.439 -0.1021  0.0160 -0.1377
 1054YOPC   GL114461  16.206  15.394   5.859  0.0114  0.0071  0.1370
 1054YOPC   GL214462  16.142  15.037   6.023  0.6323 -0.1678 -0.1478
 1054YOPC   C1A14463  16.419  15.409   6.250 -0.1171 -0.1631  0.2079
 1054YOPC   D2A14464  16.790  15.719   6.440 -0.1243 -0.0624  0.3915
 1054YOPC   C3A14465  17.018  15.717   6.881  0.1275 -0.1814 -0.1421
 1054YOPC   C4A14466  17.017  15.817   7.378 -0.0779 -0.3138 -0.1474
 1054YOPC   C1B14467  16.251  15.039   6.490 -0.1660 -0.2616  0.2026
 1054YOPC   C2B14468  16.277  14.935   6.944  0.0510  0.1485 -0.0265
 1054YOPC   D3B14469  15.897  14.842   7.177 -0.1442  0.0752 -0.1815
 1054YOPC   C4B14470  15.681  14.740   7.605  0.1767 -0.1503 -0.3166
 1055YOPC   NC314471   8.744   1.327   5.816 -0.1534  0.0919 -0.1263
 1055YOPC   PO414472   8.727   0.970   5.801  0.1064 -0.1915  0.4010
 1055YOPC   GL114473   8.706   0.830   6.239 -0.1638  0.2018 -0.1178
 1055YOPC   GL214474   8.698   0.550   6.165  0.2076  0.0991  0.1651
 1055YOPC   C1A14475   8.959   0.987   6.570  0.1068  0.0024 -0.2152
 1055YOPC   D2A14476   8.820   1.156   7.014 -0.3023 -0.0936  0.1361
 1055YOPC   C3A14477   9.053   1.197   7.320 -0.1422  0.1499 -0.1480
 1055YOPC   C4A14478   8.877   1.287   7.633  0.1991  0.1011 -0.0460
 1055YOPC   C1B14479   8.648   0.267   6.350 -0.1461  0.1448 -0.2264
 1055YOPC   C2B14480   8.594   0.124   6.822 -0.2536 -0.2228  0.0036
 1055YOPC   D3B14481   8.646   0.219   7.178 -0.1092  0.1259 -0.0520
 1055YOPC   C4B14482   8.918   0.463   7.467  0.1174  0.0226 -0.0967
 1056YOPC   NC314483   4.604  10.975   5.865 -0.0049  0.3108  0.2151
 1056YOPC   PO414484   5.041  11.103   5.856 -0.0091 -0.0714  0.0424
 1056YOPC   GL114485   5.200  11.234   6.371  0.0104 -0.0658  0.1519
 1056YOPC   GL214486   5.189  11.503   6.434  0.0588 -0.1665 -0.1197
 1056YOPC   C1A14487   5.540  11.030   6.744 -0.1163 -0.2849  0.5161
 1056YOPC   D2A14488   5.369  10.920   7.159  0.0935  0.5922 -0.1411
 1056YOPC   C3A14489   5.478  10.931   7.564  0.2266  0.1730 -0.1495
 1056YOPC   C4A14490   5.487  10.973   8.069  0.2868  0.0710  0.3157
 1056YOPC   C1B14491   5.006  11.478   6.815 -0.1601  0.0583  0.1171
 1056YOPC   C2B14492   4.793  11.555   7.191 -0.1143  0.0853 -0.4489
 1056YOPC   D3B14493   5.053  11.319   7.475 -0.3150  0.1681  0.0178
 1056YOPC   C4B14494   5.326  11.420   7.870  0.0518 -0.2480 -0.1402
 1057YOPC   NC314495   8.453  17.035   5.859 -0.2174 -0.0978 -0.2013
 1057YOPC   PO414496   8.535  17.390   5.757  0.0994  0.0526 -0.0523
 1057YOPC   GL114497   8.223  17.426   6.115 -0.0365  0.1475  0.0094
 1057YOPC   GL214498   7.969  17.635   6.201  0.0372  0.0398 -0.0584
 1057YOPC   C1A14499   8.243  17.299   6.430  0.0498 -0.1572 -0.0894
 1057YOPC   D2A14500   8.149  17.263   6.944 -0.0740 -0.3922  0.0077
 1057YOPC   C3A14501   8.100  17.357   7.362 -0.0666  0.1342 -0.1584
 1057YOPC   C4A14502   8.037  17.433   7.866 -0.2215  0.1056 -0.0449
 1057YOPC   C1B14503   8.016  17.711   6.610 -0.4153  0.3049  0.1075
 1057YOPC   C2B14504   7.893  17.726   7.068  0.0007  0.1480  0.0655
 1057YOPC   D3B14505   7.467  17.771   7.117  0.2658 -0.4232 -0.1548
 1057YOPC   C4B14506   7.122  17.926   6.996 -0.1356 -0.3606 -0.1311
 1058YOPC   NC314507  18.308   7.210   6.121  0.1589  0.3059  0.0002
 1058YOPC   PO414508  18.248   7.672   6.101  0.1948  0.2144  0.0137
 1058YOPC   GL114509  18.136   7.942   6.462 -0.0533 -0.2910  0.3777
 1058YOPC   GL214510  17.788   7.899   6.525 -0.1112 -0.0389 -0.0064
 1058YOPC   C1A14511  18.149   8.156   6.836 -0.0927 -0.0763 -0.0660
 1058YOPC   D2A14512  18.571   8.114   7.141 -0.1960 -0.0393 -0.0173
 1058YOPC   C3A14513  18.485   8.451   7.429  0.0149 -0.0133 -0.0105
 1058YOPC   C4A14514  18.286   8.564   7.790  0.0276 -0.0634 -0.1527
 1058YOPC   C1B14515  17.546   8.038   6.965  0.0605 -0.1222  0.0818
 1058YOPC   C2B14516  17.242   8.251   7.130 -0.1448 -0.2328 -0.3394
 1058YOPC   D3B14517  17.308   8.626   7.429 -0.0996 -0.0922 -0.0205
 1058YOPC   C4B14518  17.318   8.697   7.869  0.0470  0.1560  0.0549
 1059YOPC   NC314519  16.502   1.028   5.261 -0.0237  0.1123 -0.1225
 1059YOPC   PO414520  16.848   0.935   5.565  0.3209 -0.0781 -0.1626
 1059YOPC   GL114521  16.879   0.974   6.064  0.4002  0.2705  0.3646
 1059YOPC   GL214522  16.993   1.269   6.260  0.1105 -0.3441 -0.0763
 1059YOPC   C1A14523  16.761   0.813   6.385  0.4225  0.3443  0.0160
 1059YOPC   D2A14524  16.453   0.477   6.565  0.0653 -0.2239 -0.2675
 1059YOPC   C3A14525  16.035   0.515   6.595 -0.0071 -0.1957  0.0965
 1059YOPC   C4A14526  15.785   0.440   6.872  0.0617 -0.0664  0.1030
 1059YOPC   C1B14527  16.945   1.169   6.648  0.0389  0.0996  0.0223
 1059YOPC   C2B14528  16.972   1.204   7.100 -0.3309 -0.1267  0.0955
 1059YOPC   D3B14529  17.006   1.043   7.539  0.0696 -0.2295 -0.0589
 1059YOPC   C4B14530  17.316   1.235   7.848  0.2232 -0.0914  0.3079
 1060YOPC   NC314531   4.145   7.524   5.953 -0.0074  0.0610 -0.0855
 1060YOPC   PO414532   4.490   7.831   5.876  0.0952 -0.0087 -0.3412
 1060YOPC   GL114533   4.501   7.782   6.277  0.0825  0.0912 -0.1850
 1060YOPC   GL214534   4.391   7.487   6.373 -0.2755  0.2914 -0.0268
 1060YOPC   C1A14535   4.378   7.899   6.764  0.1338  0.2777  0.3112
 1060YOPC   D2A14536   4.283   7.624   7.253  0.2832  0.2113  0.1347
 1060YOPC   C3A14537   4.278   7.394   7.623  0.1094  0.0076 -0.2554
 1060YOPC   C4A14538   4.107   7.312   8.021 -0.0821  0.1549  0.0866
 1060YOPC   C1B14539   4.480   7.357   6.814  0.1202  0.0677  0.1528
 1060YOPC   C2B14540   4.478   7.171   7.209  0.0902 -0.1219  0.1255
 1060YOPC   D3B14541   4.724   6.846   7.292 -0.0033 -0.0302 -0.0252
 1060YOPC   C4B14542   5.010   6.820   7.618 -0.0273  0.2160 -0.1731
 1061YOPC   NC314543   7.958   6.316   5.349 -0.0399  0.2667 -0.0694
 1061YOPC   PO414544   8.345   6.067   5.334 -0.0917 -0.0741  0.0446
 1061YOPC   GL114545   8.312   6.224   5.744 -0.0478  0.3247  0.3673
 1061YOPC   GL214546   8.573   6.022   5.912  0.0841  0.0383 -0.4544
 1061YOPC   C1A14547   8.186   6.445   5.994 -0.1621 -0.1640 -0.3269
 1061YOPC   D2A14548   8.069   6.434   6.448  0.0015 -0.0507  0.1147
 1061YOPC   C3A14549   8.119   6.373   6.879  0.1761  0.1047 -0.3892
 1061YOPC   C4A14550   8.164   6.304   7.266  0.1293 -0.4294  0.2945
 1061YOPC   C1B14551   8.414   6.022   6.363  0.4509 -0.0612 -0.0064
 1061YOPC   C2B14552   8.118   5.956   6.605  0.1724  0.5770  0.1628
 1061YOPC   D3B14553   8.130   5.848   7.029 -0.1489 -0.1289  0.1196
 1061YOPC   C4B14554   7.795   5.735   7.363  0.0064  0.0914 -0.0844
 1062YOPC   NC314555   3.959   9.874   5.391  0.1631 -0.0127  0.0667
 1062YOPC   PO414556   3.547  10.150   5.486 -0.3122 -0.2059 -0.2901
 1062YOPC   GL114557   3.645   9.884   5.857 -0.3553 -0.0709  0.0728
 1062YOPC   GL214558   3.412   9.735   6.013  0.0914 -0.2245 -0.1170
 1062YOPC   C1A14559   3.839   9.836   6.194 -0.1768  0.0939  0.0515
 1062YOPC   D2A14560   4.066  10.048   6.520 -0.0396 -0.0799 -0.1045
 1062YOPC   C3A14561   4.397  10.415   6.627  0.1620  0.0721 -0.1289
 1062YOPC   C4A14562   4.450  10.792   6.452  0.0462 -0.1603  0.0419
 1062YOPC   C1B14563   3.101   9.893   6.259  0.2194 -0.3152  0.1402
 1062YOPC   C2B14564   2.682   9.762   6.456  0.2225  0.2104  0.1649
 1062YOPC   D3B14565   2.448   9.862   6.852  0.1156  0.0726  0.3777
 1062YOPC   C4B14566   2.143  10.010   7.168 -0.2820 -0.0141  0.0737
 1063YOPC   NC314567   1.300   8.373   5.986  0.1139  0.0231 -0.1919
 1063YOPC   PO414568   1.219   7.935   6.234 -0.2600 -0.0758  0.4502
 1063YOPC   GL114569   1.418   7.827   6.540  0.0317  0.0648  0.0351
 1063YOPC   GL214570   1.520   7.492   6.654 -0.1496  0.0232 -0.2187
 1063YOPC   C1A14571   1.495   8.001   6.941 -0.0005  0.5086 -0.2448
 1063YOPC   D2A14572   1.526   8.164   7.319  0.0907 -0.1209 -0.1912
 1063YOPC   C3A14573   1.802   7.958   7.705  0.0231  0.1230  0.2741
 1063YOPC   C4A14574   1.770   7.937   8.085  0.3626  0.0453  0.2204
 1063YOPC   C1B14575   1.577   7.563   7.096 -0.2254  0.1587  0.3902
 1063YOPC   C2B14576   1.376   7.757   7.547  0.0411 -0.1848  0.1616
 1063YOPC   D3B14577   1.304   7.602   7.908 -0.0618  0.0771 -0.0926
 1063YOPC   C4B14578   1.303   7.297   8.023  0.0438  0.2271 -0.0914
 1064YOPC   NC314579  17.345   7.902   5.775 -0.1764 -0.1967  0.0017
 1064YOPC   PO414580  17.485   8.359   5.924  0.0889 -0.2139 -0.0410
 1064YOPC   GL114581  17.327   8.170   6.273 -0.2952 -0.2051 -0.1906
 1064YOPC   GL214582  17.197   8.333   6.555 -0.1783 -0.0944  0.0330
 1064YOPC   C1A14583  17.300   7.830   6.488  0.0920 -0.0744 -0.0640
 1064YOPC   D2A14584  17.010   7.588   6.733 -0.3315  0.0321  0.1179
 1064YOPC   C3A14585  17.046   7.511   7.147 -0.2942  0.1434  0.1162
 1064YOPC   C4A14586  17.033   7.393   7.525  0.3006 -0.1126  0.2818
 1064YOPC   C1B14587  16.881   8.080   6.791 -0.1099 -0.0072 -0.0714
 1064YOPC   C2B14588  16.622   8.159   7.208 -0.0697 -0.0617  0.0184
 1064YOPC   D3B14589  16.318   8.055   7.593  0.1026  0.1125 -0.0172
 1064YOPC   C4B14590  15.945   8.123   7.778  0.2154 -0.1396  0.0487
 1065YOPC   NC314591  14.192  10.569   5.789 -0.1917 -0.0881 -0.3141
 1065YOPC   PO414592  13.747  10.570   5.652  0.1949 -0.1274 -0.2183
 1065YOPC   GL114593  13.808  10.554   6.119  0.0133 -0.0778  0.0673
 1065YOPC   GL214594  13.614  10.274   6.090  0.0630 -0.4550 -0.1725
 1065YOPC   C1A14595  13.831  10.479   6.562  0.0418 -0.0430  0.1336
 1065YOPC   D2A14596  13.820  10.129   6.776 -0.0915 -0.0826  0.2481
 1065YOPC   C3A14597  13.786   9.886   7.215 -0.0764  0.3716 -0.2090
 1065YOPC   C4A14598  13.638   9.757   7.700 -0.2027 -0.0961  0.1532
 1065YOPC   C1B14599  13.406  10.415   6.394  0.0004 -0.2794 -0.1596
 1065YOPC   C2B14600  13.376  10.302   6.749 -0.0251  0.0851 -0.1565
 1065YOPC   D3B14601  13.474  10.403   7.177  0.2468 -0.4000 -0.0290
 1065YOPC   C4B14602  13.370  10.605   7.599  0.2226  0.1414 -0.1715
 1066YOPC   NC314603  16.810   4.086   5.913 -0.1725  0.0582 -0.1754
 1066YOPC   PO414604  17.130   4.226   5.857  0.1032  0.1007  0.2462
 1066YOPC   GL114605  17.245   4.163   6.246 -0.0994  0.1000 -0.2429
 1066YOPC   GL214606  17.581   4.047   6.270  0.2483  0.0601 -0.0881
 1066YOPC   C1A14607  17.119   4.299   6.668 -0.4370 -0.1485 -0.2201
 1066YOPC   D2A14608  17.317   4.324   7.060  0.0314  0.0302 -0.0656
 1066YOPC   C3A14609  17.376   3.963   7.350  0.0635 -0.1727  0.0845
 1066YOPC   C4A14610  17.608   3.664   7.550  0.0028  0.0858 -0.2368
 1066YOPC   C1B14611  17.409   3.775   6.538 -0.0432 -0.1308 -0.0242
 1066YOPC   C2B14612  17.134   3.606   6.785 -0.1699 -0.2224 -0.0854
 1066YOPC   D3B14613  17.031   3.496   7.228 -0.1984  0.1045 -0.0675
 1066YOPC   C4B14614  16.717   3.351   7.367 -0.1364 -0.1799  0.2415
 1067YOPC   NC314615  15.878   9.628   5.311  0.0365 -0.0617  0.0611
 1067YOPC   PO414616  15.960   9.415   5.617  0.2165  0.3443 -0.0384
 1067YOPC   GL114617  15.941   9.533   5.952  0.0325  0.0285 -0.1531
 1067YOPC   GL214618  15.816   9.848   6.022 -0.2464  0.1722  0.2574
 1067YOPC   C1A14619  15.931   9.392   6.334  0.3350 -0.1594  0.0096
 1067YOPC   D2A14620  16.152   9.417   6.634  0.0726  0.0490  0.0388
 1067YOPC   C3A14621  16.120   9.367   7.026 -0.2898  0.0026  0.2781
 1067YOPC   C4A14622  16.038   9.440   7.450  0.0285  0.1754  0.2205
 1067YOPC   C1B14623  15.943   9.982   6.486 -0.1081  0.0530 -0.0484
 1067YOPC   C2B14624  15.826  10.307   6.728 -0.5638  0.1221  0.0533
 1067YOPC   D3B14625  15.931  10.273   7.149  0.0617 -0.3436 -0.0188
 1067YOPC   C4B14626  16.182  10.245   7.500 -0.0693 -0.1233  0.4070
 1068YOPC   NC314627  11.758  14.905   6.004  0.0133 -0.1340  0.0469
 1068YOPC   PO414628  12.097  14.792   6.243 -0.2718 -0.0301  0.2136
 1068YOPC   GL114629  12.196  15.058   6.620  0.1285 -0.0176  0.1961
 1068YOPC   GL214630  12.035  14.846   6.778  0.1333  0.1361  0.4246
 1068YOPC   C1A14631  12.544  15.109   6.789  0.0606  0.0121  0.1725
 1068YOPC   D2A14632  12.722  15.165   7.208 -0.0174 -0.0580  0.1660
 1068YOPC   C3A14633  12.912  15.382   7.457  0.0243  0.0296 -0.1931
 1068YOPC   C4A14634  13.259  15.664   7.460  0.0479 -0.1187  0.1423
 1068YOPC   C1B14635  12.246  14.873   7.152  0.1169  0.2931  0.0638
 1068YOPC   C2B14636  12.510  14.872   7.575 -0.0059 -0.1204 -0.0670
 1068YOPC   D3B14637  12.520  14.486   7.770 -0.0106  0.0322  0.1045
 1068YOPC   C4B14638  12.703  14.220   8.158  0.3907  0.1425 -0.4293
 1069YOPC   NC314639  10.163  11.428   5.584  0.2405 -0.0023  0.0823
 1069YOPC   PO414640  10.371  11.765   5.771 -0.1014 -0.1019 -0.4796
 1069YOPC   GL114641  10.675  11.879   6.095  0.0652 -0.2961 -0.2867
 1069YOPC   GL214642  10.561  12.246   6.260  0.1732 -0.0507  0.1839
 1069YOPC   C1A14643  11.027  11.773   6.374  0.3676 -0.0029 -0.2143
 1069YOPC   D2A14644  11.166  11.985   6.789 -0.0501  0.1991 -0.2257
 1069YOPC   C3A14645  11.168  11.936   7.163  0.3326  0.0998  0.1136
 1069YOPC   C4A14646  11.331  11.836   7.640 -0.2382  0.1322  0.4332
 1069YOPC   C1B14647  10.553  12.427   6.691  0.2373  0.0083  0.1259
 1069YOPC   C2B14648  10.588  12.816   6.913 -0.3470  0.1530  0.1489
 1069YOPC   D3B14649  11.083  12.901   7.173  0.1620  0.2580 -0.2839
 1069YOPC   C4B14650  11.365  13.060   7.009  0.1373 -0.0952 -0.0958
 1070YOPC   NC314651  12.304   3.526   5.923 -0.1787  0.4881  0.1998
 1070YOPC   PO414652  12.429   3.155   5.895  0.0247  0.0953  0.2387
 1070YOPC   GL114653  12.356   3.155   6.347  0.1658  0.1099  0.5331
 1070YOPC   GL214654  12.379   3.457   6.404 -0.0236 -0.0206 -0.0822
 1070YOPC   C1A14655  12.318   3.025   6.734 -0.0126  0.0272 -0.0316
 1070YOPC   D2A14656  12.413   3.069   7.147  0.0856 -0.0255 -0.0584
 1070YOPC   C3A14657  12.135   3.219   7.385  0.0466  0.1031  0.1037
 1070YOPC   C4A14658  11.820   3.328   7.746  0.1688  0.1179  0.3861
 1070YOPC   C1B14659  12.597   3.435   6.819 -0.1555  0.0409 -0.2831
 1070YOPC   C2B14660  12.545   3.556   7.227  0.4353 -0.1442  0.3819
 1070YOPC   D3B14661  12.579   3.408   7.670  0.0798  0.1410 -0.0607
 1070YOPC   C4B14662  12.236   3.380   7.954 -0.0511  0.1386 -0.0630
 1071YOPC   NC314663  11.340   6.242   5.521 -0.1539 -0.1671 -0.0677
 1071YOPC   PO414664  10.878   6.413   5.677  0.0965  0.3291 -0.0171
 1071YOPC   GL114665  10.768   6.011   5.898  0.0149 -0.1809  0.1217
 1071YOPC   GL214666  10.838   6.191   6.231 -0.1738 -0.0170  0.0531
 1071YOPC   C1A14667  10.949   5.703   6.094  0.2555 -0.1277  0.0822
 1071YOPC   D2A14668  11.085   5.661   6.563  0.0267  0.2170  0.2174
 1071YOPC   C3A14669  11.091   5.316   6.754  0.3476  0.0277 -0.1822
 1071YOPC   C4A14670  11.507   5.099   6.706  0.0106 -0.0682  0.0395
 1071YOPC   C1B14671  10.898   6.126   6.625 -0.2788 -0.0671  0.2648
 1071YOPC   C2B14672  10.832   6.339   6.929 -0.1103 -0.0561 -0.3799
 1071YOPC   D3B14673  11.160   6.400   7.241  0.1598  0.2670 -0.2601
 1071YOPC   C4B14674  11.459   6.526   7.597 -0.1606 -0.0454  0.2152
 1072YOPC   NC314675   5.602  12.413   6.058  0.1701  0.0410  0.0872
 1072YOPC   PO414676   5.254  12.018   6.059  0.0858  0.1995  0.0529
 1072YOPC   GL114677   4.956  12.164   6.231  0.2726  0.0144 -0.0970
 1072YOPC   GL214678   5.174  12.214   6.523 -0.0599 -0.0290  0.1411
 1072YOPC   C1A14679   4.552  12.373   6.289 -0.0148  0.1307 -0.0080
 1072YOPC   D2A14680   4.104  12.351   6.324 -0.0222  0.1021  0.1885
 1072YOPC   C3A14681   3.893  12.342   6.772 -0.0994 -0.0918  0.0059
 1072YOPC   C4A14682   3.818  12.627   7.101 -0.2680  0.0712 -0.0616
 1072YOPC   C1B14683   5.264  12.009   6.929 -0.0700 -0.3440 -0.1202
 1072YOPC   C2B14684   5.067  12.108   7.278  0.1457 -0.0628  0.3332
 1072YOPC   D3B14685   5.280  11.819   7.509 -0.0839 -0.0726  0.0220
 1072YOPC   C4B14686   5.625  11.575   7.526  0.0251 -0.0778 -0.1797
 1073YOPC   NC314687   7.258  11.658   5.854  0.2428  0.1549 -0.1228
 1073YOPC   PO414688   6.823  11.737   5.964 -0.0154  0.0764  0.1695
 1073YOPC   GL114689   6.709  11.865   6.417 -0.1964  0.5652  0.1745
 1073YOPC   GL214690   6.494  11.991   6.364 -0.3954 -0.2632  0.0311
 1073YOPC   C1A14691   6.982  11.936   6.710  0.0728 -0.1434  0.2538
 1073YOPC   D2A14692   7.050  12.063   7.164  0.3483  0.0233  0.2439
 1073YOPC   C3A14693   6.836  12.037   7.608 -0.2134 -0.1582  0.2182
 1073YOPC   C4A14694   6.881  12.066   8.044  0.1083  0.0484  0.1489
 1073YOPC   C1B14695   6.462  12.023   6.768  0.1179 -0.0029 -0.0056
 1073YOPC   C2B14696   6.517  11.995   7.054 -0.1508 -0.3859  0.1380
 1073YOPC   D3B14697   6.314  12.050   7.447  0.1831 -0.0621  0.1473
 1073YOPC   C4B14698   6.389  12.179   7.849 -0.0094  0.1036 -0.1227
 1074YOPC   NC314699   2.545  17.375   5.200 -0.1018  0.0250  0.3004
 1074YOPC   PO414700   2.349  17.728   5.481  0.2347  0.1996 -0.1611
 1074YOPC   GL114701   2.249  17.853   5.893  0.4738 -0.2913  0.1161
 1074YOPC   GL214702   2.551  17.962   6.070  0.1719 -0.3448  0.1428
 1074YOPC   C1A14703   2.136  17.751   6.258 -0.2193 -0.0648  0.1208
 1074YOPC   D2A14704   2.152  17.684   6.702  0.1688  0.0775 -0.0671
 1074YOPC   C3A14705   2.124  17.414   7.043 -0.0103 -0.4905 -0.0404
 1074YOPC   C4A14706   1.840  17.307   7.360 -0.1326  0.2668 -0.1315
 1074YOPC   C1B14707   2.986  17.833   6.200  0.3032 -0.0170  0.3310
 1074YOPC   C2B14708   3.523  17.793   6.221  0.0194  0.1129 -0.3930
 1074YOPC   D3B14709   3.622  17.817   6.659 -0.1850 -0.0739 -0.0965
 1074YOPC   C4B14710   3.819  18.065   7.022  0.0684 -0.0753 -0.1341
 1075YOPC   NC314711   8.905  11.741   5.773  0.0442 -0.0894 -0.0749
 1075YOPC   PO414712   9.259  11.473   5.839  0.1193  0.1113 -0.0884
 1075YOPC   GL114713   9.451  11.584   6.331  0.1570 -0.1289  0.1245
 1075YOPC   GL214714   9.712  11.247   6.381 -0.1313  0.3611  0.0768
 1075YOPC   C1A14715   9.485  11.477   6.814  0.1005 -0.1271 -0.1457
 1075YOPC   D2A14716   9.488  11.317   7.230 -0.1403  0.3356  0.1822
 1075YOPC   C3A14717   9.448  11.426   7.562 -0.2016  0.2701  0.2162
 1075YOPC   C4A14718   9.566  11.146   7.963  0.0912  0.3428  0.1846
 1075YOPC   C1B14719  10.051  11.387   6.636 -0.0935 -0.3106 -0.1929
 1075YOPC   C2B14720  10.295  11.475   6.914  0.1082 -0.0613  0.0785
 1075YOPC   D3B14721  10.299  11.804   7.245  0.0954 -0.0349 -0.2367
 1075YOPC   C4B14722  10.351  12.303   7.340 -0.3014 -0.0792  0.3233
 1076YOPC   NC314723  11.781  13.934   5.913 -0.1134  0.2794  0.1721
 1076YOPC   PO414724  11.804  13.483   5.901 -0.2404  0.1743 -0.0188
 1076YOPC   GL114725  11.536  13.491   6.259  0.3460 -0.0306 -0.0744
 1076YOPC   GL214726  11.330  13.771   6.249  0.3345  0.0957  0.1160
 1076YOPC   C1A14727  11.445  13.428   6.717 -0.0501  0.0592 -0.1192
 1076YOPC   D2A14728  11.292  13.584   7.097  0.1073 -0.0469  0.1005
 1076YOPC   C3A14729  11.153  13.368   7.424 -0.3299 -0.2402 -0.2668
 1076YOPC   C4A14730  10.811  13.145   7.585 -0.3087  0.2011 -0.1697
 1076YOPC   C1B14731  11.437  14.029   6.658  0.0859  0.3214 -0.0422
 1076YOPC   C2B14732  11.534  14.108   7.035  0.2262  0.2282  0.0043
 1076YOPC   D3B14733  11.304  13.992   7.350 -0.3111 -0.2923  0.1901
 1076YOPC   C4B14734  11.219  14.198   7.707 -0.0206  0.1394 -0.1764
 1077YOPC   NC314735   3.506   1.643   5.645 -0.0454 -0.2117  0.2115
 1077YOPC   PO414736   3.928   1.691   5.696  0.1502 -0.4835  0.0493
 1077YOPC   GL114737   4.233   1.678   6.082  0.3410 -0.2118 -0.0243
 1077YOPC   GL214738   4.521   1.543   5.849  0.2388 -0.2980 -0.2510
 1077YOPC   C1A14739   4.364   1.645   6.467  0.1360 -0.1527 -0.1458
 1077YOPC   D2A14740   4.430   1.625   6.884 -0.1226 -0.2480 -0.2940
 1077YOPC   C3A14741   4.165   1.251   7.116 -0.2561  0.0311 -0.0908
 1077YOPC   C4A14742   4.159   0.810   7.291 -0.0306 -0.2509 -0.2668
 1077YOPC   C1B14743   4.631   1.941   6.024  0.0253  0.1250 -0.0139
 1077YOPC   C2B14744   4.374   2.131   6.203 -0.1730  0.2623 -0.1054
 1077YOPC   D3B14745   4.374   2.127   6.642  0.0598 -0.0017 -0.1320
 1077YOPC   C4B14746   4.129   2.164   6.991  0.1158 -0.2188  0.0812
 1078YOPC   NC314747   4.158   9.148   5.500  0.0185 -0.3708  0.2561
 1078YOPC   PO414748   4.349   9.532   5.564 -0.1019 -0.3577 -0.1986
 1078YOPC   GL114749   4.336   9.397   5.947 -0.1358 -0.2853  0.0232
 1078YOPC   GL214750   4.247   9.523   6.146  0.3645 -0.1835 -0.0885
 1078YOPC   C1A14751   4.562   9.060   6.134  0.3918  0.1341  0.0493
 1078YOPC   D2A14752   4.656   8.700   6.373 -0.2870  0.2748  0.0428
 1078YOPC   C3A14753   4.715   8.737   6.793 -0.1926  0.1732  0.0581
 1078YOPC   C4A14754   4.624   8.625   7.166 -0.1036  0.0589 -0.2087
 1078YOPC   C1B14755   4.124   9.565   6.632  0.0406 -0.0385  0.4861
 1078YOPC   C2B14756   4.084   9.391   7.040  0.2791  0.0178  0.0137
 1078YOPC   D3B14757   3.893   9.576   7.376 -0.0605 -0.2092 -0.0112
 1078YOPC   C4B14758   4.005   9.623   7.731 -0.0472  0.0110  0.3264
 1079YOPC   NC314759   6.165   7.717   5.468 -0.1279 -0.1165  0.1732
 1079YOPC   PO414760   6.599   7.961   5.457  0.2169 -0.1169  0.0346
 1079YOPC   GL114761   6.570   7.674   5.763 -0.1451  0.2371 -0.3781
 1079YOPC   GL214762   6.911   7.518   5.872  0.5486 -0.1089  0.0813
 1079YOPC   C1A14763   6.544   7.764   6.131  0.0238 -0.0168 -0.0380
 1079YOPC   D2A14764   6.415   7.565   6.490 -0.2330 -0.0327  0.3662
 1079YOPC   C3A14765   6.177   7.790   6.791  0.0647 -0.0799  0.1416
 1079YOPC   C4A14766   6.253   8.051   7.164 -0.1000  0.1458  0.0230
 1079YOPC   C1B14767   6.902   7.413   6.373  0.4428  0.0667 -0.0771
 1079YOPC   C2B14768   6.792   7.345   6.756  0.2888 -0.1700  0.2073
 1079YOPC   D3B14769   6.745   7.029   7.072  0.0312  0.0525  0.0046
 1079YOPC   C4B14770   6.931   6.656   7.355 -0.0421 -0.1120 -0.0412
 1080YOPC   NC314771   0.584  16.760   5.518 -0.1776 -0.2175 -0.0544
 1080YOPC   PO414772   0.118  16.708   5.512 -0.0705 -0.2236 -0.1155
 1080YOPC   GL114773   0.269  16.804   5.934  0.3543  0.0241 -0.3276
 1080YOPC   GL214774   0.552  16.608   6.043 -0.2774 -0.0634 -0.4507
 1080YOPC   C1A14775   0.023  16.973   6.225 -0.0542  0.1578 -0.2563
 1080YOPC   D2A14776  -0.264  17.195   6.544 -0.2380 -0.2958 -0.1962
 1080YOPC   C3A14777  -0.039  17.202   6.875 -0.0288  0.0088 -0.0128
 1080YOPC   C4A14778   0.030  17.426   7.314  0.0693  0.3629  0.1860
 1080YOPC   C1B14779   0.865  16.612   6.360  0.1293 -0.2389 -0.1410
 1080YOPC   C2B14780   1.272  16.756   6.338  0.1217 -0.1446  0.1870
 1080YOPC   D3B14781   1.266  16.934   6.723 -0.1342 -0.1868  0.0354
 1080YOPC   C4B14782   1.386  17.136   7.082  0.0014  0.1378 -0.1502
 1081YOPC   NC314783   5.607   4.477   5.558 -0.2403 -0.1666 -0.2055
 1081YOPC   PO414784   5.961   4.712   5.594  0.1501 -0.0138 -0.1511
 1081YOPC   GL114785   6.138   4.846   5.915  0.2138  0.0367  0.2641
 1081YOPC   GL214786   6.371   5.128   5.925  0.0341  0.0241 -0.2538
 1081YOPC   C1A14787   6.217   4.796   6.372  0.0858  0.1697 -0.0330
 1081YOPC   D2A14788   6.191   5.054   6.679 -0.2664 -0.1114 -0.3646
 1081YOPC   C3A14789   6.393   5.146   6.990 -0.3797  0.0329  0.0932
 1081YOPC   C4A14790   6.697   5.403   7.125 -0.2475 -0.0708 -0.2102
 1081YOPC   C1B14791   6.762   5.382   5.997 -0.2515 -0.0728 -0.2708
 1081YOPC   C2B14792   6.773   5.832   6.086 -0.0483  0.0999 -0.0792
 1081YOPC   D3B14793   6.419   5.958   6.296 -0.1835 -0.1907  0.0778
 1081YOPC   C4B14794   6.064   6.148   6.326  0.0704 -0.1591  0.1241
 1082YOPC   NC314795  11.596  13.072   5.819  0.1046 -0.1764 -0.0993
 1082YOPC   PO414796  11.806  12.658   5.812  0.0876 -0.2869  0.2721
 1082YOPC   GL114797  11.967  12.936   6.172  0.0153 -0.1656 -0.2180
 1082YOPC   GL214798  12.323  13.050   6.222 -0.1334  0.1043 -0.0244
 1082YOPC   C1A14799  11.998  13.254   6.560 -0.1479 -0.2160 -0.2644
 1082YOPC   D2A14800  11.937  13.246   6.987  0.2006  0.2078 -0.1660
 1082YOPC   C3A14801  11.952  12.852   7.278  0.0833  0.0797 -0.2638
 1082YOPC   C4A14802  12.035  12.403   7.323  0.1685  0.0521  0.0713
 1082YOPC   C1B14803  12.391  12.980   6.600 -0.3230 -0.2460  0.1079
 1082YOPC   C2B14804  12.419  13.060   7.016 -0.0554 -0.1169  0.0021
 1082YOPC   D3B14805  12.410  12.722   7.422 -0.0723  0.3753 -0.0140
 1082YOPC   C4B14806  12.201  12.614   7.761 -0.1772 -0.0829 -0.0569
 1083YOPC   NC314807   2.975  11.951   5.862 -0.0755 -0.0509  0.0374
 1083YOPC   PO414808   2.549  11.987   6.050 -0.0016 -0.1172 -0.0734
 1083YOPC   GL114809   2.862  11.900   6.392 -0.0774 -0.1373  0.0598
 1083YOPC   GL214810   3.171  12.000   6.320 -0.1589  0.3696  0.2832
 1083YOPC   C1A14811   3.026  12.055   6.775 -0.3366 -0.1785  0.2262
 1083YOPC   D2A14812   3.132  11.983   7.235  0.1499 -0.0953  0.2355
 1083YOPC   C3A14813   3.606  12.093   7.415 -0.0608  0.2598 -0.0647
 1083YOPC   C4A14814   3.883  12.175   7.704 -0.1195  0.1414 -0.3355
 1083YOPC   C1B14815   3.233  12.381   6.498 -0.1485 -0.2865 -0.2910
 1083YOPC   C2B14816   2.873  12.633   6.751 -0.1939  0.2901  0.0789
 1083YOPC   D3B14817   2.590  12.697   7.139 -0.0645  0.0039 -0.1138
 1083YOPC   C4B14818   2.342  12.605   7.532 -0.0188 -0.2278  0.2939
 1084YOPC   NC314819  13.004   6.468   5.428  0.3681 -0.0165 -0.1761
 1084YOPC   PO414820  13.405   6.353   5.626  0.0055 -0.2148 -0.1481
 1084YOPC   GL114821  13.502   6.129   5.892 -0.0216  0.0456  0.0021
 1084YOPC   GL214822  13.200   6.217   6.157  0.1499  0.0984  0.5504
 1084YOPC   C1A14823  13.701   6.176   6.296 -0.0883  0.3583 -0.2049
 1084YOPC   D2A14824  13.844   5.798   6.561  0.0792  0.0905 -0.2071
 1084YOPC   C3A14825  13.722   5.612   6.989 -0.0078  0.0825 -0.1415
 1084YOPC   C4A14826  13.556   5.711   7.478  0.0773  0.0721  0.1988
 1084YOPC   C1B14827  12.995   6.283   6.585  0.1288 -0.2205 -0.0385
 1084YOPC   C2B14828  12.850   6.438   6.949 -0.0256 -0.1867  0.3100
 1084YOPC   D3B14829  12.732   6.187   7.253 -0.0547 -0.1746  0.1797
 1084YOPC   C4B14830  12.523   5.865   7.559  0.1838 -0.0824 -0.0108
 1085YOPC   NC314831   4.574   5.892   5.498 -0.2517  0.1496  0.0743
 1085YOPC   PO414832   4.670   5.529   5.669 -0.0465 -0.0012 -0.0840
 1085YOPC   GL114833   4.787   5.297   5.911 -0.0318  0.0748  0.0269
 1085YOPC   GL214834   4.731   5.006   5.815  0.0051 -0.0175  0.0657
 1085YOPC   C1A14835   5.017   5.268   6.253  0.0446  0.1578 -0.1422
 1085YOPC   D2A14836   5.119   5.083   6.558  0.2002 -0.2743 -0.0078
 1085YOPC   C3A14837   4.877   4.953   6.879  0.1330  0.3205 -0.0333
 1085YOPC   C4A14838   4.834   4.817   7.346  0.0805  0.1152 -0.2104
 1085YOPC   C1B14839   4.788   4.761   6.174  0.0383 -0.0311  0.0881
 1085YOPC   C2B14840   4.579   4.707   6.538 -0.0707  0.0795 -0.2881
 1085YOPC   D3B14841   4.421   4.834   6.963  0.1415 -0.0187  0.2355
 1085YOPC   C4B14842   4.111   4.995   7.106  0.1580 -0.0752  0.1407
 1086YOPC   NC314843   2.035  15.918   5.412 -0.1762 -0.1856  0.1306
 1086YOPC   PO414844   1.608  15.976   5.586 -0.1306 -0.1448  0.0194
 1086YOPC   GL114845   1.438  16.184   6.003 -0.0389  0.4018  0.1130
 1086YOPC   GL214846   1.131  16.210   6.109 -0.0184 -0.3014 -0.2522
 1086YOPC   C1A14847   1.588  16.374   6.395 -0.1557 -0.4745  0.3469
 1086YOPC   D2A14848   1.494  16.443   6.782  0.2064 -0.0374  0.0148
 1086YOPC   C3A14849   1.564  16.658   7.047  0.0605  0.2469  0.0174
 1086YOPC   C4A14850   1.682  16.835   7.447 -0.1089 -0.2676 -0.0346
 1086YOPC   C1B14851   1.006  16.130   6.496 -0.0884 -0.0803  0.1276
 1086YOPC   C2B14852   0.973  15.934   6.844  0.0517 -0.0701 -0.0758
 1086YOPC   D3B14853   0.728  16.176   7.247 -0.1339 -0.4380 -0.4033
 1086YOPC   C4B14854   0.607  16.558   7.307 -0.2024  0.0859  0.2454
 1087YOPC   NC314855   0.395  16.315   5.599 -0.4477 -0.1249  0.0024
 1087YOPC   PO414856   0.562  15.873   5.504  0.0826 -0.0327  0.1087
 1087YOPC   GL114857   0.687  15.980   5.926 -0.0422 -0.2238  0.0927
 1087YOPC   GL214858   0.884  15.801   6.138 -0.0244 -0.0988 -0.0038
 1087YOPC   C1A14859   0.578  16.174   6.294 -0.0118  0.1080  0.2535
 1087YOPC   D2A14860   0.564  16.226   6.744 -0.1742  0.0112  0.0470
 1087YOPC   C3A14861   0.975  16.518   6.829 -0.1469 -0.0900 -0.0374
 1087YOPC   C4A14862   1.139  16.691   7.251  0.0046 -0.1630  0.1514
 1087YOPC   C1B14863   1.070  15.596   6.458  0.0232  0.3830  0.0778
 1087YOPC   C2B14864   1.028  15.384   6.866 -0.0274 -0.1116  0.1308
 1087YOPC   D3B14865   1.095  15.371   7.278 -0.3099  0.0219 -0.1716
 1087YOPC   C4B14866   1.155  15.721   7.586  0.0889  0.2314  0.0527
 1088YOPC   NC314867  12.334  11.456   5.650 -0.3250  0.2338 -0.0424
 1088YOPC   PO414868  11.912  11.602   5.702 -0.0816 -0.0375  0.0318
 1088YOPC   GL114869  12.038  11.715   6.041 -0.1742  0.1802 -0.0201
 1088YOPC   GL214870  12.091  12.109   6.284  0.1426  0.0826 -0.1964
 1088YOPC   C1A14871  12.031  11.455   6.421  0.1681  0.1186 -0.1100
 1088YOPC   D2A14872  12.138  11.117   6.708  0.3969  0.2653 -0.2922
 1088YOPC   C3A14873  11.873  10.808   7.034  0.3250 -0.0105 -0.0024
 1088YOPC   C4A14874  11.946  10.492   7.276  0.3794 -0.2001 -0.2319
 1088YOPC   C1B14875  12.074  12.005   6.599 -0.3721 -0.0092 -0.2110
 1088YOPC   C2B14876  12.103  11.655   6.909 -0.0303  0.2237 -0.0773
 1088YOPC   D3B14877  11.917  11.660   7.325 -0.1664  0.2468 -0.2931
 1088YOPC   C4B14878  11.784  11.736   7.780  0.4280  0.1210 -0.0751
 1089YOPC   NC314879   4.791  16.481   5.619  0.0677  0.1178 -0.0193
 1089YOPC   PO414880   4.491  16.267   5.740  0.0292 -0.1233  0.1341
 1089YOPC   GL114881   4.623  16.401   6.135  0.0514 -0.0579 -0.0097
 1089YOPC   GL214882   4.882  16.260   6.080  0.1460 -0.2411  0.1633
 1089YOPC   C1A14883   4.540  16.075   6.482  0.1706  0.0238  0.2698
 1089YOPC   D2A14884   4.765  16.013   6.863  0.1761  0.3714 -0.2542
 1089YOPC   C3A14885   5.098  16.003   7.141 -0.2306 -0.2313  0.0431
 1089YOPC   C4A14886   5.335  15.971   7.527  0.1255 -0.3629 -0.5834
 1089YOPC   C1B14887   4.894  15.798   6.263  0.0881  0.1583 -0.0178
 1089YOPC   C2B14888   4.706  15.453   6.427 -0.1773  0.0495 -0.3067
 1089YOPC   D3B14889   4.579  15.492   6.834  0.1769  0.2286 -0.1138
 1089YOPC   C4B14890   4.765  15.631   7.225 -0.2253  0.1328  0.0613
 1090YOPC   NC314891  10.916   8.050   5.604  0.1544  0.3283 -0.1620
 1090YOPC   PO414892  10.869   7.597   5.639  0.1688 -0.0442  0.1002
 1090YOPC   GL114893  10.981   7.718   6.118  0.2507  0.2295 -0.1251
 1090YOPC   GL214894  10.831   7.492   6.206 -0.1604  0.1127  0.1731
 1090YOPC   C1A14895  11.121   7.914   6.453 -0.1545 -0.1900 -0.0546
 1090YOPC   D2A14896  11.455   7.952   6.813  0.3469 -0.0333 -0.6391
 1090YOPC   C3A14897  11.370   7.867   7.337 -0.0304 -0.3060  0.1846
 1090YOPC   C4A14898  11.471   7.786   7.823  0.1186  0.1606  0.1409
 1090YOPC   C1B14899  10.401   7.534   6.207 -0.2334 -0.0130 -0.0887
 1090YOPC   C2B14900  10.034   7.383   6.151 -0.0822  0.0703  0.1209
 1090YOPC   D3B14901  10.020   7.036   6.365  0.1070 -0.1641 -0.4312
 1090YOPC   C4B14902   9.923   6.583   6.342  0.2039  0.2014  0.1137
 1091YOPC   NC314903   5.712  17.871   5.727  0.3655  0.0027  0.0020
 1091YOPC   PO414904   6.047  18.185   5.735 -0.1291 -0.0052 -0.0853
 1091YOPC   GL114905   5.857  18.225   6.148  0.0911  0.4856 -0.1471
 1091YOPC   GL214906   5.922  18.124   6.447 -0.3266 -0.0656 -0.2340
 1091YOPC   C1A14907   5.573  18.558   6.327  0.0095  0.1434  0.3388
 1091YOPC   D2A14908   5.364  18.960   6.340 -0.0899 -0.3176  0.1617
 1091YOPC   C3A14909   5.395  19.120   6.663  0.1333 -0.1247  0.1634
 1091YOPC   C4A14910   5.489  19.408   6.888 -0.0146 -0.1737 -0.0295
 1091YOPC   C1B14911   5.763  18.079   6.876 -0.1429 -0.0426 -0.2272
 1091YOPC   C2B14912   5.657  17.930   7.293 -0.1317  0.0160  0.0976
 1091YOPC   D3B14913   5.308  17.665   7.345  0.0681  0.2011 -0.2802
 1091YOPC   C4B14914   5.028  17.649   7.746  0.1526 -0.5398 -0.2551
 1092YOPC   NC314915   1.343   5.429   5.732  0.3981  0.1494 -0.0335
 1092YOPC   PO414916   1.635   5.646   5.800 -0.0386  0.2447  0.0906
 1092YOPC   GL114917   1.542   5.577   6.166  0.0956 -0.0210 -0.2747
 1092YOPC   GL214918   1.386   5.695   6.532 -0.2125  0.1148  0.4385
 1092YOPC   C1A14919   1.712   5.346   6.461  0.2478  0.1274 -0.2195
 1092YOPC   D2A14920   2.012   5.087   6.633  0.1795  0.0838 -0.3392
 1092YOPC   C3A14921   1.971   4.853   6.906 -0.1510  0.0782 -0.2813
 1092YOPC   C4A14922   2.194   4.906   7.285 -0.2370 -0.1098  0.3850
 1092YOPC   C1B14923   1.260   5.438   6.946  0.2024  0.1462 -0.0111
 1092YOPC   C2B14924   1.265   5.057   7.195  0.1496 -0.1287 -0.2700
 1092YOPC   D3B14925   1.171   4.896   7.644  0.1027 -0.1438  0.1543
 1092YOPC   C4B14926   0.912   4.670   7.891 -0.0548  0.0612  0.1172
 1093YOPC   NC314927   4.294  17.227   5.681  0.3224 -0.2034 -0.1223
 1093YOPC   PO414928   3.810  16.971   5.754  0.1317 -0.0589 -0.1240
 1093YOPC   GL114929   3.956  17.017   6.123  0.2656 -0.2089 -0.1198
 1093YOPC   GL214930   4.007  17.311   6.114 -0.1836  0.0258  0.0967
 1093YOPC   C1A14931   3.944  16.855   6.606  0.0008 -0.0689  0.0188
 1093YOPC   D2A14932   3.897  16.960   7.049  0.2275 -0.0655 -0.1714
 1093YOPC   C3A14933   4.218  17.114   7.477 -0.3477  0.2248 -0.2386
 1093YOPC   C4A14934   4.038  17.057   7.878  0.0386  0.1379 -0.2029
 1093YOPC   C1B14935   3.835  17.383   6.490 -0.1211 -0.1021 -0.1738
 1093YOPC   C2B14936   3.861  17.495   6.963 -0.2753  0.0368 -0.1109
 1093YOPC   D3B14937   4.164  17.489   7.219 -0.0349  0.1237  0.1757
 1093YOPC   C4B14938   4.534  17.516   7.448 -0.2279  0.0216  0.1261
 1094YOPC   NC314939  13.523  10.108   5.655  0.0776 -0.2717 -0.2296
 1094YOPC   PO414940  14.052  10.140   5.778 -0.0169 -0.0316 -0.0780
 1094YOPC   GL114941  14.095  10.178   6.142  0.0380 -0.0132  0.1259
 1094YOPC   GL214942  14.422  10.315   6.166 -0.0008  0.1119  0.0195
 1094YOPC   C1A14943  14.221   9.972   6.456 -0.0414 -0.2343  0.0417
 1094YOPC   D2A14944  14.255   9.870   6.778 -0.0934  0.2223  0.2109
 1094YOPC   C3A14945  14.278   9.928   7.157  0.2552  0.2016  0.0039
 1094YOPC   C4A14946  14.148  10.015   7.591 -0.1303  0.2774 -0.3186
 1094YOPC   C1B14947  14.319  10.425   6.535 -0.0149 -0.1920 -0.1547
 1094YOPC   C2B14948  14.270  10.400   6.916  0.0741 -0.0510  0.0730
 1094YOPC   D3B14949  14.025  10.374   7.303 -0.0889  0.3051  0.1166
 1094YOPC   C4B14950  13.776  10.297   7.561  0.0406 -0.0178 -0.2573
 1095YOPC   NC314951   8.370  16.474   5.847  0.0095  0.2015 -0.0476
 1095YOPC   PO414952   8.716  16.176   5.818  0.0531 -0.2671 -0.1054
 1095YOPC   GL114953   8.756  16.263   6.208 -0.2377  0.1993  0.0291
 1095YOPC   GL214954   8.950  16.141   6.348  0.1912  0.1369  0.3878
 1095YOPC   C1A14955   8.681  16.471   6.589 -0.1997  0.2220 -0.0921
 1095YOPC   D2A14956   8.479  16.386   6.843  0.1613 -0.0183 -0.0610
 1095YOPC   C3A14957   8.791  16.353   7.151  0.0005  0.2478 -0.0954
 1095YOPC   C4A14958   8.848  16.493   7.454 -0.0995 -0.2402 -0.1332
 1095YOPC   C1B14959   9.077  15.781   6.529  0.0221  0.0544 -0.0149
 1095YOPC   C2B14960   9.137  15.433   6.743  0.3969  0.2275  0.0438
 1095YOPC   D3B14961   9.121  15.399   7.191 -0.1404  0.0465  0.1278
 1095YOPC   C4B14962   9.394  15.327   7.494 -0.0776  0.2494  0.1389
 1096YOPC   NC314963   9.666  14.235   5.530 -0.1465  0.0903  0.1047
 1096YOPC   PO414964   9.777  14.630   5.679 -0.0476 -0.0131  0.4543
 1096YOPC   GL114965   9.491  14.514   5.949 -0.0185 -0.2358  0.3556
 1096YOPC   GL214966   9.406  14.113   5.907 -0.1973 -0.0994 -0.3486
 1096YOPC   C1A14967   9.373  14.544   6.401 -0.0479 -0.0309 -0.1649
 1096YOPC   D2A14968   9.283  14.592   6.897 -0.1586 -0.0252 -0.2384
 1096YOPC   C3A14969   9.291  14.428   7.296 -0.1777  0.1232 -0.0454
 1096YOPC   C4A14970   9.194  14.191   7.753 -0.0116  0.1088 -0.2723
 1096YOPC   C1B14971   9.158  14.073   6.203 -0.2099  0.0219  0.3031
 1096YOPC   C2B14972   9.095  14.150   6.569  0.0815  0.0547  0.2457
 1096YOPC   D3B14973   9.118  14.048   6.932  0.2366  0.1379  0.2807
 1096YOPC   C4B14974   8.980  13.988   7.340  0.0464  0.3385  0.3978
 1097YOPC   NC314975   1.181  15.150   5.414  0.1387  0.0139 -0.1791
 1097YOPC   PO414976   0.695  15.057   5.635  0.0920 -0.1147  0.2714
 1097YOPC   GL114977   0.642  14.874   6.029  0.1202 -0.0761 -0.0425
 1097YOPC   GL214978   0.420  15.074   6.149  0.0623 -0.1519  0.0112
 1097YOPC   C1A14979   0.602  14.690   6.449 -0.1453 -0.2653  0.0515
 1097YOPC   D2A14980   0.651  14.479   6.862  0.0350 -0.0490 -0.2842
 1097YOPC   C3A14981   0.433  14.502   7.289 -0.0183 -0.0383  0.2804
 1097YOPC   C4A14982   0.180  14.508   7.713  0.1585  0.0257 -0.0493
 1097YOPC   C1B14983   0.177  15.148   6.490 -0.3167  0.0999  0.1321
 1097YOPC   C2B14984   0.178  15.275   6.795 -0.2286 -0.1701 -0.1211
 1097YOPC   D3B14985  -0.044  15.652   7.150 -0.2150 -0.2100 -0.2016
 1097YOPC   C4B14986   0.002  15.642   7.553 -0.0678 -0.1694 -0.0975
 1098YOPC   NC314987  11.607   7.178   5.146  0.0979 -0.1293 -0.0891
 1098YOPC   PO414988  11.758   7.460   5.489 -0.0883  0.3345 -0.0960
 1098YOPC   GL114989  11.886   7.379   5.870 -0.0397  0.0491  0.0418
 1098YOPC   GL214990  12.139   7.199   6.038 -0.1204  0.3088 -0.2444
 1098YOPC   C1A14991  11.765   7.303   6.309 -0.0527 -0.1287  0.0250
 1098YOPC   D2A14992  12.049   7.067   6.571  0.1833  0.1348  0.0394
 1098YOPC   C3A14993  12.473   6.897   6.645 -0.0347  0.1014  0.0999
 1098YOPC   C4A14994  12.833   6.942   6.412  0.0785 -0.0729 -0.0906
 1098YOPC   C1B14995  12.469   7.271   6.336 -0.0293 -0.3233 -0.3096
 1098YOPC   C2B14996  12.437   7.406   6.812 -0.1462 -0.2225  0.1461
 1098YOPC   D3B14997  12.377   7.072   7.066 -0.0571 -0.3233  0.0819
 1098YOPC   C4B14998  12.368   6.927   7.475 -0.0932 -0.0020  0.2238
 1099YOPC   NC314999  10.595   6.820   5.559  0.0450  0.1210 -0.2148
 1099YOPC   PO415000  10.907   7.082   5.829 -0.3217  0.1763  0.1191
 1099YOPC   GL115001  10.596   6.932   6.128  0.0920 -0.0482  0.4184
 1099YOPC   GL215002  10.504   6.681   6.034  0.1252 -0.2541 -0.0147
 1099YOPC   C1A15003  10.457   7.139   6.512 -0.0966  0.1979 -0.0136
 1099YOPC   D2A15004  10.406   7.298   7.054 -0.2473  0.0368 -0.0615
 1099YOPC   C3A15005  10.532   7.731   7.213  0.4367  0.4188  0.1531
 1099YOPC   C4A15006  10.901   8.032   7.392  0.1494  0.0427  0.1433
 1099YOPC   C1B15007  10.498   6.604   6.526 -0.1374  0.3353 -0.3977
 1099YOPC   C2B15008  10.241   6.770   6.802  0.2411  0.0102 -0.1790
 1099YOPC   D3B15009  10.049   6.454   6.876  0.1114 -0.2371  0.2584
 1099YOPC   C4B15010   9.683   6.386   7.100  0.0743  0.1234 -0.1113
 1100YOPC   NC315011  12.710   7.997   5.697  0.0422 -0.2137 -0.0471
 1100YOPC   PO415012  13.146   7.935   5.786 -0.1427  0.1481  0.0081
 1100YOPC   GL115013  13.025   7.956   6.200  0.0137 -0.1635  0.0991
 1100YOPC   GL215014  12.769   7.959   6.200 -0.0301 -0.0036 -0.0458
 1100YOPC   C1A15015  13.029   7.970   6.767  0.1137 -0.0073  0.1977
 1100YOPC   D2A15016  13.075   8.037   7.188  0.0849 -0.1310  0.1501
 1100YOPC   C3A15017  12.806   7.792   7.545 -0.0297 -0.3090 -0.1156
 1100YOPC   C4A15018  12.897   7.630   7.944 -0.0978  0.1886  0.0650
 1100YOPC   C1B15019  12.547   7.845   6.553 -0.2681  0.2791 -0.0387
 1100YOPC   C2B15020  12.603   7.938   6.911  0.0390 -0.0473  0.2448
 1100YOPC   D3B15021  12.452   7.708   7.222  0.2578 -0.4252  0.2961
 1100YOPC   C4B15022  12.162   7.419   7.442  0.0192 -0.0029 -0.0262
 1101YOPC   NC315023   0.888   2.567   5.188  0.0412 -0.3274  0.1914
 1101YOPC   PO415024   0.419   2.678   5.141 -0.0025 -0.0469 -0.1297
 1101YOPC   GL115025   0.353   2.691   5.634  0.1229 -0.0384  0.0638
 1101YOPC   GL215026   0.701   2.708   5.708  0.1137  0.2546  0.1610
 1101YOPC   C1A15027   0.476   2.410   6.016 -0.0059  0.0194 -0.0977
 1101YOPC   D2A15028   0.601   2.102   6.287 -0.3219 -0.3744 -0.0671
 1101YOPC   C3A15029   0.555   2.157   6.753 -0.1347 -0.0421 -0.2449
 1101YOPC   C4A15030   0.963   2.164   7.008 -0.1313  0.1720  0.0193
 1101YOPC   C1B15031   0.427   2.901   6.112 -0.1698  0.0025  0.2540
 1101YOPC   C2B15032   0.006   2.948   6.292 -0.0250 -0.0682 -0.4102
 1101YOPC   D3B15033  -0.100   2.885   6.769  0.2439  0.2366 -0.1714
 1101YOPC   C4B15034  -0.203   2.615   7.064  0.0128 -0.2301 -0.4048
 1102YOPC   NC315035  16.591  17.909   5.025 -0.2645  0.0298 -0.0369
 1102YOPC   PO415036  16.408  17.713   5.350  0.0984  0.1184 -0.2549
 1102YOPC   GL115037  16.180  17.535   5.724  0.1335  0.0979  0.0686
 1102YOPC   GL215038  15.873  17.745   5.831 -0.0822  0.0693  0.1829
 1102YOPC   C1A15039  16.369  17.212   6.065  0.0187 -0.1026  0.0152
 1102YOPC   D2A15040  16.748  16.943   6.228 -0.2183  0.1678  0.1719
 1102YOPC   C3A15041  16.788  16.818   6.701  0.2062  0.2583 -0.2792
 1102YOPC   C4A15042  16.766  16.804   7.151 -0.0172 -0.0689 -0.0040
 1102YOPC   C1B15043  15.952  17.571   6.202 -0.0191  0.0302  0.0730
 1102YOPC   C2B15044  16.223  17.397   6.538 -0.0576  0.2095 -0.0881
 1102YOPC   D3B15045  16.061  17.552   6.932 -0.2411 -0.0091  0.0103
 1102YOPC   C4B15046  16.386  17.616   7.348 -0.0634  0.0133  0.2050
 1103YOPC   NC315047   4.204   4.552   5.497  0.2013  0.5677 -0.2454
 1103YOPC   PO415048   3.961   4.832   5.396  0.2283  0.1001 -0.0831
 1103YOPC   GL115049   3.853   4.945   5.844 -0.2267  0.0899  0.0667
 1103YOPC   GL215050   3.633   5.213   5.975 -0.0586  0.1179  0.1186
 1103YOPC   C1A15051   3.662   4.733   6.213 -0.0513 -0.1272 -0.2279
 1103YOPC   D2A15052   3.448   4.562   6.614 -0.0299 -0.1129 -0.0633
 1103YOPC   C3A15053   3.702   4.696   7.005  0.1811 -0.0836 -0.1745
 1103YOPC   C4A15054   3.630   4.975   7.276  0.2085 -0.0089  0.1380
 1103YOPC   C1B15055   3.330   5.089   6.370 -0.0870 -0.0445  0.0843
 1103YOPC   C2B15056   3.191   4.968   6.787  0.0966  0.2257  0.2220
 1103YOPC   D3B15057   3.176   4.709   7.172 -0.1188 -0.0677  0.0923
 1103YOPC   C4B15058   3.075   4.535   7.557  0.2240  0.0592  0.1696
 1104YOPC   NC315059  10.625  16.626   5.778  0.0325 -0.1444 -0.1576
 1104YOPC   PO415060  10.789  16.513   6.176  0.0691  0.1486 -0.1100
 1104YOPC   GL115061  10.998  16.660   6.404  0.1213 -0.0413  0.0066
 1104YOPC   GL215062  11.287  16.523   6.447  0.0152 -0.2228 -0.0454
 1104YOPC   C1A15063  10.934  16.807   6.800  0.0672 -0.1351  0.0434
 1104YOPC   D2A15064  10.964  16.977   7.161 -0.0764 -0.0877 -0.1206
 1104YOPC   C3A15065  10.755  16.711   7.423 -0.0285  0.0638 -0.2932
 1104YOPC   C4A15066  10.474  16.687   7.758 -0.1207 -0.0391  0.0954
 1104YOPC   C1B15067  11.375  16.612   6.901 -0.4119 -0.0119  0.0669
 1104YOPC   C2B15068  11.291  16.641   7.269  0.1756 -0.0959 -0.0769
 1104YOPC   D3B15069  11.208  16.382   7.575 -0.2755  0.1043 -0.0290
 1104YOPC   C4B15070  11.336  16.462   8.003  0.1361 -0.1736  0.1479
 1105YOPC   NC315071  18.382  13.665   5.495  0.0550  0.3525  0.1488
 1105YOPC   PO415072  18.392  14.092   5.451  0.2491  0.1410 -0.0367
 1105YOPC   GL115073  18.334  14.034   5.901  0.2882  0.1392 -0.4529
 1105YOPC   GL215074  18.574  14.049   6.069 -0.2290 -0.2826 -0.2540
 1105YOPC   C1A15075  18.091  13.728   6.225 -0.1162  0.3322 -0.0580
 1105YOPC   D2A15076  17.923  13.638   6.582  0.0508  0.0545  0.2872
 1105YOPC   C3A15077  17.700  13.472   6.961  0.4032 -0.3473 -0.4869
 1105YOPC   C4A15078  17.465  13.330   7.363  0.1847 -0.2279 -0.1558
 1105YOPC   C1B15079  18.492  14.046   6.405  0.0365  0.0894  0.0543
 1105YOPC   C2B15080  18.416  13.745   6.693  0.0910 -0.2500 -0.0783
 1105YOPC   D3B15081  18.371  13.719   7.181 -0.1130  0.0722  0.0461
 1105YOPC   C4B15082  17.966  13.945   7.323  0.0297  0.2092  0.0243
 1106YOPC   NC315083   3.600  12.834   5.729 -0.0455  0.1163  0.2320
 1106YOPC   PO415084   3.187  12.770   5.652  0.1128  0.0055 -0.3305
 1106YOPC   GL115085   3.289  12.739   6.104  0.2143  0.4002 -0.1477
 1106YOPC   GL215086   3.588  12.588   6.202  0.3233  0.2579  0.0428
 1106YOPC   C1A15087   3.187  12.939   6.486 -0.0351  0.1243 -0.0413
 1106YOPC   D2A15088   3.102  13.009   6.929 -0.1933 -0.1693 -0.1090
 1106YOPC   C3A15089   3.408  12.938   7.208  0.0877  0.1162  0.0439
 1106YOPC   C4A15090   3.436  13.046   7.721 -0.0371  0.0857  0.1763
 1106YOPC   C1B15091   3.587  12.770   6.669 -0.0751 -0.1021 -0.2075
 1106YOPC   C2B15092   3.345  12.502   6.942 -0.0569  0.0698 -0.0506
 1106YOPC   D3B15093   3.086  12.539   7.194 -0.2831 -0.0938 -0.1821
 1106YOPC   C4B15094   2.946  12.865   7.524 -0.1698  0.0731  0.0517
 1107YOPC   NC315095  17.328  10.201   5.425 -0.0702  0.3402 -0.0542
 1107YOPC   PO415096  17.606  10.395   5.801  0.2698 -0.3364 -0.1121
 1107YOPC   GL115097  17.796  10.442   6.317  0.1506 -0.0323  0.4296
 1107YOPC   GL215098  18.125  10.507   6.382  0.1609 -0.5696  0.1971
 1107YOPC   C1A15099  17.558  10.439   6.668 -0.2229 -0.2274  0.0702
 1107YOPC   D2A15100  17.718  10.522   7.026  0.2771 -0.0145 -0.2036
 1107YOPC   C3A15101  17.685  10.912   7.318  0.0120  0.0167 -0.0210
 1107YOPC   C4A15102  17.866  11.112   7.597  0.0664 -0.2171 -0.1022
 1107YOPC   C1B15103  18.095  10.488   6.728 -0.1688 -0.1527  0.0803
 1107YOPC   C2B15104  18.228  10.361   6.985  0.3640  0.0259 -0.1562
 1107YOPC   D3B15105  18.032  10.311   7.342 -0.2599 -0.0265 -0.3452
 1107YOPC   C4B15106  17.903  10.011   7.638  0.0638 -0.3272 -0.1308
 1108YOPC   NC315107  14.293   6.207   5.243  0.3293  0.1927  0.1276
 1108YOPC   PO415108  14.463   6.043   5.559  0.1077 -0.1064  0.1881
 1108YOPC   GL115109  14.571   5.914   6.001 -0.0173  0.4014  0.0346
 1108YOPC   GL215110  14.833   6.016   6.192 -0.2534  0.2309 -0.4074
 1108YOPC   C1A15111  14.361   5.715   6.467 -0.1620  0.1099  0.2052
 1108YOPC   D2A15112  14.301   5.888   6.826 -0.1014  0.2547 -0.1821
 1108YOPC   C3A15113  14.368   5.606   7.214  0.1606 -0.0080  0.2383
 1108YOPC   C4A15114  14.047   5.508   7.550  0.3927 -0.0155 -0.0095
 1108YOPC   C1B15115  14.780   6.050   6.724 -0.3442  0.0792  0.2401
 1108YOPC   C2B15116  14.753   6.239   7.092  0.0686 -0.0039  0.0462
 1108YOPC   D3B15117  14.586   5.990   7.444  0.0846 -0.0655  0.1841
 1108YOPC   C4B15118  14.438   5.693   7.799 -0.4573  0.0040  0.1518
 1109YOPC   NC315119  14.466   4.478   5.493  0.0296 -0.2843  0.1964
 1109YOPC   PO415120  14.557   4.966   5.421 -0.2271  0.0605 -0.0291
 1109YOPC   GL115121  14.495   5.111   5.896  0.3082  0.0010 -0.1656
 1109YOPC   GL215122  14.709   5.407   6.016  0.1635 -0.0073  0.1814
 1109YOPC   C1A15123  14.437   5.096   6.318  0.3969  0.1266  0.0625
 1109YOPC   D2A15124  14.748   5.054   6.688 -0.1287  0.0191 -0.0003
 1109YOPC   C3A15125  14.648   5.160   7.119 -0.2694 -0.0764  0.2243
 1109YOPC   C4A15126  14.652   5.260   7.582  0.0859 -0.1891 -0.2561
 1109YOPC   C1B15127  14.814   5.503   6.435 -0.3052  0.0055 -0.1322
 1109YOPC   C2B15128  14.704   5.560   6.824 -0.1160 -0.1211 -0.0488
 1109YOPC   D3B15129  14.876   5.605   7.193 -0.2429  0.0189  0.0363
 1109YOPC   C4B15130  14.990   5.650   7.581 -0.3414  0.0007  0.0836
 1110YOPC   NC315131  18.354   5.297   6.095 -0.1500  0.0429 -0.2856
 1110YOPC   PO415132  18.695   5.397   6.214  0.0003  0.1208 -0.1057
 1110YOPC   GL115133  18.689   5.603   6.624 -0.2894  0.1475 -0.2848
 1110YOPC   GL215134  18.700   5.971   6.752 -0.0479 -0.3380  0.2295
 1110YOPC   C1A15135  18.601   5.616   7.093  0.2221 -0.0660 -0.0107
 1110YOPC   D2A15136  18.602   5.584   7.546  0.1226 -0.1469 -0.0003
 1110YOPC   C3A15137  18.410   5.172   7.720  0.0539  0.1565  0.2877
 1110YOPC   C4A15138  18.398   4.805   7.858 -0.0507  0.2128  0.0264
 1110YOPC   C1B15139  18.659   6.189   7.121  0.1098 -0.1968 -0.0523
 1110YOPC   C2B15140  18.852   6.098   7.525 -0.0234  0.0732  0.1505
 1110YOPC   D3B15141  18.699   6.294   7.906 -0.0220  0.0167  0.2876
 1110YOPC   C4B15142  18.657   5.995   8.304  0.0977 -0.0811 -0.3257
 1111YOPC   NC315143   9.424   5.676   5.353 -0.3070 -0.2003 -0.3919
 1111YOPC   PO415144   8.999   5.778   5.593 -0.0175 -0.4197 -0.1160
 1111YOPC   GL115145   8.986   5.633   6.044  0.0720 -0.0563  0.2316
 1111YOPC   GL215146   8.630   5.558   6.150 -0.1734  0.1851 -0.2054
 1111YOPC   C1A15147   9.000   5.124   6.159 -0.0725  0.0183  0.2719
 1111YOPC   D2A15148   8.852   4.685   6.251 -0.0357 -0.1422 -0.0693
 1111YOPC   C3A15149   9.021   4.336   6.535 -0.1085 -0.0718 -0.0715
 1111YOPC   C4A15150   9.155   4.047   6.820  0.0039 -0.0393 -0.0382
 1111YOPC   C1B15151   8.946   5.484   6.510  0.1821 -0.3229  0.2857
 1111YOPC   C2B15152   8.973   5.393   6.898 -0.1812 -0.0040 -0.1315
 1111YOPC   D3B15153   9.360   5.401   7.168  0.0942  0.1204  0.0082
 1111YOPC   C4B15154   9.746   5.463   7.046 -0.0142  0.1595  0.0417
 1112YOPC   NC315155   4.740   9.729   5.781  0.0743  0.0496  0.2037
 1112YOPC   PO415156   5.169   9.719   5.541  0.1037  0.3293 -0.0141
 1112YOPC   GL115157   5.137   9.393   5.975  0.0500 -0.3273  0.2462
 1112YOPC   GL215158   4.795   9.504   6.211 -0.4779 -0.0425  0.0656
 1112YOPC   C1A15159   5.050   9.175   6.474 -0.1657 -0.2412 -0.0175
 1112YOPC   D2A15160   5.149   9.001   6.799  0.1008  0.3872  0.2109
 1112YOPC   C3A15161   5.074   8.956   7.177  0.1512  0.1613  0.1654
 1112YOPC   C4A15162   4.713   8.940   7.523  0.1543 -0.2508 -0.0028
 1112YOPC   C1B15163   4.583   9.273   6.641 -0.2427  0.0189 -0.0556
 1112YOPC   C2B15164   4.576   9.125   7.050 -0.0447 -0.1633  0.2517
 1112YOPC   D3B15165   4.436   9.331   7.464 -0.1624  0.3032 -0.1209
 1112YOPC   C4B15166   4.497   9.414   7.829 -0.0360 -0.1827 -0.0702
 1113YOPC   NC315167   1.999   9.557   5.920 -0.0797  0.1647 -0.0394
 1113YOPC   PO415168   2.132   9.181   6.115  0.2011  0.2496  0.4172
 1113YOPC   GL115169   2.282   8.946   6.442 -0.0069  0.1621  0.3299
 1113YOPC   GL215170   2.295   8.585   6.385 -0.0675 -0.0153  0.0915
 1113YOPC   C1A15171   2.147   8.748   6.867  0.1757 -0.2069  0.1203
 1113YOPC   D2A15172   2.389   8.740   7.218  0.2170  0.2781  0.0534
 1113YOPC   C3A15173   2.300   8.813   7.700 -0.1604  0.0734  0.2368
 1113YOPC   C4A15174   2.186   8.991   8.044  0.2655  0.1948  0.1864
 1113YOPC   C1B15175   2.616   8.626   6.764  0.3418  0.0893  0.1972
 1113YOPC   C2B15176   2.806   8.456   7.137 -0.0583 -0.2096  0.1802
 1113YOPC   D3B15177   2.820   8.715   7.556  0.0777  0.4701  0.1961
 1113YOPC   C4B15178   2.988   9.054   7.805 -0.1599  0.0775  0.0112
 1114YOPC   NC315179  12.742  13.831   6.130 -0.0155  0.0567  0.2066
 1114YOPC   PO415180  13.036  14.130   5.926 -0.1549  0.4337  0.0814
 1114YOPC   GL115181  13.243  14.148   6.247  0.0868  0.0037 -0.1259
 1114YOPC   GL215182  13.493  14.176   6.304  0.1801  0.0499  0.2800
 1114YOPC   C1A15183  13.100  14.033   6.662 -0.1514  0.0542 -0.1557
 1114YOPC   D2A15184  12.686  13.999   6.804  0.0439 -0.2332 -0.3111
 1114YOPC   C3A15185  12.711  14.010   7.295 -0.2316  0.2746  0.0810
 1114YOPC   C4A15186  12.643  13.923   7.730  0.1796 -0.2890  0.0765
 1114YOPC   C1B15187  13.612  14.377   6.660 -0.0253  0.0002  0.0167
 1114YOPC   C2B15188  13.702  14.296   7.063  0.0642 -0.1501  0.0797
 1114YOPC   D3B15189  13.537  14.488   7.356 -0.0052  0.1541 -0.1457
 1114YOPC   C4B15190  13.537  14.717   7.713 -0.0923  0.0522 -0.0350
 1115YOPC   NC315191  14.531   2.780   5.632  0.0136  0.1145 -0.0355
 1115YOPC   PO415192  14.126   2.856   5.775 -0.2433 -0.0374  0.0365
 1115YOPC   GL115193  14.189   2.828   6.210  0.1395 -0.0692 -0.1168
 1115YOPC   GL215194  14.451   2.833   6.285  0.1889 -0.1790  0.1161
 1115YOPC   C1A15195  13.962   2.697   6.608  0.0930 -0.0601 -0.0538
 1115YOPC   D2A15196  14.010   2.675   7.036  0.1596  0.0542 -0.0004
 1115YOPC   C3A15197  13.810   2.956   7.246  0.1825 -0.0034 -0.1847
 1115YOPC   C4A15198  13.504   3.078   7.507 -0.0546  0.3135 -0.1398
 1115YOPC   C1B15199  14.402   2.888   6.719  0.0846 -0.1182 -0.2023
 1115YOPC   C2B15200  14.339   3.055   7.121  0.0942 -0.2216  0.1049
 1115YOPC   D3B15201  14.236   2.840   7.500 -0.0329 -0.0823  0.2149
 1115YOPC   C4B15202  14.176   2.443   7.618 -0.0522  0.2171 -0.1607
 1116YOPC   NC315203   7.808   7.207   5.455  0.2305 -0.3442  0.3429
 1116YOPC   PO415204   7.893   6.812   5.481 -0.0662 -0.0847 -0.1610
 1116YOPC   GL115205   8.118   6.931   5.838 -0.1071 -0.0220  0.2729
 1116YOPC   GL215206   8.154   7.221   5.827 -0.2323  0.0673 -0.0734
 1116YOPC   C1A15207   8.228   6.890   6.275  0.0237  0.1146 -0.1342
 1116YOPC   D2A15208   8.297   6.782   6.717  0.0406  0.1546 -0.1112
 1116YOPC   C3A15209   8.086   6.912   7.091  0.1167  0.0037  0.2744
 1116YOPC   C4A15210   7.787   7.077   7.397 -0.2748 -0.0393  0.0679
 1116YOPC   C1B15211   8.150   7.394   6.240  0.0686 -0.0639 -0.3503
 1116YOPC   C2B15212   8.100   7.264   6.617 -0.2586  0.3520 -0.0216
 1116YOPC   D3B15213   7.913   7.358   7.005 -0.0646  0.1128  0.1587
 1116YOPC   C4B15214   7.536   7.334   7.017 -0.0224 -0.2202  0.1490
 1117YOPC   NC315215  10.124   4.627   5.401 -0.3329  0.0396 -0.0837
 1117YOPC   PO415216  10.415   4.377   5.213  0.0363 -0.1021  0.1075
 1117YOPC   GL115217  10.702   4.414   5.592  0.0673 -0.0192 -0.1489
 1117YOPC   GL215218  10.933   4.752   5.627  0.0532  0.0927  0.2106
 1117YOPC   C1A15219  10.507   4.382   5.999 -0.0882  0.0115  0.1871
 1117YOPC   D2A15220  10.492   4.424   6.411  0.1376 -0.0885  0.3008
 1117YOPC   C3A15221  10.522   4.783   6.787 -0.1416  0.1842  0.1068
 1117YOPC   C4A15222  10.697   5.193   6.957  0.0752  0.3228 -0.1557
 1117YOPC   C1B15223  11.175   4.842   5.868  0.1509 -0.1075  0.0124
 1117YOPC   C2B15224  11.169   5.171   6.085 -0.1891  0.2661 -0.0366
 1117YOPC   D3B15225  10.791   5.216   6.360  0.0223  0.2775 -0.0475
 1117YOPC   C4B15226  10.474   5.326   6.582 -0.0359  0.0450 -0.0722
 1118YOPC   NC315227   1.357  10.561   5.372 -0.0183 -0.3380  0.1020
 1118YOPC   PO415228   1.419  10.502   5.804  0.0983  0.1340  0.2396
 1118YOPC   GL115229   1.411  10.614   6.260 -0.3154  0.2779  0.0721
 1118YOPC   GL215230   1.563  10.527   6.523  0.1175  0.0531 -0.3967
 1118YOPC   C1A15231   1.061  10.746   6.522 -0.0831 -0.0547  0.2467
 1118YOPC   D2A15232   0.634  10.893   6.653  0.1015 -0.0716  0.0420
 1118YOPC   C3A15233   0.444  11.216   7.054 -0.0065 -0.0169 -0.0107
 1118YOPC   C4A15234   0.247  11.306   7.460  0.2053 -0.1519  0.1746
 1118YOPC   C1B15235   1.307  10.397   6.895 -0.0293 -0.3985 -0.2098
 1118YOPC   C2B15236   1.062  10.394   7.310  0.0458  0.3708 -0.0014
 1118YOPC   D3B15237   1.229  10.447   7.592  0.1562 -0.1353  0.1898
 1118YOPC   C4B15238   1.537  10.488   7.929 -0.1953 -0.1463  0.1955
 1119YOPC   NC315239  17.643  13.054   5.588 -0.2177  0.0014  0.0004
 1119YOPC   PO415240  17.189  12.997   5.634  0.0993 -0.0198  0.0255
 1119YOPC   GL115241  17.265  13.002   6.042  0.4382 -0.2427  0.0335
 1119YOPC   GL215242  16.924  13.212   6.153 -0.1057 -0.2386  0.1584
 1119YOPC   C1A15243  17.403  12.801   6.433  0.1706 -0.3685 -0.0801
 1119YOPC   D2A15244  17.435  12.808   6.840  0.0399 -0.1789  0.0752
 1119YOPC   C3A15245  17.346  12.819   7.256 -0.2417  0.0687  0.0740
 1119YOPC   C4A15246  17.355  12.673   7.658 -0.0446 -0.0733  0.0019
 1119YOPC   C1B15247  16.994  13.159   6.513 -0.3307  0.0903  0.1407
 1119YOPC   C2B15248  17.249  13.315   6.869 -0.0379  0.1035 -0.1586
 1119YOPC   D3B15249  17.000  13.194   7.161  0.0020 -0.3186 -0.1886
 1119YOPC   C4B15250  16.721  13.435   7.458  0.1558 -0.2826  0.0559
 1120YOPC   NC315251   3.171   2.950   5.398  0.0041  0.3625  0.0639
 1120YOPC   PO415252   3.488   2.854   5.649 -0.0297 -0.1690 -0.3300
 1120YOPC   GL115253   3.372   2.983   6.073 -0.1253 -0.1681 -0.0948
 1120YOPC   GL215254   3.434   3.269   6.088 -0.0841  0.5863  0.0841
 1120YOPC   C1A15255   3.039   2.897   6.402  0.2793  0.1508  0.0285
 1120YOPC   D2A15256   2.931   3.012   6.862  0.0813 -0.0724  0.1545
 1120YOPC   C3A15257   2.952   2.801   7.245 -0.0490 -0.0601 -0.2944
 1120YOPC   C4A15258   2.903   2.524   7.593 -0.0623  0.3658 -0.2056
 1120YOPC   C1B15259   3.295   3.238   6.586 -0.0392  0.0686 -0.1387
 1120YOPC   C2B15260   3.412   3.003   7.015 -0.0721  0.0729  0.0723
 1120YOPC   D3B15261   3.772   3.037   7.321  0.1530  0.0495 -0.0093
 1120YOPC   C4B15262   3.919   3.267   7.613 -0.0681  0.1066 -0.2347
 1121YOPC   NC315263   1.064  18.241   5.523  0.1338 -0.0334 -0.2032
 1121YOPC   PO415264   1.518  18.318   5.465  0.0241 -0.1324  0.2163
 1121YOPC   GL115265   1.307  18.174   5.939  0.1519 -0.0942 -0.0912
 1121YOPC   GL215266   1.010  17.961   6.025  0.1611 -0.0346 -0.1951
 1121YOPC   C1A15267   1.180  18.202   6.423 -0.2941  0.1983 -0.0099
 1121YOPC   D2A15268   1.189  17.998   6.813 -0.1362  0.3363  0.1772
 1121YOPC   C3A15269   1.285  18.188   7.094 -0.0684  0.3090  0.1267
 1121YOPC   C4A15270   1.307  18.150   7.484 -0.1001 -0.0030 -0.0288
 1121YOPC   C1B15271   1.161  17.729   6.311 -0.0670 -0.2647 -0.2362
 1121YOPC   C2B15272   1.150  17.475   6.727 -0.1072 -0.1740 -0.0403
 1121YOPC   D3B15273   1.107  17.604   7.083  0.4591 -0.3060  0.0229
 1121YOPC   C4B15274   1.507  17.662   7.347  0.1080 -0.2855  0.0552
 1122YOPC   NC315275   3.184  10.271   5.102  0.0626 -0.2697 -0.3033
 1122YOPC   PO415276   3.136  10.518   5.532 -0.2508 -0.0241  0.2056
 1122YOPC   GL115277   3.380  10.665   6.007 -0.0151  0.0112  0.0396
 1122YOPC   GL215278   3.587  10.383   6.095 -0.2963  0.1311  0.2412
 1122YOPC   C1A15279   3.218  10.912   6.316 -0.1512  0.0632 -0.0636
 1122YOPC   D2A15280   3.188  11.081   6.739 -0.2107  0.3080  0.1664
 1122YOPC   C3A15281   3.390  11.182   6.936  0.1727  0.0658  0.1554
 1122YOPC   C4A15282   3.685  10.974   7.187 -0.1604  0.0474  0.0987
 1122YOPC   C1B15283   3.554  10.110   6.533 -0.0470  0.0635 -0.4725
 1122YOPC   C2B15284   3.193   9.974   6.816  0.0804  0.1046  0.0488
 1122YOPC   D3B15285   3.263   9.623   7.118 -0.0346 -0.1822  0.1526
 1122YOPC   C4B15286   3.309   9.368   7.463 -0.0194  0.1532 -0.0208
 1123YOPC   NC315287  13.449  18.176   6.165  0.2360  0.3737 -0.1058
 1123YOPC   PO415288  13.832  18.267   5.838  0.0845 -0.0781  0.0027
 1123YOPC   GL115289  14.032  18.213   6.294 -0.1484 -0.1574 -0.0078
 1123YOPC   GL215290  13.692  18.053   6.592 -0.3281 -0.0855  0.0491
 1123YOPC   C1A15291  14.142  18.231   6.724  0.3209 -0.0693 -0.0127
 1123YOPC   D2A15292  14.087  18.178   7.170 -0.1443  0.0652  0.4796
 1123YOPC   C3A15293  13.962  18.417   7.491 -0.0246  0.3570 -0.0477
 1123YOPC   C4A15294  13.926  18.247   7.913  0.0755  0.0468  0.0758
 1123YOPC   C1B15295  13.647  17.882   6.944  0.0034 -0.2425 -0.2790
 1123YOPC   C2B15296  13.262  17.881   7.120  0.3179 -0.0404  0.2214
 1123YOPC   D3B15297  13.095  17.907   7.527  0.1924  0.0153  0.0012
 1123YOPC   C4B15298  12.697  17.803   7.805  0.2244 -0.0873  0.1042
 1124YOPC   NC315299  12.318  10.138   5.075 -0.1844  0.2618 -0.0137
 1124YOPC   PO415300  12.557   9.954   5.399  0.0568  0.2148 -0.0123
 1124YOPC   GL115301  12.710   9.920   5.805  0.0389 -0.0342 -0.2045
 1124YOPC   GL215302  12.476  10.066   6.005 -0.1816  0.1944  0.3087
 1124YOPC   C1A15303  12.903  10.092   6.279 -0.0089 -0.1953 -0.1024
 1124YOPC   D2A15304  12.781  10.243   6.688 -0.2379 -0.1305 -0.2488
 1124YOPC   C3A15305  12.742   9.898   7.042 -0.0759 -0.0125 -0.1029
 1124YOPC   C4A15306  12.949   9.728   7.483  0.0885  0.4004  0.1789
 1124YOPC   C1B15307  12.378  10.271   6.394 -0.1188  0.6252  0.1034
 1124YOPC   C2B15308  12.257  10.414   6.792  0.0570 -0.2261 -0.0434
 1124YOPC   D3B15309  12.511  10.362   7.232 -0.1816 -0.2155  0.1602
 1124YOPC   C4B15310  12.342  10.206   7.699  0.1115  0.1158  0.2201
 1125YOPC   NC315311   8.341  15.223   5.403  0.0099 -0.1665  0.0739
 1125YOPC   PO415312   8.045  15.031   5.725 -0.1228  0.1431  0.0513
 1125YOPC   GL115313   8.137  14.830   6.135  0.1690  0.1563 -0.0085
 1125YOPC   GL215314   8.486  14.736   6.161 -0.2123  0.1599 -0.1341
 1125YOPC   C1A15315   8.133  14.440   6.370 -0.1973  0.1095 -0.1469
 1125YOPC   D2A15316   8.205  14.224   6.783  0.1975 -0.0683  0.0820
 1125YOPC   C3A15317   8.125  14.347   7.209 -0.4728  0.1602  0.0165
 1125YOPC   C4A15318   8.051  14.705   7.377 -0.2631  0.3893 -0.1470
 1125YOPC   C1B15319   8.441  14.854   6.628  0.0893  0.2400 -0.1222
 1125YOPC   C2B15320   8.465  14.818   7.112  0.0286  0.0614 -0.2023
 1125YOPC   D3B15321   8.575  14.567   7.493  0.1278 -0.1242  0.0341
 1125YOPC   C4B15322   8.711  14.164   7.732  0.0119  0.0609 -0.1742
 1126YOPC   NC315323   3.277  14.935   6.117  0.2433 -0.0390  0.0580
 1126YOPC   PO415324   3.570  14.664   6.144  0.0290  0.1166 -0.0449
 1126YOPC   GL115325   3.844  14.649   6.412 -0.0988 -0.2138 -0.1229
 1126YOPC   GL215326   3.973  14.338   6.429 -0.0937  0.0281 -0.2897
 1126YOPC   C1A15327   4.014  14.795   6.852 -0.0282  0.0348 -0.0291
 1126YOPC   D2A15328   3.963  14.975   7.236 -0.0831 -0.3392 -0.1563
 1126YOPC   C3A15329   4.337  14.988   7.530 -0.4121 -0.1410 -0.0506
 1126YOPC   C4A15330   4.580  14.918   7.797 -0.0370  0.0583 -0.1890
 1126YOPC   C1B15331   4.074  14.262   6.786  0.2008  0.0279  0.1005
 1126YOPC   C2B15332   4.170  14.040   7.208 -0.0527 -0.4458  0.3570
 1126YOPC   D3B15333   4.626  14.003   7.459 -0.1983 -0.2203  0.0679
 1126YOPC   C4B15334   5.048  14.128   7.384 -0.1280  0.2443 -0.1997
 1127YOPC   NC315335   0.189   3.564   5.778 -0.0315 -0.0660 -0.1234
 1127YOPC   PO415336   0.409   3.980   5.873 -0.2068  0.0276 -0.0614
 1127YOPC   GL115337   0.611   3.990   6.280  0.2142 -0.0941  0.4065
 1127YOPC   GL215338   0.647   4.214   6.498  0.1662  0.0150  0.0277
 1127YOPC   C1A15339   0.334   3.897   6.634  0.0557 -0.1549  0.0210
 1127YOPC   D2A15340   0.246   3.760   7.041  0.0566 -0.0867 -0.1837
 1127YOPC   C3A15341   0.299   3.950   7.451  0.2939  0.0513 -0.0443
 1127YOPC   C4A15342   0.586   3.922   7.770  0.1783 -0.2540 -0.0883
 1127YOPC   C1B15343   0.640   4.236   6.874 -0.1936 -0.0442 -0.0683
 1127YOPC   C2B15344   1.012   4.050   7.036 -0.2465  0.0934  0.1167
 1127YOPC   D3B15345   0.761   3.800   7.284 -0.1698 -0.3740 -0.2733
 1127YOPC   C4B15346   0.465   3.470   7.377  0.1857 -0.0358  0.2407
 1128YOPC   NC315347   2.517   7.522   5.293 -0.3619 -0.0027 -0.2039
 1128YOPC   PO415348   2.821   7.459   5.716  0.1670  0.2665  0.2186
 1128YOPC   GL115349   2.754   7.400   6.176 -0.0584  0.2180  0.0497
 1128YOPC   GL215350   2.509   7.178   6.188 -0.0113 -0.1655 -0.0930
 1128YOPC   C1A15351   2.941   7.574   6.513  0.2615 -0.1004 -0.1288
 1128YOPC   D2A15352   2.844   7.426   6.864  0.1242  0.1490  0.0100
 1128YOPC   C3A15353   2.973   7.187   7.297  0.2232  0.0095 -0.1977
 1128YOPC   C4A15354   2.945   7.038   7.756 -0.2450 -0.0239  0.1710
 1128YOPC   C1B15355   2.788   7.054   6.487 -0.1103  0.1581  0.1126
 1128YOPC   C2B15356   3.060   6.939   6.856  0.1386  0.0909 -0.3401
 1128YOPC   D3B15357   3.179   6.616   7.027 -0.1286  0.1290  0.0439
 1128YOPC   C4B15358   3.499   6.298   7.038  0.0118 -0.1668  0.1554
 1129YOPC   NC315359   3.345   5.073   5.619  0.4015 -0.0334 -0.1932
 1129YOPC   PO415360   3.129   4.529   5.642 -0.3009 -0.1985  0.1389
 1129YOPC   GL115361   3.270   4.509   6.030 -0.1983 -0.0096 -0.0025
 1129YOPC   GL215362   3.157   4.212   6.181  0.1884  0.0344 -0.1421
 1129YOPC   C1A15363   3.012   4.621   6.328 -0.1375  0.1872  0.2050
 1129YOPC   D2A15364   2.942   4.503   6.767  0.1030  0.3028 -0.2829
 1129YOPC   C3A15365   3.151   4.113   6.662 -0.0619 -0.1435  0.0240
 1129YOPC   C4A15366   3.437   3.799   6.470  0.1072 -0.2627 -0.0674
 1129YOPC   C1B15367   3.653   4.245   6.219 -0.1736  0.0244  0.1391
 1129YOPC   C2B15368   4.023   4.423   6.396 -0.1777 -0.2962  0.0195
 1129YOPC   D3B15369   4.023   4.813   6.634  0.2761 -0.2335  0.0342
 1129YOPC   C4B15370   3.705   5.122   6.666 -0.2265  0.0990  0.1639
 1130YOPC   NC315371   4.594  14.871   5.502  0.1563  0.0182  0.0929
 1130YOPC   PO415372   4.394  14.771   5.772 -0.0110  0.1708 -0.1140
 1130YOPC   GL115373   4.309  14.791   6.220  0.2469 -0.3073  0.1566
 1130YOPC   GL215374   4.568  14.911   6.273  0.1734 -0.1754 -0.0866
 1130YOPC   C1A15375   4.480  14.437   6.488  0.0094  0.2461 -0.2355
 1130YOPC   D2A15376   4.628  14.165   6.838 -0.1737 -0.1338 -0.1470
 1130YOPC   C3A15377   4.413  14.506   7.246 -0.1532 -0.0956  0.0676
 1130YOPC   C4A15378   4.254  14.485   7.651  0.0361 -0.3040  0.1358
 1130YOPC   C1B15379   4.543  14.972   6.679 -0.1539 -0.2179  0.0427
 1130YOPC   C2B15380   4.636  14.958   7.136 -0.0113  0.1233  0.0309
 1130YOPC   D3B15381   4.806  15.256   7.532  0.2071  0.3477 -0.0442
 1130YOPC   C4B15382   4.973  15.704   7.795 -0.3647  0.3377  0.0972
 1131YOPC   NC315383  11.071   8.947   5.429 -0.0586  0.2477  0.0602
 1131YOPC   PO415384  11.027   8.658   5.851  0.0464  0.1286  0.2202
 1131YOPC   GL115385  11.363   8.744   6.082  0.0913  0.2046 -0.2786
 1131YOPC   GL215386  11.231   8.933   6.411  0.0391 -0.1709 -0.3701
 1131YOPC   C1A15387  11.661   8.632   6.429  0.1131  0.2265  0.0826
 1131YOPC   D2A15388  12.097   8.766   6.503 -0.3631  0.1958 -0.0563
 1131YOPC   C3A15389  12.292   8.938   6.816  0.0446  0.0196  0.2431
 1131YOPC   C4A15390  12.579   9.365   6.777 -0.2821  0.0333  0.1593
 1131YOPC   C1B15391  11.395   8.966   6.824  0.2494 -0.0563 -0.0455
 1131YOPC   C2B15392  11.884   8.688   6.952 -0.0919  0.0427  0.1237
 1131YOPC   D3B15393  11.907   8.676   7.292  0.1103  0.0612  0.1521
 1131YOPC   C4B15394  11.673   8.765   7.618  0.1344  0.1877  0.2015
 1132YOPC   NC315395  16.060   8.429   5.860 -0.3673 -0.1224  0.1982
 1132YOPC   PO415396  15.870   8.650   5.980 -0.0641  0.0778 -0.0936
 1132YOPC   GL115397  16.034   8.854   6.254  0.1004  0.2076  0.0928
 1132YOPC   GL215398  16.335   8.861   6.446  0.0829 -0.1104  0.1472
 1132YOPC   C1A15399  15.864   8.980   6.669  0.1478 -0.2074  0.4077
 1132YOPC   D2A15400  15.768   8.915   7.041  0.0148  0.0493 -0.4571
 1132YOPC   C3A15401  15.764   8.649   7.341  0.1538 -0.0645  0.0055
 1132YOPC   C4A15402  15.687   8.516   7.747 -0.1963 -0.0473 -0.4313
 1132YOPC   C1B15403  16.337   8.997   6.803 -0.3181 -0.0100  0.1115
 1132YOPC   C2B15404  16.339   8.946   7.244 -0.3823 -0.0579 -0.0212
 1132YOPC   D3B15405  16.128   8.951   7.579  0.0056 -0.2774 -0.0461
 1132YOPC   C4B15406  16.129   8.850   7.918 -0.0270  0.3334 -0.1469
 1133YOPC   NC315407  12.802   1.702   6.059  0.1937  0.1081  0.1081
 1133YOPC   PO415408  12.899   1.316   5.877 -0.1001 -0.0766 -0.1615
 1133YOPC   GL115409  12.592   1.275   6.160 -0.0780  0.3115  0.0198
 1133YOPC   GL215410  12.581   0.983   6.311  0.4395  0.1223  0.1891
 1133YOPC   C1A15411  12.218   1.410   6.312 -0.2459  0.0698  0.2250
 1133YOPC   D2A15412  12.158   1.846   6.506 -0.1789 -0.1846 -0.1165
 1133YOPC   C3A15413  12.381   2.058   6.931  0.0384 -0.1785  0.2043
 1133YOPC   C4A15414  12.737   1.853   7.081  0.1621  0.2103 -0.2105
 1133YOPC   C1B15415  12.591   1.228   6.699 -0.0888  0.0318  0.1572
 1133YOPC   C2B15416  12.292   1.509   6.841 -0.0411 -0.1373 -0.1042
 1133YOPC   D3B15417  12.348   1.701   7.271  0.2361 -0.0359  0.1355
 1133YOPC   C4B15418  12.569   1.932   7.681 -0.1065  0.0328  0.0729
 1134YOPC   NC315419   5.416   6.427   5.465  0.1380  0.1616  0.2562
 1134YOPC   PO415420   5.546   6.717   5.774 -0.0867  0.0001 -0.1424
 1134YOPC   GL115421   5.477   6.695   6.128  0.0804 -0.1050  0.0323
 1134YOPC   GL215422   5.595   6.954   6.356  0.1738  0.0683  0.0668
 1134YOPC   C1A15423   5.630   6.444   6.546 -0.0325  0.0580  0.0403
 1134YOPC   D2A15424   6.044   6.495   6.800  0.5785 -0.2955  0.0996
 1134YOPC   C3A15425   6.313   6.154   6.758  0.1305 -0.4052  0.1374
 1134YOPC   C4A15426   6.744   6.093   6.637 -0.0110 -0.2613  0.4396
 1134YOPC   C1B15427   5.631   6.909   6.848  0.2673  0.1153 -0.0108
 1134YOPC   C2B15428   5.869   7.018   7.298  0.2097 -0.1050  0.1670
 1134YOPC   D3B15429   5.811   7.321   7.523 -0.1179 -0.1704  0.2290
 1134YOPC   C4B15430   5.618   7.392   7.959 -0.0126  0.3256  0.2864
 1135YOPC   NC315431  13.391   4.393   5.597  0.0706 -0.0510 -0.1491
 1135YOPC   PO415432  13.481   4.768   5.708 -0.2712  0.0519 -0.1841
 1135YOPC   GL115433  13.744   4.829   6.112  0.4743 -0.1151  0.0294
 1135YOPC   GL215434  13.953   4.988   6.138 -0.1311  0.1120  0.0044
 1135YOPC   C1A15435  13.662   4.785   6.598 -0.2317  0.4017 -0.1940
 1135YOPC   D2A15436  13.819   4.801   6.974 -0.0659  0.0583 -0.3338
 1135YOPC   C3A15437  14.061   4.605   7.273 -0.0601  0.0780 -0.1566
 1135YOPC   C4A15438  14.223   4.312   7.449  0.1856  0.1603 -0.0935
 1135YOPC   C1B15439  14.189   4.767   6.609  0.0300 -0.0649  0.1318
 1135YOPC   C2B15440  14.374   4.762   6.963 -0.1400  0.1083 -0.0918
 1135YOPC   D3B15441  14.525   4.808   7.484 -0.0784  0.0228  0.0085
 1135YOPC   C4B15442  14.932   4.764   7.660  0.0996 -0.1420 -0.2131
 1136YOPC   NC315443  17.670   3.219   5.804  0.2117 -0.2500 -0.2042
 1136YOPC   PO415444  17.994   2.923   5.617 -0.4312  0.1818 -0.0503
 1136YOPC   GL115445  17.827   2.780   6.009  0.0122  0.2178 -0.3200
 1136YOPC   GL215446  17.463   2.874   6.148 -0.0538 -0.1987  0.1442
 1136YOPC   C1A15447  18.030   2.677   6.348  0.1114  0.2652 -0.1640
 1136YOPC   D2A15448  18.230   2.411   6.577 -0.3130  0.0854 -0.0095
 1136YOPC   C3A15449  18.068   2.096   6.935 -0.0932  0.0466  0.0641
 1136YOPC   C4A15450  18.208   1.667   7.186  0.2206 -0.0993 -0.1827
 1136YOPC   C1B15451  17.637   2.919   6.595 -0.0841  0.1981  0.0387
 1136YOPC   C2B15452  17.875   2.915   6.912  0.2478 -0.0113 -0.0113
 1136YOPC   D3B15453  18.082   2.961   7.311 -0.0642 -0.1936  0.0378
 1136YOPC   C4B15454  18.225   3.023   7.717 -0.2304  0.0664 -0.1119
 1137YOPC   NC315455   7.148   1.060   5.271  0.2379 -0.1669 -0.1882
 1137YOPC   PO415456   6.762   1.297   5.187 -0.2034 -0.0141 -0.1178
 1137YOPC   GL115457   6.899   1.428   5.620 -0.0073 -0.4454  0.0577
 1137YOPC   GL215458   6.681   1.542   5.808  0.0744 -0.3121 -0.2961
 1137YOPC   C1A15459   7.103   1.348   6.012 -0.1032 -0.0323  0.0964
 1137YOPC   D2A15460   7.202   1.429   6.407 -0.3270 -0.1947  0.0169
 1137YOPC   C3A15461   7.405   1.830   6.524 -0.2287  0.3003  0.2222
 1137YOPC   C4A15462   7.500   2.172   6.687  0.0351  0.0590 -0.0986
 1137YOPC   C1B15463   6.680   1.367   6.234  0.1142  0.0387  0.3638
 1137YOPC   C2B15464   6.747   1.360   6.711 -0.0887  0.1690  0.2635
 1137YOPC   D3B15465   7.138   1.152   6.816  0.2027  0.2605 -0.1701
 1137YOPC   C4B15466   7.331   0.881   7.102  0.1332  0.1092  0.0737
 1138YOPC   NC315467   7.831  10.199   6.033  0.0689  0.0038 -0.1451
 1138YOPC   PO415468   8.017  10.454   6.347  0.0605 -0.0933  0.1468
 1138YOPC   GL115469   8.379  10.563   6.510 -0.0751  0.1766  0.2642
 1138YOPC   GL215470   8.611  10.814   6.313 -0.0085  0.0656  0.1863
 1138YOPC   C1A15471   8.517  10.712   6.888 -0.1997  0.2682  0.1422
 1138YOPC   D2A15472   8.739  10.868   7.201  0.0799 -0.1343 -0.2260
 1138YOPC   C3A15473   9.179  10.946   7.203  0.0637  0.1355 -0.1329
 1138YOPC   C4A15474   9.559  10.907   7.494  0.0684 -0.0864 -0.1719
 1138YOPC   C1B15475   8.933  10.997   6.649 -0.1224 -0.0617 -0.2382
 1138YOPC   C2B15476   9.349  10.961   6.706 -0.0297 -0.1100 -0.2794
 1138YOPC   D3B15477   9.749  11.091   6.869 -0.0102 -0.4327 -0.0922
 1138YOPC   C4B15478   9.951  11.170   7.262 -0.1039  0.1580 -0.0229
 1139YOPC   NC315479   3.322   9.627   5.560 -0.1801 -0.0660 -0.1220
 1139YOPC   PO415480   2.857   9.690   5.642 -0.0798 -0.0300 -0.0824
 1139YOPC   GL115481   2.968   9.461   6.076  0.0745 -0.1110  0.0439
 1139YOPC   GL215482   2.730   9.130   6.101 -0.2447 -0.1628 -0.1083
 1139YOPC   C1A15483   3.154   9.459   6.491 -0.1482 -0.1199 -0.0609
 1139YOPC   D2A15484   2.917   9.463   6.865 -0.1281  0.1730 -0.0417
 1139YOPC   C3A15485   2.759   9.633   7.176  0.0133  0.0820  0.1095
 1139YOPC   C4A15486   2.537   9.787   7.418 -0.1370 -0.0478 -0.1823
 1139YOPC   C1B15487   2.672   9.231   6.546  0.0206 -0.2238  0.0400
 1139YOPC   C2B15488   2.644   9.052   6.988 -0.2291  0.2424 -0.0281
 1139YOPC   D3B15489   2.813   9.169   7.318  0.3090 -0.0885  0.0569
 1139YOPC   C4B15490   2.899   9.597   7.655  0.1925 -0.0313  0.0239
 1140YOPC   NC315491   0.858   4.681   5.779 -0.4235  0.1951  0.0237
 1140YOPC   PO415492   0.459   4.545   5.972  0.0776  0.1136 -0.0668
 1140YOPC   GL115493   0.461   4.709   6.388 -0.2715  0.0993  0.0065
 1140YOPC   GL215494   0.335   5.000   6.511  0.0598 -0.2037  0.1202
 1140YOPC   C1A15495   0.222   4.581   6.794  0.4176 -0.1186 -0.0339
 1140YOPC   D2A15496   0.174   4.318   7.180  0.1565 -0.1010 -0.1995
 1140YOPC   C3A15497   0.107   4.381   7.607 -0.0629 -0.0227  0.0906
 1140YOPC   C4A15498  -0.237   4.254   7.865  0.2056 -0.1400  0.1273
 1140YOPC   C1B15499   0.293   5.182   6.927  0.0281 -0.0599 -0.0354
 1140YOPC   C2B15500   0.342   5.165   7.357  0.4147 -0.0795  0.1162
 1140YOPC   D3B15501   0.404   4.859   7.700  0.0367  0.0050  0.0641
 1140YOPC   C4B15502   0.498   4.855   8.137 -0.1907  0.2279 -0.1031
 1141YOPC   NC315503   1.201  12.405   6.223 -0.1851  0.1736  0.2002
 1141YOPC   PO415504   0.832  12.381   6.371  0.1243  0.0443  0.0107
 1141YOPC   GL115505   0.500  12.328   6.501 -0.0580 -0.2315 -0.0980
 1141YOPC   GL215506   0.381  12.585   6.654  0.1709  0.4162 -0.0022
 1141YOPC   C1A15507   0.472  12.244   6.977  0.2154 -0.0566  0.0976
 1141YOPC   D2A15508   0.392  12.170   7.438  0.0947  0.3302  0.1074
 1141YOPC   C3A15509   0.508  12.383   7.837  0.0378  0.3054 -0.1825
 1141YOPC   C4A15510   0.634  12.221   8.220 -0.2982 -0.0489 -0.1670
 1141YOPC   C1B15511   0.728  12.690   6.925 -0.0048 -0.2320  0.1187
 1141YOPC   C2B15512   0.887  12.521   7.181 -0.0782  0.0106  0.3416
 1141YOPC   D3B15513   0.842  12.670   7.628 -0.2446  0.2744  0.2297
 1141YOPC   C4B15514   0.781  12.746   8.091  0.2428  0.1449  0.2191
 1142YOPC   NC315515  10.837   0.458   4.928 -0.0553  0.0373 -0.3148
 1142YOPC   PO415516  11.075   0.652   5.312  0.1793 -0.0269 -0.1683
 1142YOPC   GL115517  10.878   0.411   5.688  0.1241 -0.2148 -0.3094
 1142YOPC   GL215518  11.090   0.515   5.957 -0.0619  0.3485  0.0649
 1142YOPC   C1A15519  10.617   0.606   5.966  0.0063 -0.1269  0.1789
 1142YOPC   D2A15520  10.371   0.531   6.344  0.1145 -0.0866 -0.0423
 1142YOPC   C3A15521  10.157   0.255   6.692 -0.2933 -0.1824 -0.3338
 1142YOPC   C4A15522  10.075   0.174   7.181  0.0890  0.1485 -0.0250
 1142YOPC   C1B15523  10.904   0.485   6.357 -0.0759 -0.1019  0.0369
 1142YOPC   C2B15524  10.731   0.421   6.728  0.4349  0.1662  0.0902
 1142YOPC   D3B15525  10.449   0.655   7.011 -0.1591  0.4029  0.0779
 1142YOPC   C4B15526  10.431   0.908   7.504  0.2396  0.0433 -0.1002
 1143YOPC   NC315527  16.686   3.198   5.616 -0.2533 -0.1751 -0.2833
 1143YOPC   PO415528  16.924   2.751   5.710  0.3014 -0.2717  0.0514
 1143YOPC   GL115529  16.988   2.812   6.195 -0.1550  0.0209  0.2366
 1143YOPC   GL215530  16.687   3.054   6.076 -0.0072  0.1144 -0.0277
 1143YOPC   C1A15531  17.168   2.631   6.566  0.0296 -0.1780 -0.1903
 1143YOPC   D2A15532  17.365   2.584   6.910  0.2725 -0.3736  0.2328
 1143YOPC   C3A15533  17.369   2.630   7.411  0.0514  0.0260 -0.0946
 1143YOPC   C4A15534  17.216   2.380   7.677  0.3727 -0.1168  0.2209
 1143YOPC   C1B15535  16.610   3.320   6.437 -0.2974 -0.2581  0.2945
 1143YOPC   C2B15536  16.600   3.277   6.918  0.1370 -0.0087  0.3218
 1143YOPC   D3B15537  16.234   3.159   7.060 -0.0495 -0.1023  0.3940
 1143YOPC   C4B15538  16.148   3.233   7.370  0.0390 -0.2138  0.0851
 1144ERGO   ROH15539   2.145   6.783   6.331  0.1705 -0.0990  0.0904
 1144ERGO    R115540   2.281   6.934   6.529  0.1863 -0.0846  0.0677
 1144ERGO    R215541   2.210   6.929   6.795  0.1830 -0.0339  0.0654
 1144ERGO    R315542   2.471   6.862   6.831  0.1752 -0.0583  0.0816
 1144ERGO    R415543   2.362   6.886   7.103  0.1875  0.0729  0.0790
 1144ERGO    R515544   2.538   6.988   7.024  0.2011  0.0146  0.0275
 1144ERGO    C115545   2.696   6.799   7.315  0.1828  0.1121  0.1021
 1144ERGO    C215546   2.938   6.624   7.481 -0.1837  0.1526 -0.0625
 1145ERGO   ROH15547   0.700  17.571   6.092 -0.2208  0.2100 -0.0491
 1145ERGO    R115548   0.606  17.688   6.331 -0.0693  0.1040  0.0654
 1145ERGO    R215549   0.681  17.599   6.581  0.1649  0.0527 -0.0208
 1145ERGO    R315550   0.751  17.859   6.618  0.1043  0.0663  0.0009
 1145ERGO    R415551   0.707  17.754   6.889  0.2478 -0.0010 -0.0004
 1145ERGO    R515552   0.615  17.932   6.801  0.1590 -0.0101  0.0729
 1145ERGO    C115553   0.789  18.089   7.102  0.2392 -0.0197  0.0319
 1145ERGO    C215554   0.721  18.042   7.424  0.2087 -0.1681 -0.3585
 1146ERGO   ROH15555  13.369   7.590   6.153 -0.0995 -0.1023  0.1087
 1146ERGO    R115556  13.493   7.585   6.407 -0.0634  0.0235  0.0948
 1146ERGO    R215557  13.450   7.782   6.597 -0.1264  0.0598  0.0479
 1146ERGO    R315558  13.383   7.570   6.754 -0.0134  0.0712  0.1119
 1146ERGO    R415559  13.443   7.786   6.943 -0.0167  0.1192  0.0497
 1146ERGO    R515560  13.530   7.586   6.942  0.0401  0.1477  0.0609
 1146ERGO    C115561  13.376   7.589   7.291  0.1533  0.1645  0.1107
 1146ERGO    C215562  13.350   7.728   7.656 -0.2246  0.0874 -0.3624
 1147ERGO   ROH15563  14.717  18.194   6.201  0.3037 -0.1527 -0.0240
 1147ERGO    R115564  14.622  18.185   6.467  0.2039 -0.0385 -0.0543
 1147ERGO    R215565  14.663  17.968   6.633 -0.0651 -0.0701 -0.0197
 1147ERGO    R315566  14.768  18.156   6.800  0.0657 -0.1571 -0.0040
 1147ERGO    R415567  14.629  17.968   6.977 -0.0162 -0.1022 -0.0154
 1147ERGO    R515568  14.602  18.184   6.970  0.1078 -0.0870  0.0230
 1147ERGO    C115569  14.708  18.145   7.334  0.1352 -0.2023  0.0017
 1147ERGO    C215570  14.739  18.033   7.783  0.3327 -0.0865  0.2979
 1148ERGO   ROH15571  12.853   2.939   6.307  0.1183 -0.0152  0.0222
 1148ERGO    R115572  12.934   3.025   6.565  0.0136  0.0045  0.0505
 1148ERGO    R215573  12.790   2.966   6.793 -0.0226 -0.0766  0.0173
 1148ERGO    R315574  13.029   2.868   6.879  0.0008  0.0218  0.0602
 1148ERGO    R415575  12.867   2.893   7.122 -0.0838 -0.1743  0.0091
 1148ERGO    R515576  13.066   2.977   7.089 -0.1262 -0.0528  0.1145
 1148ERGO    C115577  13.136   2.759   7.394 -0.0975 -0.1387  0.0446
 1148ERGO    C215578  13.213   2.650   7.659  0.3319 -0.0766  0.1149
 1149ERGO   ROH15579  18.057   7.412   6.523  0.3741 -0.0466  0.0200
 1149ERGO    R115580  18.133   7.428   6.795  0.1972  0.0349  0.0673
 1149ERGO    R215581  18.074   7.647   6.954 -0.1005 -0.0059  0.0297
 1149ERGO    R315582  17.963   7.459   7.116 -0.0286 -0.1061 -0.0387
 1149ERGO    R415583  18.043   7.674   7.297 -0.1720 -0.1239  0.0320
 1149ERGO    R515584  18.097   7.464   7.314 -0.0684 -0.0953 -0.0177
 1149ERGO    C115585  17.921   7.514   7.649 -0.1461 -0.2866 -0.0308
 1149ERGO    C215586  17.999   7.608   8.056 -0.1978  0.2251  0.3854
 1150ERGO   ROH15587  12.889   8.404   5.922 -0.0980  0.1508  0.0534
 1150ERGO    R115588  12.908   8.478   6.194 -0.1811  0.0687  0.0813
 1150ERGO    R215589  12.690   8.567   6.340 -0.2386 -0.0433  0.0605
 1150ERGO    R315590  12.761   8.366   6.508 -0.2181 -0.0749  0.0152
 1150ERGO    R415591  12.651   8.574   6.683 -0.2627 -0.1278  0.0599
 1150ERGO    R515592  12.846   8.478   6.702 -0.2461 -0.1049  0.0480
 1150ERGO    C115593  12.695   8.390   7.041 -0.2576 -0.2067  0.0170
 1150ERGO    C215594  12.670   8.271   7.378  0.0112 -0.1732 -0.2784
 1151ERGO   ROH15595  11.521   5.332   5.787  0.0905  0.1005 -0.1501
 1151ERGO    R115596  11.621   5.420   6.036  0.0412  0.0533 -0.1148
 1151ERGO    R215597  11.510   5.631   6.175 -0.0176 -0.0110 -0.0744
 1151ERGO    R315598  11.496   5.449   6.377 -0.0038 -0.0638 -0.1192
 1151ERGO    R415599  11.536   5.706   6.512  0.1726 -0.1090 -0.0648
 1151ERGO    R515600  11.655   5.525   6.538  0.1098 -0.1740 -0.1715
 1151ERGO    C115601  11.537   5.579   6.897  0.2964 -0.2156 -0.1012
 1151ERGO    C215602  11.608   5.584   7.228 -0.2633 -0.0974  0.0136
 1152ERGO   ROH15603   2.893   8.701   6.272  0.0424  0.0400  0.0126
 1152ERGO    R115604   3.074   8.738   6.486  0.0037 -0.1749  0.0860
 1152ERGO    R215605   3.049   8.944   6.668  0.2005 -0.1117  0.0506
 1152ERGO    R315606   3.057   8.742   6.849 -0.1512 -0.1058  0.0773
 1152ERGO    R415607   3.176   8.971   6.988  0.3976 -0.3338 -0.0066
 1152ERGO    R515608   3.264   8.773   6.965 -0.0303 -0.5301 -0.0150
 1152ERGO    C115609   3.257   8.797   7.345  0.1822 -0.4574 -0.0150
 1152ERGO    C215610   3.349   8.797   7.622  0.0322 -0.1379 -0.2817
 1153ERGO   ROH15611   1.587   2.260   5.862  0.0664  0.0346 -0.0687
 1153ERGO    R115612   1.598   2.167   6.129 -0.2056 -0.1497 -0.1176
 1153ERGO    R215613   1.754   2.289   6.323 -0.0278 -0.5651  0.0079
 1153ERGO    R315614   1.519   2.300   6.459 -0.0598 -0.1858 -0.0665
 1153ERGO    R415615   1.725   2.321   6.666 -0.0821 -0.5605  0.0037
 1153ERGO    R515616   1.561   2.178   6.660 -0.3274 -0.2876 -0.0668
 1153ERGO    C115617   1.488   2.350   6.993 -0.1437 -0.2018 -0.0685
 1153ERGO    C215618   1.390   2.447   7.302  0.2835  0.0078  0.1526
 1154ERGO   ROH15619   1.531   1.220   5.755  0.0953  0.0780 -0.1054
 1154ERGO    R115620   1.654   1.159   6.002  0.1269  0.1086 -0.1161
 1154ERGO    R215621   1.860   1.310   6.108 -0.1899  0.4075  0.0645
 1154ERGO    R315622   1.696   1.323   6.324 -0.2819 -0.0657  0.0365
 1154ERGO    R415623   1.966   1.317   6.437 -0.2390  0.7445  0.0791
 1154ERGO    R515624   1.802   1.184   6.488  0.1257  0.2388  0.0612
 1154ERGO    C115625   1.873   1.333   6.831 -0.3541  0.4964  0.0614
 1154ERGO    C215626   1.994   1.375   7.190  0.0580 -0.0598  0.2076
 1155ERGO   ROH15627  18.278   5.161   6.532 -0.0068  0.0377 -0.2898
 1155ERGO    R115628  18.240   5.069   6.797  0.1349  0.0071 -0.2808
 1155ERGO    R215629  18.294   5.225   7.018  0.0091  0.0715 -0.3028
 1155ERGO    R315630  18.038   5.163   7.084  0.0811 -0.1967 -0.2469
 1155ERGO    R415631  18.149   5.287   7.326  0.0316 -0.1115 -0.2530
 1155ERGO    R515632  18.051   5.093   7.313  0.2177 -0.2185 -0.2546
 1155ERGO    C115633  17.825   5.265   7.567  0.1122 -0.4698 -0.1716
 1155ERGO    C215634  17.541   5.365   7.718 -0.2066  0.4790 -0.0514
 1156ERGO   ROH15635  14.163   1.192   6.561  0.1967  0.1110 -0.0506
 1156ERGO    R115636  14.126   1.291   6.823  0.1936  0.2680 -0.1096
 1156ERGO    R215637  14.157   1.134   7.048 -0.1008  0.3229 -0.0272
 1156ERGO    R315638  14.329   1.330   7.123  0.1037  0.1491 -0.0320
 1156ERGO    R415639  14.226   1.221   7.375 -0.1927  0.4125 -0.0310
 1156ERGO    R515640  14.225   1.430   7.314  0.1088  0.3857 -0.1487
 1156ERGO    C115641  14.428   1.456   7.636 -0.0542  0.3015 -0.0378
 1156ERGO    C215642  14.482   1.332   7.940 -0.0416  0.0076 -0.0599
 1157ERGO   ROH15643   2.626  13.735   6.230  0.0486 -0.1882 -0.0435
 1157ERGO    R115644   2.616  13.922   6.442  0.0292 -0.1341 -0.0917
 1157ERGO    R215645   2.402  13.939   6.615 -0.0180 -0.0434 -0.1574
 1157ERGO    R315646   2.594  13.909   6.805 -0.0792 -0.0415 -0.0948
 1157ERGO    R415647   2.373  14.045   6.943 -0.1058 -0.0054 -0.1770
 1157ERGO    R515648   2.581  14.110   6.935 -0.0978 -0.0272 -0.1203
 1157ERGO    C115649   2.536  14.078   7.312 -0.2144  0.0185 -0.1296
 1157ERGO    C215650   2.616  14.109   7.661 -0.1375  0.2108 -0.0298
 1158ERGO   ROH15651   2.780  15.440   6.003 -0.1066  0.0602  0.0723
 1158ERGO    R115652   2.813  15.423   6.283 -0.0704  0.0963  0.0708
 1158ERGO    R215653   3.050  15.345   6.402 -0.0837  0.0142  0.0491
 1158ERGO    R315654   3.023  15.581   6.535  0.0373  0.0508  0.0090
 1158ERGO    R415655   3.155  15.403   6.726 -0.0147  0.0318  0.0234
 1158ERGO    R515656   2.973  15.517   6.760  0.0409  0.1168  0.0274
 1158ERGO    C115657   3.190  15.657   7.040  0.1391  0.0763 -0.0291
 1158ERGO    C215658   3.280  15.698   7.213 -0.1106 -0.2291 -0.2750
 1159ERGO   ROH15659  10.740   2.458   5.778 -0.1220  0.0521 -0.0309
 1159ERGO    R115660  10.849   2.418   6.036 -0.2855 -0.0878  0.0175
 1159ERGO    R215661  11.006   2.606   6.162 -0.0219 -0.3222  0.0454
 1159ERGO    R315662  10.824   2.578   6.362 -0.1492  0.0073 -0.0171
 1159ERGO    R415663  11.085   2.571   6.497 -0.2050 -0.3057  0.0914
 1159ERGO    R515664  10.926   2.422   6.513 -0.4243 -0.0823  0.0850
 1159ERGO    C115665  10.959   2.525   6.879 -0.4311  0.0133  0.0596
 1159ERGO    C215666  10.770   2.463   7.184  0.0411 -0.1566 -0.1196
 1160ERGO   ROH15667  16.783   3.994   6.473  0.2511 -0.1492  0.0939
 1160ERGO    R115668  16.666   3.797   6.639 -0.0566 -0.0981 -0.0562
 1160ERGO    R215669  16.697   3.796   6.914 -0.0703 -0.3420 -0.0551
 1160ERGO    R315670  16.425   3.790   6.911 -0.0867  0.0673 -0.0768
 1160ERGO    R415671  16.495   3.830   7.192 -0.0392 -0.1230 -0.0570
 1160ERGO    R515672  16.366   3.674   7.112 -0.2726  0.0907 -0.1145
 1160ERGO    C115673  16.122   3.844   7.352 -0.0364  0.3887 -0.0786
 1160ERGO    C215674  15.740   4.020   7.563 -0.0496  0.2445 -0.1085
 1161ERGO   ROH15675   3.608   6.834   6.252 -0.2217 -0.0681 -0.1636
 1161ERGO    R115676   3.736   6.883   6.500 -0.0444 -0.2064 -0.2260
 1161ERGO    R215677   3.595   6.931   6.733  0.1221 -0.0730 -0.1545
 1161ERGO    R315678   3.746   6.725   6.828 -0.0347 -0.2297 -0.2363
 1161ERGO    R415679   3.624   6.844   7.067  0.4158  0.0791 -0.1364
 1161ERGO    R515680   3.836   6.808   7.034  0.3378 -0.2288 -0.3876
 1161ERGO    C115681   3.782   6.601   7.350  0.4396  0.0205 -0.2026
 1161ERGO    C215682   3.671   6.358   7.490 -0.0462 -0.1358 -0.2366
 1162ERGO   ROH15683  11.877   3.410   6.191 -0.0355  0.0316  0.0521
 1162ERGO    R115684  11.849   3.270   6.436  0.2112  0.1183  0.1340
 1162ERGO    R215685  11.977   3.349   6.668  0.0921  0.4716  0.0904
 1162ERGO    R315686  11.725   3.344   6.770  0.0954  0.1029  0.0938
 1162ERGO    R415687  11.898   3.390   7.002  0.0301  0.2967  0.0983
 1162ERGO    R515688  11.748   3.234   6.981  0.2465  0.0931  0.0703
 1162ERGO    C115689  11.615   3.411   7.292 -0.0029 -0.1513  0.1060
 1162ERGO    C215690  11.630   3.728   7.491 -0.1600  0.1653 -0.1023
 1163ERGO   ROH15691  11.274   1.608   6.258  0.0450 -0.4346 -0.0844
 1163ERGO    R115692  11.191   1.584   6.528 -0.0476 -0.3045 -0.1001
 1163ERGO    R215693  11.253   1.364   6.684  0.0763 -0.1391  0.0903
 1163ERGO    R315694  11.352   1.552   6.853 -0.1542  0.0745 -0.0055
 1163ERGO    R415695  11.247   1.342   7.028  0.3099 -0.0823  0.0994
 1163ERGO    R515696  11.198   1.555   7.036 -0.0596 -0.1600  0.0807
 1163ERGO    C115697  11.337   1.506   7.388  0.2296  0.1514  0.0148
 1163ERGO    C215698  11.412   1.345   7.637  0.0394  0.4413 -0.0165
 1164ERGO   ROH15699   7.867  11.203   6.482  0.1622 -0.0199  0.0654
 1164ERGO    R115700   7.902  11.246   6.760  0.0645  0.1640  0.0518
 1164ERGO    R215701   7.844  11.486   6.882 -0.2315  0.1680 -0.0804
 1164ERGO    R315702   7.691  11.331   7.044 -0.0875  0.0727 -0.0338
 1164ERGO    R415703   7.761  11.564   7.208 -0.1298  0.0786 -0.0328
 1164ERGO    R515704   7.790  11.354   7.260 -0.0075  0.0882 -0.0745
 1164ERGO    C115705   7.567  11.463   7.550  0.0647 -0.0629  0.0388
 1164ERGO    C215706   7.312  11.387   7.734 -0.0072  0.3030 -0.0554
 1165ERGO   ROH15707  18.048  16.815   6.000 -0.1577 -0.0724 -0.0893
 1165ERGO    R115708  18.010  16.757   6.275 -0.1234 -0.1976 -0.1104
 1165ERGO    R215709  18.122  16.535   6.396  0.1022 -0.1194 -0.1675
 1165ERGO    R315710  18.222  16.721   6.569 -0.1115 -0.0627 -0.1025
 1165ERGO    R415711  18.188  16.479   6.731  0.2110 -0.1733 -0.1974
 1165ERGO    R515712  18.108  16.677   6.775 -0.0346 -0.2899 -0.1069
 1165ERGO    C115713  18.319  16.620   7.088  0.0737 -0.1515 -0.1538
 1165ERGO    C215714  18.434  16.824   7.483 -0.1106 -0.2390  0.0803
 1166ERGO   ROH15715  12.944  16.438   6.442 -0.2374 -0.2062 -0.0430
 1166ERGO    R115716  13.010  16.340   6.699 -0.0849 -0.1546 -0.0606
 1166ERGO    R215717  13.189  16.467   6.866  0.0144 -0.1190 -0.1894
 1166ERGO    R315718  12.983  16.458   7.042  0.1163 -0.0854 -0.0680
 1166ERGO    R415719  13.222  16.487   7.209  0.2414 -0.3860 -0.1926
 1166ERGO    R515720  13.069  16.333   7.228  0.1364 -0.2817 -0.2083
 1166ERGO    C115721  13.047  16.490   7.575  0.4691 -0.5099 -0.0805
 1166ERGO    C215722  12.912  16.682   7.863 -0.0281  0.3242  0.2944
 1167ERGO   ROH15723   8.353   9.247   6.710 -0.1329  0.4485  0.0224
 1167ERGO    R115724   8.376   9.267   6.992  0.0835  0.5605 -0.0038
 1167ERGO    R215725   8.461   9.057   7.149 -0.3751  0.4291  0.0575
 1167ERGO    R315726   8.642   9.238   7.238  0.1671  0.0146 -0.1372
 1167ERGO    R415727   8.594   9.061   7.468 -0.7716  0.6254  0.2293
 1167ERGO    R515728   8.578   9.279   7.466 -0.0149  0.7314 -0.2795
 1167ERGO    C115729   8.842   9.234   7.738 -0.4935  0.3507  0.1467
 1167ERGO    C215730   8.882   9.019   8.049 -0.1931  0.0573 -0.1974
 1168ERGO   ROH15731   3.509  13.142   6.160 -0.0164  0.1428 -0.1166
 1168ERGO    R115732   3.598  13.259   6.402  0.0142  0.0921 -0.1041
 1168ERGO    R215733   3.463  13.466   6.526 -0.0043  0.0203 -0.0115
 1168ERGO    R315734   3.468  13.298   6.740  0.0889 -0.0384 -0.0582
 1168ERGO    R415735   3.380  13.556   6.849  0.0400 -0.0844  0.0299
 1168ERGO    R515736   3.547  13.434   6.920  0.0926 -0.0610 -0.0386
 1168ERGO    C115737   3.337  13.450   7.238  0.1533 -0.2007  0.0102
 1168ERGO    C215738   3.153  13.386   7.455  0.1034 -0.1336  0.1334
 1169ERGO   ROH15739  10.478  17.419   6.278 -0.0139  0.0352 -0.1114
 1169ERGO    R115740  10.523  17.535   6.532 -0.1260  0.2032 -0.1668
 1169ERGO    R215741  10.333  17.691   6.660 -0.4250 -0.2063 -0.0881
 1169ERGO    R315742  10.371  17.514   6.862  0.1221 -0.0811 -0.0673
 1169ERGO    R415743  10.365  17.774   6.994 -0.5930 -0.0628 -0.1068
 1169ERGO    R515744  10.521  17.624   7.012 -0.1525  0.3735 -0.1123
 1169ERGO    C115745  10.419  17.656   7.378 -0.1773  0.1385 -0.0980
 1169ERGO    C215746  10.411  17.765   7.704 -0.1934  0.0487  0.2190
 1170ERGO   ROH15747   0.232   2.163   5.648  0.0556  0.0632 -0.0251
 1170ERGO    R115748   0.065   2.065   5.854  0.0129  0.1241 -0.0306
 1170ERGO    R215749   0.156   1.895   6.052 -0.0507  0.1062 -0.0163
 1170ERGO    R315750   0.054   2.085   6.217 -0.0037  0.1459 -0.0324
 1170ERGO    R415751   0.174   1.887   6.397 -0.0736  0.1206 -0.0148
 1170ERGO    R515752  -0.031   1.962   6.405 -0.0515  0.1819 -0.0305
 1170ERGO    C115753   0.088   2.061   6.753 -0.0428  0.1662 -0.0289
 1170ERGO    C215754   0.136   2.025   7.124 -0.3053  0.0198 -0.0515
 1171ERGO   ROH15755  18.281   8.639   6.535  0.2081  0.1093  0.0540
 1171ERGO    R115756  18.211   8.797   6.759  0.1213  0.0753  0.0515
 1171ERGO    R215757  18.069   8.695   6.974  0.0979  0.0242  0.0145
 1171ERGO    R315758  18.279   8.792   7.117  0.0450  0.0627  0.0655
 1171ERGO    R415759  18.046   8.840   7.287 -0.0322  0.2286 -0.0882
 1171ERGO    R515760  18.193   8.988   7.224  0.0363  0.1519 -0.1035
 1171ERGO    C115761  18.229   9.016   7.603 -0.1576  0.3838 -0.1001
 1171ERGO    C215762  18.082   9.022   7.986 -0.1280 -0.0810  0.1624
 1172ERGO   ROH15763   8.002   4.971   5.949  0.3130  0.0935  0.1236
 1172ERGO    R115764   8.013   4.856   6.207  0.0833 -0.0187  0.0865
 1172ERGO    R215765   8.083   5.000   6.432  0.2100 -0.1901  0.1636
 1172ERGO    R315766   7.847   4.905   6.527  0.0512  0.0869  0.0528
 1172ERGO    R415767   7.985   5.013   6.763 -0.0007  0.0516  0.0937
 1172ERGO    R515768   7.902   4.812   6.741 -0.1854  0.1252  0.1310
 1172ERGO    C115769   7.706   4.933   7.045 -0.2724  0.4524 -0.0510
 1172ERGO    C215770   7.713   4.923   7.336  0.1409 -0.2156  0.2980
 1173ERGO   ROH15771   5.015  13.540   6.284  0.2359 -0.0422 -0.0061
 1173ERGO    R115772   5.109  13.641   6.531  0.1831 -0.1263  0.0495
 1173ERGO    R215773   4.944  13.764   6.714  0.1880  0.0403 -0.0533
 1173ERGO    R315774   5.045  13.578   6.884 -0.0952 -0.0568  0.0131
 1173ERGO    R415775   4.919  13.779   7.058  0.3432  0.2856 -0.0509
 1173ERGO    R515776   5.125  13.706   7.070  0.2167 -0.0949 -0.0904
 1173ERGO    C115777   5.000  13.612   7.419  0.1676  0.3374  0.0129
 1173ERGO    C215778   4.819  13.631   7.689  0.0436  0.1256  0.4591
 1174ERGO   ROH15779  18.371   9.973   6.334 -0.0463  0.1943 -0.0237
 1174ERGO    R115780  18.192  10.067   6.532 -0.2246  0.0415 -0.1084
 1174ERGO    R215781  17.933   9.974   6.555 -0.0934 -0.3409 -0.0991
 1174ERGO    R315782  18.008   9.924   6.811 -0.0547 -0.0783 -0.0567
 1174ERGO    R415783  17.716   9.930   6.821 -0.0574 -0.2217 -0.0497
 1174ERGO    R515784  17.852  10.046   6.945 -0.1113 -0.0419 -0.1559
 1174ERGO    C115785  17.661   9.857   7.216 -0.0002  0.0943  0.0189
 1174ERGO    C215786  17.623   9.545   7.510  0.0078  0.4088  0.3004
 1175ERGO   ROH15787   5.977  10.830   6.481 -0.2735  0.0662  0.0902
 1175ERGO    R115788   5.981  10.648   6.698 -0.1865  0.0975  0.1141
 1175ERGO    R215789   6.043  10.726   6.956 -0.2252  0.1619  0.1003
 1175ERGO    R315790   5.805  10.610   7.014 -0.1686  0.0520  0.1199
 1175ERGO    R415791   5.936  10.640   7.273 -0.1587  0.1234  0.1132
 1175ERGO    R515792   5.854  10.456   7.191 -0.0805  0.0788  0.1230
 1175ERGO    C115793   5.650  10.481   7.512 -0.0668 -0.0021  0.1391
 1175ERGO    C215794   5.449  10.401   7.708  0.1038  0.1370  0.0159
 1176ERGO   ROH15795  11.746  16.143   6.381  0.0169  0.1421  0.1974
 1176ERGO    R115796  11.681  16.239   6.639 -0.2071  0.0090  0.1934
 1176ERGO    R215797  11.489  16.120   6.798 -0.0397 -0.3429  0.1422
 1176ERGO    R315798  11.692  16.111   6.979 -0.0555 -0.0071  0.1831
 1176ERGO    R415799  11.449  16.079   7.139 -0.0441 -0.2539  0.1527
 1176ERGO    R515800  11.606  16.226   7.171 -0.2366 -0.0359  0.1208
 1176ERGO    C115801  11.616  16.046   7.507 -0.0612  0.1133  0.1972
 1176ERGO    C215802  11.631  16.127   7.893  0.2958  0.2143 -0.1937
 1177ERGO   ROH15803  13.370  11.159   6.121 -0.0364  0.0341  0.0973
 1177ERGO    R115804  13.445  10.973   6.321  0.0672  0.0700  0.0928
 1177ERGO    R215805  13.652  11.020   6.497 -0.0017  0.2118  0.1409
 1177ERGO    R315806  13.462  10.969   6.684 -0.0023  0.0469  0.0954
 1177ERGO    R415807  13.717  10.952   6.829 -0.0206  0.1984  0.1414
 1177ERGO    R515808  13.560  10.800   6.823  0.0868  0.0914  0.0849
 1177ERGO    C115809  13.575  10.863   7.199 -0.0321  0.0359  0.0989
 1177ERGO    C215810  13.756  10.897   7.399 -0.0976 -0.0905 -0.3023
 1178ERGO   ROH15811  16.823  12.746   6.252 -0.0827 -0.0513  0.0893
 1178ERGO    R115812  16.789  12.655   6.518  0.0999 -0.1374  0.0845
 1178ERGO    R215813  16.998  12.639   6.698  0.1466  0.2325  0.0664
 1178ERGO    R315814  16.835  12.792   6.852 -0.1290 -0.0753  0.0931
 1178ERGO    R415815  16.974  12.618   7.042  0.1695  0.1141  0.0618
 1178ERGO    R515816  16.759  12.644   7.024  0.1162 -0.2512  0.0587
 1178ERGO    C115817  16.807  12.750   7.387 -0.0761 -0.2437  0.0842
 1178ERGO    C215818  16.822  12.868   7.834 -0.0708 -0.0006  0.0537
 1179ERGO   ROH15819   3.250  14.816   6.587 -0.2562 -0.0752 -0.0515
 1179ERGO    R115820   3.070  14.961   6.751 -0.1519 -0.0324  0.0270
 1179ERGO    R215821   3.014  14.887   7.012 -0.0942 -0.0475  0.0358
 1179ERGO    R315822   3.088  15.143   7.066  0.0152 -0.0811  0.0469
 1179ERGO    R415823   2.897  15.074   7.278 -0.0291 -0.0069  0.0354
 1179ERGO    R515824   2.887  15.247   7.145  0.0540  0.0029  0.0389
 1179ERGO    C115825   2.898  15.423   7.483  0.1115 -0.0149  0.0456
 1179ERGO    C215826   2.858  15.375   7.732  0.3446  0.1045 -0.2513
 1180ERGO   ROH15827  15.561   2.111   6.272  0.3718  0.1339 -0.0145
 1180ERGO    R115828  15.682   2.023   6.512  0.3773  0.1096 -0.0257
 1180ERGO    R215829  15.802   2.196   6.690  0.1872  0.1208  0.0989
 1180ERGO    R315830  15.634   2.080   6.869  0.2294 -0.1101 -0.0092
 1180ERGO    R415831  15.897   2.071   6.998  0.1885  0.0831  0.0828
 1180ERGO    R515832  15.763   1.902   6.965  0.3582 -0.0291 -0.0343
 1180ERGO    C115833  15.793   1.888   7.345  0.2289 -0.1556 -0.0282
 1180ERGO    C215834  15.678   1.889   7.579 -0.1330 -0.1283 -0.0521
 1181ERGO   ROH15835  12.141   0.919   6.081 -0.0456  0.2247  0.0045
 1181ERGO    R115836  12.033   0.936   6.342 -0.0671  0.1270  0.0030
 1181ERGO    R215837  12.141   0.801   6.558 -0.0991  0.0244 -0.0409
 1181ERGO    R315838  12.147   1.049   6.669 -0.0826 -0.0208  0.0592
 1181ERGO    R415839  12.226   0.869   6.886  0.1390 -0.0836 -0.0787
 1181ERGO    R515840  12.066   1.017   6.892  0.1032 -0.1329  0.1094
 1181ERGO    C115841  12.282   1.142   7.180  0.2930 -0.1889 -0.0067
 1181ERGO    C215842  12.345   1.208   7.450  0.0462  0.1098 -0.0111
 1182ERGO   ROH15843   3.487   5.637   6.195 -0.1566  0.0623 -0.1657
 1182ERGO    R115844   3.517   5.665   6.475  0.0526 -0.0901 -0.1699
 1182ERGO    R215845   3.308   5.734   6.641  0.2515  0.1837 -0.0188
 1182ERGO    R315846   3.379   5.507   6.773 -0.0282  0.0125 -0.1531
 1182ERGO    R415847   3.279   5.688   6.982  0.2824  0.0500 -0.0348
 1182ERGO    R515848   3.473   5.586   6.979  0.1414 -0.2220 -0.1379
 1182ERGO    C115849   3.330   5.448   7.305  0.0376 -0.1885 -0.1702
 1182ERGO    C215850   3.157   5.676   7.657 -0.0865 -0.0211 -0.3037
 1183ERGO   ROH15851   0.694   5.460   6.428 -0.3079  0.1888 -0.0522
 1183ERGO    R115852   0.789   5.543   6.681 -0.2114  0.1989 -0.0912
 1183ERGO    R215853   0.643   5.708   6.848 -0.1888  0.1298 -0.0020
 1183ERGO    R315854   0.684   5.508   7.027 -0.0261  0.1266 -0.0411
 1183ERGO    R415855   0.625   5.744   7.191 -0.1789  0.0577  0.0060
 1183ERGO    R515856   0.799   5.613   7.209 -0.0823  0.1785 -0.0352
 1183ERGO    C115857   0.653   5.577   7.560 -0.0203  0.0128 -0.0260
 1183ERGO    C215858   0.487   5.792   7.953  0.1413  0.1026 -0.1790
 1184ERGO   ROH15859  13.792   9.743   5.975 -0.1877  0.1296  0.0647
 1184ERGO    R115860  13.816   9.744   6.257 -0.1011  0.1488  0.0554
 1184ERGO    R215861  13.606   9.808   6.424 -0.1238 -0.1187  0.1145
 1184ERGO    R315862  13.664   9.566   6.536  0.2055 -0.0513  0.1056
 1184ERGO    R415863  13.565   9.729   6.758 -0.4508 -0.2932  0.0391
 1184ERGO    R515864  13.753   9.620   6.751 -0.1996  0.0775  0.2619
 1184ERGO    C115865  13.595   9.457   7.057 -0.3322 -0.3316 -0.0134
 1184ERGO    C215866  13.410   9.443   7.357  0.0645  0.0559  0.2071
 1185ERGO   ROH15867   9.840   5.632   5.587  0.0730  0.0076 -0.0203
 1185ERGO    R115868   9.797   5.584   5.863 -0.0609 -0.0907 -0.0562
 1185ERGO    R215869   9.964   5.426   6.014 -0.0370 -0.0102  0.0077
 1185ERGO    R315870   9.977   5.646   6.173 -0.2901 -0.0375  0.0679
 1185ERGO    R415871  10.043   5.421   6.351  0.0120 -0.0078 -0.0046
 1185ERGO    R515872   9.888   5.572   6.384 -0.1722 -0.2077  0.0581
 1185ERGO    C115873  10.101   5.625   6.696 -0.1972 -0.0321  0.0449
 1185ERGO    C215874  10.245   5.523   6.964 -0.1934 -0.1456  0.0693
 1186ERGO   ROH15875   0.979   7.214   6.691 -0.2249  0.0370  0.1519
 1186ERGO    R115876   1.052   7.316   6.945 -0.0639  0.0060  0.1201
 1186ERGO    R215877   0.915   7.522   7.067  0.0550  0.0433  0.2029
 1186ERGO    R315878   0.896   7.344   7.273  0.1112  0.0348  0.2000
 1186ERGO    R415879   0.858   7.608   7.397 -0.1060 -0.0012  0.1872
 1186ERGO    R515880   1.003   7.455   7.456 -0.0249  0.1025  0.2330
 1186ERGO    C115881   0.807   7.492   7.782 -0.1470 -0.0351  0.1753
 1186ERGO    C215882   0.664   7.657   8.024  0.2894 -0.1447  0.1754
 1187ERGO   ROH15883   0.491  15.562   6.364  0.1844  0.1579 -0.2379
 1187ERGO    R115884   0.582  15.656   6.615  0.1113  0.1631 -0.2129
 1187ERGO    R215885   0.410  15.745   6.812  0.0502  0.1180 -0.2445
 1187ERGO    R315886   0.540  15.561   6.964  0.0548  0.1358 -0.2272
 1187ERGO    R415887   0.447  15.763   7.155 -0.2205 -0.0088 -0.2057
 1187ERGO    R515888   0.652  15.691   7.131 -0.1549  0.1346 -0.0841
 1187ERGO    C115889   0.592  15.601   7.497 -0.3737 -0.0659 -0.1667
 1187ERGO    C215890   0.766  15.380   7.624 -0.0261  0.2270 -0.4152
 1188ERGO   ROH15891  13.010  17.427   6.510  0.2121  0.2583  0.1104
 1188ERGO    R115892  12.964  17.404   6.788  0.1754  0.2680  0.1057
 1188ERGO    R215893  12.878  17.616   6.943 -0.0911  0.2126  0.0397
 1188ERGO    R315894  12.680  17.443   7.013  0.0775  0.0092  0.0330
 1188ERGO    R415895  12.754  17.578   7.263 -0.0974  0.1302  0.0274
 1188ERGO    R515896  12.746  17.363   7.229  0.1357  0.1094  0.0560
 1188ERGO    C115897  12.497  17.394   7.516  0.0574 -0.1091  0.0141
 1188ERGO    C215898  12.303  17.534   7.813 -0.1977 -0.1506 -0.0079
 1189ERGO   ROH15899   3.054  15.844   6.156  0.2395 -0.2211  0.1078
 1189ERGO    R115900   3.031  16.020   6.376  0.1254 -0.0312 -0.0529
 1189ERGO    R215901   2.858  15.973   6.586  0.1005  0.0894 -0.0426
 1189ERGO    R315902   3.084  16.003   6.735  0.0607  0.3108 -0.0245
 1189ERGO    R415903   2.867  16.100   6.908 -0.0412  0.1318 -0.0555
 1189ERGO    R515904   3.049  16.208   6.855 -0.1350  0.2916 -0.0490
 1189ERGO    C115905   3.083  16.201   7.235 -0.1611  0.3644 -0.0459
 1189ERGO    C215906   3.204  16.180   7.529  0.0460  0.1455 -0.0976
 1190ERGO   ROH15907  16.641  11.305   6.555  0.0303 -0.2567  0.3843
 1190ERGO    R115908  16.376  11.390   6.606  0.0376 -0.1194  0.2093
 1190ERGO    R215909  16.190  11.231   6.735 -0.1541 -0.0504  0.0362
 1190ERGO    R315910  16.168  11.446   6.900 -0.1467 -0.0784  0.0717
 1190ERGO    R415911  15.936  11.279   6.964 -0.2386  0.0055 -0.0699
 1190ERGO    R515912  15.933  11.490   6.909 -0.1302  0.0143 -0.0249
 1190ERGO    C115913  15.767  11.509   7.252 -0.2808  0.0118 -0.0982
 1190ERGO    C215914  15.487  11.469   7.431  0.1576  0.1670  0.1471
 1191ERGO   ROH15915   9.118  16.764   6.415 -0.1667 -0.2304  0.0944
 1191ERGO    R115916   9.059  16.912   6.649 -0.0896 -0.2038  0.0968
 1191ERGO    R215917   8.973  16.793   6.882  0.0356 -0.1812  0.1529
 1191ERGO    R315918   9.183  16.926   6.991  0.0586 -0.1252  0.0415
 1191ERGO    R415919   8.997  16.887   7.214  0.2368 -0.2893  0.1705
 1191ERGO    R515920   9.084  17.076   7.149  0.1046 -0.2247  0.1699
 1191ERGO    C115921   9.210  17.068   7.509  0.3755 -0.2998  0.0763
 1191ERGO    C215922   9.172  17.047   7.881 -0.3164 -0.0040 -0.4521
 1192ERGO   ROH15923  15.352   8.518   6.014 -0.0359 -0.1388 -0.0626
 1192ERGO    R115924  15.295   8.458   6.284 -0.1038 -0.0360 -0.0540
 1192ERGO    R215925  15.482   8.484   6.486 -0.1022 -0.1189 -0.0474
 1192ERGO    R315926  15.290   8.638   6.600 -0.0086  0.0440 -0.0960
 1192ERGO    R415927  15.471   8.570   6.821  0.0077  0.0847 -0.0926
 1192ERGO    R515928  15.255   8.540   6.816 -0.0125  0.1840 -0.0288
 1192ERGO    C115929  15.283   8.764   7.123  0.1596  0.3560 -0.1647
 1192ERGO    C215930  15.212   8.725   7.488 -0.1024  0.2042 -0.0341
 1193ERGO   ROH15931   7.850  10.811   6.687  0.0303 -0.1473  0.0868
 1193ERGO    R115932   8.028  10.798   6.908  0.1616 -0.2408 -0.0222
 1193ERGO    R215933   7.945  10.838   7.168  0.3778  0.0053  0.0156
 1193ERGO    R315934   8.062  10.596   7.208  0.1098 -0.1193  0.0654
 1193ERGO    R415935   8.102  10.740   7.460  0.6059  0.0381 -0.0942
 1193ERGO    R515936   8.256  10.644   7.340  0.3378 -0.2639 -0.2095
 1193ERGO    C115937   8.303  10.455   7.667  0.4869 -0.0598 -0.1113
 1193ERGO    C215938   8.220  10.097   7.803  0.3460 -0.0041 -0.1419
 1194ERGO   ROH15939   8.674   7.665   6.441  0.2002  0.0475 -0.0140
 1194ERGO    R115940   8.574   7.470   6.619  0.0558  0.0862 -0.0522
 1194ERGO    R215941   8.715   7.383   6.840 -0.0175 -0.0451 -0.0581
 1194ERGO    R315942   8.489   7.454   6.973  0.0207  0.0851 -0.0600
 1194ERGO    R415943   8.659   7.326   7.176 -0.0933 -0.1134 -0.0821
 1194ERGO    R515944   8.453   7.273   7.127 -0.1317  0.0592 -0.1222
 1194ERGO    C115945   8.413   7.358   7.497 -0.1017 -0.0308 -0.0977
 1194ERGO    C215946   8.529   7.299   7.853 -0.0577  0.0950  0.0250
 1195ERGO   ROH15947   0.137  11.195   6.474  0.1564 -0.1937  0.1331
 1195ERGO    R115948   0.035  11.368   6.673  0.0493 -0.1089  0.0065
 1195ERGO    R215949  -0.215  11.334   6.786 -0.0191 -0.0525 -0.1201
 1195ERGO    R315950  -0.075  11.338   7.019 -0.1487  0.0333 -0.0428
 1195ERGO    R415951  -0.346  11.424   7.093 -0.1792  0.0840 -0.2270
 1195ERGO    R515952  -0.159  11.530   7.135 -0.1971  0.0858 -0.1673
 1195ERGO    C115953  -0.290  11.482   7.490 -0.3942  0.2441 -0.2166
 1195ERGO    C215954  -0.454  11.532   7.804  0.0669  0.0699  0.1103
 1196ERGO   ROH15955  16.532   1.925   6.247  0.0005 -0.1924  0.0677
 1196ERGO    R115956  16.582   1.886   6.523  0.0064 -0.1199  0.0761
 1196ERGO    R215957  16.638   1.637   6.630  0.0683 -0.0779  0.1274
 1196ERGO    R315958  16.859   1.764   6.726  0.0344 -0.0038  0.1113
 1196ERGO    R415959  16.752   1.618   6.956  0.1232 -0.0950  0.1082
 1196ERGO    R515960  16.798   1.830   6.948  0.0368 -0.0677  0.1365
 1196ERGO    C115961  17.025   1.725   7.236  0.1236 -0.0352  0.0820
 1196ERGO    C215962  17.251   1.457   7.406 -0.0754  0.0883 -0.2570
 1197ERGO   ROH15963  10.076  16.167   6.276  0.2863 -0.0949 -0.0170
 1197ERGO    R115964   9.953  16.169   6.531  0.2149 -0.1760 -0.0510
 1197ERGO    R215965  10.049  16.022   6.744  0.4287  0.1116  0.0532
 1197ERGO    R315966  10.047  16.263   6.870 -0.0390  0.1840 -0.0732
 1197ERGO    R415967   9.925  16.078   7.061  0.4209  0.0033  0.0700
 1197ERGO    R515968   9.840  16.265   6.989 -0.0128 -0.2025 -0.0011
 1197ERGO    C115969   9.850  16.336   7.364 -0.0226  0.0082 -0.0390
 1197ERGO    C215970   9.739  16.381   7.698  0.1324 -0.0568 -0.2057
 1198ERGO   ROH15971   9.901   0.839   5.927 -0.1697 -0.1765  0.0062
 1198ERGO    R115972  10.007   0.824   6.189 -0.1510  0.0091  0.0096
 1198ERGO    R215973   9.933   1.000   6.389 -0.3447 -0.0200 -0.0391
 1198ERGO    R315974   9.875   0.771   6.524 -0.0898 -0.0495  0.0258
 1198ERGO    R415975   9.931   0.969   6.733 -0.4169  0.1157 -0.0262
 1198ERGO    R515976  10.025   0.774   6.711 -0.1480  0.2227  0.0777
 1198ERGO    C115977   9.877   0.737   7.061 -0.2196  0.1671  0.0422
 1198ERGO    C215978   9.895   0.580   7.372 -0.2474  0.4129 -0.1279
 1199ERGO   ROH15979  12.161   7.713   6.248  0.1213 -0.2431 -0.0117
 1199ERGO    R115980  12.125   7.594   6.502 -0.0573 -0.2048 -0.0180
 1199ERGO    R215981  12.042   7.738   6.722  0.0599 -0.1116 -0.0349
 1199ERGO    R315982  11.850   7.546   6.735 -0.1569  0.0984 -0.0677
 1199ERGO    R415983  11.914   7.606   7.015  0.1502 -0.2433 -0.0538
 1199ERGO    R515984  11.915   7.409   6.921 -0.1572 -0.1597 -0.2505
 1199ERGO    C115985  11.659   7.349   7.197 -0.0007 -0.1228 -0.0957
 1199ERGO    C215986  11.629   7.312   7.605 -0.0116  0.0170 -0.0305
 1200ERGO   ROH15987  15.949  13.161   6.096 -0.1818  0.4298 -0.2094
 1200ERGO    R115988  16.031  13.249   6.353 -0.1031  0.1712 -0.1426
 1200ERGO    R215989  15.913  13.464   6.481  0.1489  0.2457 -0.0283
 1200ERGO    R315990  15.878  13.284   6.681 -0.1058  0.1622 -0.1431
 1200ERGO    R415991  16.004  13.515   6.810  0.1814 -0.0771  0.0160
 1200ERGO    R515992  16.074  13.308   6.818 -0.0855 -0.1748 -0.1033
 1200ERGO    C115993  16.025  13.376   7.190 -0.0385 -0.3434 -0.0660
 1200ERGO    C215994  16.031  13.362   7.419 -0.4082  0.0838  0.0272
 1201ERGO   ROH15995   7.267   9.039   6.401  0.2819 -0.1139 -0.0855
 1201ERGO    R115996   7.273   8.909   6.653  0.1389 -0.0568 -0.0511
 1201ERGO    R215997   7.496   8.774   6.746  0.0492 -0.1406  0.0563
 1201ERGO    R315998   7.465   8.938   6.961  0.0528 -0.0707  0.0028
 1201ERGO    R415999   7.612   8.706   7.064 -0.0760 -0.0950  0.1123
 1201ERGO    R516000   7.427   8.789   7.144 -0.0622  0.0010  0.0336
 1201ERGO    C116001   7.652   8.820   7.451 -0.1457 -0.0026  0.0947
 1201ERGO    C216002   7.890   8.674   7.582  0.3917 -0.0258  0.2626
 1202ERGO   ROH16003  13.558   6.594   6.087  0.0451  0.1309  0.1639
 1202ERGO    R116004  13.555   6.666   6.361  0.0327  0.0466  0.1861
 1202ERGO    R216005  13.321   6.678   6.509  0.0121  0.1158  0.1487
 1202ERGO    R316006  13.455   6.509   6.674 -0.1004 -0.0035  0.1193
 1202ERGO    R416007  13.257   6.640   6.846 -0.0064  0.1057  0.1440
 1202ERGO    R516008  13.472   6.629   6.881 -0.0129 -0.0480  0.1379
 1202ERGO    C116009  13.345   6.459   7.198 -0.1228 -0.0122  0.1137
 1202ERGO    C216010  13.175   6.402   7.416 -0.2796 -0.1655 -0.0949
 1203ERGO   ROH16011   2.017  10.738   6.410  0.1846 -0.1230 -0.0881
 1203ERGO    R116012   2.027  10.660   6.682  0.1240 -0.1194 -0.0845
 1203ERGO    R216013   2.265  10.631   6.820  0.0905 -0.0270 -0.0047
 1203ERGO    R316014   2.148  10.804   6.994 -0.0356 -0.0721 -0.0436
 1203ERGO    R416015   2.295  10.614   7.164  0.0031  0.0003  0.0042
 1203ERGO    R516016   2.083  10.667   7.180 -0.0251 -0.0938 -0.0561
 1203ERGO    C116017   2.202  10.767   7.528 -0.1660 -0.0259 -0.0271
 1203ERGO    C216018   2.397  10.666   7.775 -0.0156  0.2379 -0.1916
 1204ERGO   ROH16019  13.226  13.637   6.318  0.0296 -0.0339 -0.1014
 1204ERGO    R116020  13.334  13.603   6.578 -0.1535  0.0254 -0.0153
 1204ERGO    R216021  13.602  13.640   6.633 -0.1308 -0.2738  0.0995
 1204ERGO    R316022  13.507  13.812   6.821 -0.0201 -0.0040 -0.0843
 1204ERGO    R416023  13.717  13.660   6.958 -0.3014 -0.1853  0.1551
 1204ERGO    R516024  13.511  13.685   7.024 -0.3119  0.1391  0.0151
 1204ERGO    C116025  13.694  13.833   7.324 -0.2969  0.1195  0.0149
 1204ERGO    C216026  13.881  13.931   7.469 -0.2010  0.2277  0.1008
 1205ERGO   ROH16027  15.284  14.751   6.329  0.1396 -0.1113 -0.0020
 1205ERGO    R116028  15.271  14.575   6.551  0.0274 -0.0905  0.0083
 1205ERGO    R216029  15.448  14.588   6.762  0.0491 -0.2050 -0.0019
 1205ERGO    R316030  15.221  14.606   6.910  0.0692 -0.0355  0.0094
 1205ERGO    R416031  15.439  14.635   7.104  0.1004 -0.1419 -0.0092
 1205ERGO    R516032  15.274  14.493   7.114  0.0098 -0.0357  0.0247
 1205ERGO    C116033  15.220  14.680   7.442  0.1491  0.0538 -0.0028
 1205ERGO    C216034  15.049  14.728   7.851 -0.2007 -0.0833  0.0636
 1206ERGO   ROH16035   5.653   4.704   5.993  0.0102  0.2551 -0.0277
 1206ERGO    R116036   5.691   4.703   6.273  0.0327  0.2344 -0.0301
 1206ERGO    R216037   5.657   4.928   6.429 -0.0541  0.2006  0.0044
 1206ERGO    R316038   5.487   4.767   6.568  0.0263  0.1070 -0.0066
 1206ERGO    R416039   5.548   4.987   6.752 -0.0646  0.1123  0.0164
 1206ERGO    R516040   5.569   4.774   6.793  0.0342  0.1174 -0.0106
 1206ERGO    C116041   5.326   4.870   7.070  0.0048 -0.0270  0.0131
 1206ERGO    C216042   5.281   5.077   7.413  0.2253  0.1098 -0.0565
 1207ERGO   ROH16043  16.831  17.501   6.148 -0.1350 -0.1123  0.0991
 1207ERGO    R116044  16.724  17.510   6.410 -0.1475 -0.1229  0.0962
 1207ERGO    R216045  16.699  17.285   6.568 -0.1269 -0.1308  0.1034
 1207ERGO    R316046  16.841  17.435   6.746 -0.1476 -0.1071  0.0971
 1207ERGO    R416047  16.694  17.241   6.911 -0.0790 -0.1345  0.1023
 1207ERGO    R516048  16.694  17.458   6.934 -0.1263 -0.1442  0.1101
 1207ERGO    C116049  16.824  17.355   7.278 -0.0702 -0.1144  0.0957
 1207ERGO    C216050  16.807  17.435   7.650 -0.0740  0.1257 -0.2146
 1208ERGO   ROH16051   1.200  12.301   6.732 -0.3280  0.0059  0.0604
 1208ERGO    R116052   1.363  12.309   6.963 -0.1530  0.2881 -0.0656
 1208ERGO    R216053   1.356  12.519   7.142 -0.4133  0.2663 -0.0366
 1208ERGO    R316054   1.310  12.322   7.323  0.1000  0.1446 -0.0226
 1208ERGO    R416055   1.342  12.564   7.485 -0.4634  0.2263 -0.0340
 1208ERGO    R516056   1.450  12.377   7.509  0.0020  0.4866 -0.0494
 1208ERGO    C116057   1.289  12.405   7.854 -0.0108  0.0887 -0.0193
 1208ERGO    C216058   1.078  12.364   8.059  0.3932  0.0779 -0.1312
 1209ERGO   ROH16059   9.425   2.068   5.927 -0.0669  0.0151  0.0992
 1209ERGO    R116060   9.312   2.048   6.185 -0.0037 -0.0026  0.1260
 1209ERGO    R216061   9.455   1.955   6.403  0.0666  0.0342  0.0973
 1209ERGO    R316062   9.376   2.190   6.514  0.0407  0.0204  0.1074
 1209ERGO    R416063   9.436   2.017   6.743 -0.0899 -0.0339  0.1015
 1209ERGO    R516064   9.250   2.126   6.707 -0.0604 -0.0051  0.0340
 1209ERGO    C116065   9.351   2.274   7.044 -0.2052 -0.0866  0.1135
 1209ERGO    C216066   9.465   2.416   7.435 -0.3369 -0.1027 -0.0532
 1210ERGO   ROH16067  15.360  17.398   5.958 -0.2215  0.2039  0.1028
 1210ERGO    R116068  15.355  17.347   6.236 -0.0696  0.1046  0.0890
 1210ERGO    R216069  15.583  17.343   6.391  0.0122  0.0932 -0.0278
 1210ERGO    R316070  15.447  17.525   6.540  0.0519  0.0160  0.1044
 1210ERGO    R416071  15.654  17.421   6.721  0.1786  0.0151 -0.0437
 1210ERGO    R516072  15.439  17.429   6.759  0.1998 -0.0486  0.0811
 1210ERGO    C116073  15.566  17.638   7.052  0.3127 -0.1031  0.0711
 1210ERGO    C216074  15.579  17.787   7.393  0.2944 -0.0537  0.0245
 1211ERGO   ROH16075  16.413  17.797   6.262 -0.0292 -0.0709 -0.1877
 1211ERGO    R116076  16.336  17.877   6.523 -0.0408 -0.1104 -0.1789
 1211ERGO    R216077  16.488  17.819   6.747 -0.0096 -0.0741 -0.1903
 1211ERGO    R316078  16.474  18.088   6.785 -0.0947 -0.0804 -0.1745
 1211ERGO    R416079  16.449  17.974   7.054  0.0172 -0.1026 -0.1725
 1211ERGO    R516080  16.313  18.116   6.960 -0.0583 -0.1462 -0.1300
 1211ERGO    C116081  16.414  18.317   7.268 -0.0473 -0.1254 -0.1473
 1211ERGO    C216082  16.609  18.516   7.432 -0.1241 -0.0449 -0.1101
 1212ERGO   ROH16083  13.946  14.514   6.180 -0.2324 -0.0043  0.0690
 1212ERGO    R116084  14.113  14.572   6.402 -0.2962  0.2688  0.0479
 1212ERGO    R216085  14.019  14.695   6.631 -0.4902  0.0427  0.0926
 1212ERGO    R316086  14.129  14.479   6.753 -0.0480  0.2194  0.0250
 1212ERGO    R416087  14.027  14.645   6.972 -0.4552 -0.0826  0.0741
 1212ERGO    R516088  14.230  14.568   6.951 -0.2773  0.3584  0.0827
 1212ERGO    C116089  14.136  14.412   7.286 -0.0198  0.0102 -0.0001
 1212ERGO    C216090  13.960  14.404   7.626  0.2163 -0.1799  0.0571
 1213ERGO   ROH16091  16.594   5.055   6.648  0.1902  0.3357  0.0643
 1213ERGO    R116092  16.699   5.110   6.905  0.1569  0.1702  0.1145
 1213ERGO    R216093  16.539   5.134   7.129  0.1177  0.1270  0.0908
 1213ERGO    R316094  16.705   4.944   7.229  0.0196  0.0111  0.0376
 1213ERGO    R416095  16.512   4.994   7.444  0.0352  0.0405  0.0460
 1213ERGO    R516096  16.729   5.002   7.460  0.0399 -0.0732  0.0573
 1213ERGO    C116097  16.653   4.734   7.721 -0.1048 -0.1187 -0.0301
 1213ERGO    C216098  16.415   4.651   7.913  0.2561 -0.0796  0.0235
 1214ERGO   ROH16099   8.316   1.130   6.080 -0.0969  0.0882  0.0588
 1214ERGO    R116100   8.228   1.265   6.312 -0.0868  0.0923  0.0610
 1214ERGO    R216101   8.088   1.138   6.515 -0.0581  0.0893  0.0835
 1214ERGO    R316102   8.286   1.240   6.671 -0.0498  0.1134  0.0554
 1214ERGO    R416103   8.103   1.113   6.859  0.0045  0.0851  0.0802
 1214ERGO    R516104   8.174   1.318   6.867 -0.0257  0.0915  0.0744
 1214ERGO    C116105   8.297   1.194   7.206  0.0486  0.1054  0.0517
 1214ERGO    C216106   8.428   1.357   7.480  0.1644 -0.1561 -0.0530
 1215ERGO   ROH16107   2.779  11.234   6.447  0.2769  0.2250  0.1051
 1215ERGO    R116108   2.576  11.286   6.637  0.2108  0.2512  0.0273
 1215ERGO    R216109   2.500  11.100   6.828  0.0584  0.2315 -0.0537
 1215ERGO    R316110   2.553  11.304   7.000  0.0550  0.1691  0.0228
 1215ERGO    R416111   2.398  11.113   7.158 -0.2363  0.2565 -0.1429
 1215ERGO    R516112   2.354  11.324   7.131 -0.0553  0.2964 -0.1557
 1215ERGO    C116113   2.387  11.312   7.511 -0.4110  0.2127 -0.1230
 1215ERGO    C216114   2.356  11.171   7.856 -0.0502  0.1258  0.2629
 1216ERGO   ROH16115   5.106  14.803   6.124  0.2149  0.2342 -0.1775
 1216ERGO    R116116   5.188  14.965   6.341 -0.0438  0.2164 -0.0657
 1216ERGO    R216117   5.007  15.089   6.509 -0.2441 -0.2245  0.0472
 1216ERGO    R316118   5.149  14.962   6.703  0.0030 -0.1204 -0.0590
 1216ERGO    R416119   5.012  15.180   6.843 -0.1404 -0.2701  0.0601
 1216ERGO    R516120   5.226  15.138   6.846 -0.0865 -0.0592 -0.0768
 1216ERGO    C116121   5.148  15.113   7.219  0.1518 -0.1991 -0.0321
 1216ERGO    C216122   5.271  15.158   7.547  0.1251 -0.1916  0.0760
 1217ERGO   ROH16123  14.320   8.762   6.057 -0.1258 -0.1128 -0.0283
 1217ERGO    R116124  14.400   8.734   6.327 -0.2256 -0.1913 -0.0039
 1217ERGO    R216125  14.440   8.951   6.494  0.1014 -0.2028 -0.0515
 1217ERGO    R316126  14.264   8.820   6.653 -0.1700  0.1129 -0.0523
 1217ERGO    R416127  14.428   8.977   6.838  0.0799 -0.1081 -0.0596
 1217ERGO    R516128  14.391   8.763   6.848 -0.2878 -0.0674 -0.0170
 1217ERGO    C116129  14.255   8.868   7.188 -0.1872  0.2433 -0.0650
 1217ERGO    C216130  14.272   8.987   7.342 -0.0028  0.0315 -0.0535
 1218ERGO   ROH16131  10.012  17.334   5.977 -0.0799 -0.0165  0.0219
 1218ERGO    R116132   9.915  17.288   6.239  0.1067 -0.2180  0.0571
 1218ERGO    R216133  10.075  17.190   6.441  0.3845  0.1053 -0.0038
 1218ERGO    R316134   9.987  17.411   6.573 -0.0228 -0.0681  0.0324
 1218ERGO    R416135  10.077  17.229   6.785  0.4667  0.1065 -0.0034
 1218ERGO    R516136   9.882  17.324   6.770  0.2454 -0.2985  0.0850
 1218ERGO    C116137   9.996  17.458   7.109  0.1320 -0.0555  0.0308
 1218ERGO    C216138   9.887  17.572   7.418 -0.1535  0.1319 -0.1436
 1219ERGO   ROH16139  16.427  16.738   5.843 -0.0551 -0.1673 -0.0421
 1219ERGO    R116140  16.439  16.546   6.051 -0.0055 -0.0615  0.0531
 1219ERGO    R216141  16.671  16.410   6.114  0.0202  0.0054  0.0985
 1219ERGO    R316142  16.622  16.506   6.363  0.0313  0.1217  0.0565
 1219ERGO    R416143  16.772  16.259   6.407 -0.3867 -0.1226  0.1795
 1219ERGO    R516144  16.580  16.311   6.495 -0.3592  0.2009  0.0630
 1219ERGO    C116145  16.785  16.261   6.813 -0.6129 -0.0880  0.1874
 1219ERGO    C216146  16.836  16.282   7.252  0.0128 -0.1568  0.1457
 1220ERGO   ROH16147   1.539  17.206   6.168 -0.2376  0.2132 -0.1050
 1220ERGO    R116148   1.496  17.376   6.390 -0.0658  0.0618  0.0481
 1220ERGO    R216149   1.598  17.321   6.642  0.2714 -0.0294 -0.0986
 1220ERGO    R316150   1.703  17.571   6.618  0.1040  0.0423 -0.0898
 1220ERGO    R416151   1.647  17.542   6.903  0.1670 -0.0141 -0.0917
 1220ERGO    R516152   1.580  17.703   6.774  0.0443 -0.0498 -0.0638
 1220ERGO    C116153   1.775  17.905   7.032 -0.0508  0.0618 -0.0794
 1220ERGO    C216154   1.803  18.157   7.191  0.0863  0.0114  0.1135
 1221ERGO   ROH16155   9.041   6.151   6.002  0.0122  0.0097  0.0385
 1221ERGO    R116156   9.042   6.194   6.282  0.0649  0.0791  0.0272
 1221ERGO    R216157   8.984   5.994   6.463  0.0519  0.1396  0.0832
 1221ERGO    R316158   9.224   6.064   6.568  0.0812  0.1139  0.0345
 1221ERGO    R416159   9.107   5.882   6.766  0.0806  0.1447  0.0740
 1221ERGO    R516160   9.183   6.082   6.803  0.1187  0.1413  0.0425
 1221ERGO    C116161   9.405   5.882   7.041  0.1248  0.1235  0.0228
 1221ERGO    C216162   9.477   5.873   7.406 -0.0207  0.1146 -0.0264
 1222ERGO   ROH16163  15.550  16.992   6.071 -0.0096  0.0257  0.0580
 1222ERGO    R116164  15.494  16.897   6.332 -0.1868  0.0828  0.0412
 1222ERGO    R216165  15.692  16.832   6.512 -0.3036 -0.2693  0.0464
 1222ERGO    R316166  15.559  17.006   6.673 -0.0307 -0.0666  0.0612
 1222ERGO    R416167  15.812  16.955   6.812  0.0232 -0.2411 -0.0904
 1222ERGO    R516168  15.611  16.934   6.895  0.0556 -0.0144  0.0602
 1222ERGO    C116169  15.756  17.190   7.138  0.4696 -0.0346 -0.1561
 1222ERGO    C216170  15.915  17.454   7.429 -0.0821  0.1158 -0.0284
 1223ERGO   ROH16171   7.629   6.903   5.929 -0.1316 -0.2118 -0.0068
 1223ERGO    R116172   7.765   6.866   6.175 -0.0605 -0.0236 -0.0139
 1223ERGO    R216173   7.728   7.032   6.393 -0.0417  0.1153 -0.1034
 1223ERGO    R316174   7.673   6.799   6.520  0.0350  0.1816  0.0498
 1223ERGO    R416175   7.716   6.991   6.736  0.1294  0.2784 -0.0775
 1223ERGO    R516176   7.816   6.800   6.712  0.1220  0.2807 -0.0245
 1223ERGO    C116177   7.657   6.748   7.055  0.3010  0.4355  0.0814
 1223ERGO    C216178   7.390   6.620   7.261  0.0786 -0.1764  0.0044
 1224ERGO   ROH16179   7.135  10.453   6.971 -0.0815 -0.0392 -0.0515
 1224ERGO    R116180   7.129  10.571   7.228  0.2357 -0.0805 -0.0219
 1224ERGO    R216181   6.943  10.502   7.420  0.1971  0.1950  0.0435
 1224ERGO    R316182   7.164  10.458   7.573  0.1976 -0.2161 -0.0617
 1224ERGO    R416183   6.942  10.360   7.736  0.0894  0.1622  0.0291
 1224ERGO    R516184   7.093  10.505   7.796  0.3809 -0.1085 -0.0230
 1224ERGO    C116185   7.148  10.237   8.062  0.0271 -0.2427 -0.0779
 1224ERGO    C216186   7.010  10.006   8.316  0.0677 -0.0885 -0.0205
 1225ERGO   ROH16187   7.093   3.210   5.985 -0.0165 -0.1015 -0.1290
 1225ERGO    R116188   7.291   3.272   6.177  0.0034 -0.2824 -0.0912
 1225ERGO    R216189   7.288   3.505   6.325  0.2667 -0.2101 -0.2029
 1225ERGO    R316190   7.302   3.334   6.535 -0.0330 -0.1336 -0.1134
 1225ERGO    R416191   7.351   3.598   6.652  0.4234 -0.1369 -0.2521
 1225ERGO    R516192   7.477   3.422   6.672  0.1269 -0.3558 -0.1605
 1225ERGO    C116193   7.401   3.492   7.040  0.2332 -0.0225 -0.1966
 1225ERGO    C216194   7.508   3.574   7.313  0.3694 -0.3435 -0.2339
 1226ERGO   ROH16195  11.041   2.984   6.337 -0.0076 -0.0763 -0.0531
 1226ERGO    R116196  10.841   3.037   6.530 -0.0575 -0.1978 -0.0711
 1226ERGO    R216197  10.738   2.841   6.695  0.1618 -0.2305  0.0269
 1226ERGO    R316198  10.810   3.014   6.892 -0.0168 -0.0552 -0.0571
 1226ERGO    R416199  10.586   2.862   7.005  0.1653 -0.2725  0.0319
 1226ERGO    R516200  10.603   3.079   6.993 -0.0882 -0.2518 -0.0673
 1226ERGO    C116201  10.566   3.036   7.371 -0.0004 -0.1323 -0.0441
 1226ERGO    C216202  10.507   3.041   7.641  0.0606  0.0967 -0.1100
 1227ERGO   ROH16203   1.606  12.205   6.469 -0.1819  0.0150  0.2221
 1227ERGO    R116204   1.584  12.012   6.675 -0.0692 -0.0940  0.1335
 1227ERGO    R216205   1.364  11.847   6.701 -0.1341  0.0115  0.2681
 1227ERGO    R316206   1.551  11.650   6.695 -0.2449 -0.0900 -0.0468
 1227ERGO    R416207   1.349  11.555   6.886 -0.0850 -0.0791  0.1304
 1227ERGO    R516208   1.563  11.573   6.922 -0.0321 -0.2168 -0.0987
 1227ERGO    C116209   1.516  11.200   6.988 -0.1604 -0.2273 -0.2454
 1227ERGO    C216210   1.555  10.844   6.991  0.4058 -0.0503 -0.4325
 1228ERGO   ROH16211  14.950  15.624   6.249  0.0819 -0.2265  0.0182
 1228ERGO    R116212  14.717  15.702   6.390  0.0565 -0.1245 -0.0801
 1228ERGO    R216213  14.541  15.518   6.498 -0.0167 -0.0448 -0.0732
 1228ERGO    R316214  14.585  15.659   6.726 -0.0602  0.0227 -0.1049
 1228ERGO    R416215  14.306  15.568   6.746  0.0316 -0.2630  0.0193
 1228ERGO    R516216  14.378  15.773   6.766 -0.1660 -0.1824 -0.0315
 1228ERGO    C116217  14.211  15.729   7.106  0.0189 -0.3268  0.0435
 1228ERGO    C216218  14.029  15.857   7.367 -0.0640  0.2268 -0.0104
 1229ERGO   ROH16219   4.838   7.652   6.639  0.5246  0.1848  0.1452
 1229ERGO    R116220   4.955   7.626   6.896  0.2992  0.2350  0.2564
 1229ERGO    R216221   4.825   7.700   7.127  0.0115  0.0878  0.1478
 1229ERGO    R316222   4.882   7.446   7.203  0.1460  0.1192  0.1531
 1229ERGO    R416223   4.784   7.576   7.447  0.0017  0.0501  0.1316
 1229ERGO    R516224   4.972   7.468   7.424  0.0733  0.1653  0.1779
 1229ERGO    C116225   4.814   7.264   7.704  0.1224  0.0577  0.1271
 1229ERGO    C216226   4.612   7.106   7.988  0.1060  0.1899  0.0882
 1230ERGO   ROH16227   6.724  17.056   6.163  0.1144 -0.0302  0.0203
 1230ERGO    R116228   6.573  17.094   6.399  0.0882 -0.0362  0.0052
 1230ERGO    R216229   6.623  16.954   6.632  0.0860 -0.0180  0.0207
 1230ERGO    R316230   6.638  17.203   6.740  0.0462 -0.0088  0.0033
 1230ERGO    R416231   6.626  17.023   6.971 -0.2102  0.0306  0.0149
 1230ERGO    R516232   6.495  17.193   6.932 -0.1321  0.0543 -0.1267
 1230ERGO    C116233   6.640  17.297   7.269 -0.4201  0.0676 -0.0046
 1230ERGO    C216234   6.636  17.280   7.615  0.1173 -0.3367  0.2447
 1231ERGO   ROH16235  10.069   3.058   5.918  0.1969 -0.0116  0.0924
 1231ERGO    R116236   9.867   3.086   6.114  0.1572 -0.0924  0.0625
 1231ERGO    R216237   9.843   2.914   6.329  0.2872 -0.0143  0.1383
 1231ERGO    R316238   9.853   3.145   6.473  0.0796  0.0624  0.0355
 1231ERGO    R416239   9.697   2.960   6.639  0.2659 -0.0143  0.1291
 1231ERGO    R516240   9.637   3.160   6.576  0.0704 -0.0965  0.0435
 1231ERGO    C116241   9.621   3.202   6.955  0.0586  0.0578  0.0272
 1231ERGO    C216242   9.590   3.153   7.290  0.0102  0.0715  0.3648
 1232ERGO   ROH16243  14.904   0.733   6.216 -0.0715 -0.0142 -0.0098
 1232ERGO    R116244  15.114   0.704   6.404 -0.1121  0.0109  0.0408
 1232ERGO    R216245  15.100   0.807   6.660 -0.1882  0.0039  0.0442
 1232ERGO    R316246  15.157   0.551   6.731 -0.1727  0.0090  0.0465
 1232ERGO    R416247  15.207   0.709   6.973 -0.1490  0.0099  0.0322
 1232ERGO    R516248  15.345   0.571   6.878 -0.1592  0.0137  0.0229
 1232ERGO    C116249  15.322   0.411   7.223 -0.1114  0.0182  0.0274
 1232ERGO    C216250  15.395   0.287   7.547 -0.0783  0.0367  0.3656
 1233ERGO   ROH16251   8.980  11.474   6.425 -0.2275  0.1189 -0.0131
 1233ERGO    R116252   8.995  11.539   6.700 -0.2649 -0.0123  0.0200
 1233ERGO    R216253   8.793  11.478   6.878 -0.1426 -0.4041  0.0287
 1233ERGO    R316254   8.994  11.357   7.015  0.0628 -0.1924 -0.0778
 1233ERGO    R416255   8.778  11.384   7.211  0.1533 -0.3661  0.0564
 1233ERGO    R516256   8.983  11.452   7.234  0.1090 -0.1649 -0.0848
 1233ERGO    C116257   8.958  11.216   7.532  0.5184 -0.1453 -0.0275
 1233ERGO    C216258   9.126  11.003   7.746 -0.0031  0.2145  0.0565
 1234ERGO   ROH16259   4.935  10.838   6.308  0.1717 -0.1067  0.0322
 1234ERGO    R116260   4.933  10.789   6.587  0.0601 -0.0731  0.0373
 1234ERGO    R216261   4.998  10.983   6.772 -0.0123 -0.0522  0.0392
 1234ERGO    R316262   4.755  10.919   6.876 -0.0543 -0.0370 -0.0481
 1234ERGO    R416263   4.896  11.054   7.095 -0.0980 -0.1032  0.0240
 1234ERGO    R516264   4.802  10.858   7.103 -0.1312 -0.0916 -0.0457
 1234ERGO    C116265   4.609  11.035   7.381 -0.1873 -0.1187 -0.0668
 1234ERGO    C216266   4.588  11.138   7.670 -0.1275  0.0556  0.5281
 1235ERGO   ROH16267   6.306   2.543   5.975 -0.0343 -0.0544 -0.0078
 1235ERGO    R116268   6.410   2.679   6.200 -0.0319  0.0567 -0.0755
 1235ERGO    R216269   6.312   2.923   6.285 -0.1508  0.0132 -0.0887
 1235ERGO    R316270   6.285   2.793   6.522  0.0211  0.0446 -0.0500
 1235ERGO    R416271   6.290   3.077   6.594 -0.3097  0.0795 -0.1322
 1235ERGO    R516272   6.417   2.920   6.676 -0.1145  0.2491 -0.0959
 1235ERGO    C116273   6.251   3.044   6.996 -0.2408  0.1475 -0.1212
 1235ERGO    C216274   6.192   3.262   7.183  0.1308  0.2001  0.3006
 1236ERGO   ROH16275   0.434   7.017   6.800  0.2410  0.1199 -0.0358
 1236ERGO    R116276   0.547   7.105   7.044  0.1493  0.1672 -0.0084
 1236ERGO    R216277   0.462   7.335   7.173 -0.0102  0.1117  0.0012
 1236ERGO    R316278   0.429   7.165   7.383  0.0534  0.0685 -0.0253
 1236ERGO    R416279   0.415   7.432   7.501  0.0476  0.0357  0.0309
 1236ERGO    R516280   0.545   7.269   7.564  0.0762  0.0417 -0.0294
 1236ERGO    C116281   0.355   7.329   7.889  0.1410 -0.0492  0.0233
 1236ERGO    C216282   0.142   7.399   8.119  0.0402  0.0594  0.0774
 1237ERGO   ROH16283   6.643   0.873   6.268 -0.1838 -0.0757 -0.1045
 1237ERGO    R116284   6.617   0.779   6.533 -0.1208  0.0665 -0.0482
 1237ERGO    R216285   6.835   0.739   6.698 -0.0767  0.0408 -0.1240
 1237ERGO    R316286   6.697   0.902   6.866  0.0761  0.1869 -0.1360
 1237ERGO    R416287   6.877   0.749   7.041 -0.0110  0.0649 -0.1316
 1237ERGO    R516288   6.660   0.768   7.062 -0.0020  0.2438 -0.1043
 1237ERGO    C116289   6.771   0.909   7.399  0.1707  0.2162 -0.1473
 1237ERGO    C216290   7.034   0.849   7.610 -0.1127  0.1022  0.1498
 1238ERGO   ROH16291   4.943  16.772   6.000  0.0768  0.2199 -0.1548
 1238ERGO    R116292   4.888  16.837   6.270  0.1441 -0.0509 -0.0722
 1238ERGO    R216293   5.088  16.882   6.456  0.1959  0.0459 -0.1457
 1238ERGO    R316294   4.956  17.116   6.494 -0.0669 -0.1372  0.1012
 1238ERGO    R416295   5.121  17.083   6.735  0.3314  0.0219 -0.1443
 1238ERGO    R516296   4.905  17.118   6.728  0.2698 -0.2638  0.1781
 1238ERGO    C116297   5.016  17.420   6.933  0.1636 -0.1643  0.0883
 1238ERGO    C216298   4.908  17.656   7.091  0.0720  0.3106  0.2508
 1239ERGO   ROH16299  11.708   0.024   6.240 -0.1980  0.3795 -0.0887
 1239ERGO    R116300  11.674  -0.075   6.503 -0.0540  0.1846 -0.1419
 1239ERGO    R216301  11.794   0.043   6.723  0.0174  0.0572 -0.1144
 1239ERGO    R316302  11.539   0.050   6.817  0.0582 -0.0704  0.0114
 1239ERGO    R416303  11.708   0.084   7.055  0.1597  0.2822 -0.1029
 1239ERGO    R516304  11.551  -0.065   7.027  0.2648  0.1236  0.1112
 1239ERGO    C116305  11.419   0.115   7.337  0.2810  0.2932  0.0219
 1239ERGO    C216306  11.395   0.462   7.552  0.1616 -0.3738 -0.0741
 1240ERGO   ROH16307   3.976   7.952   6.169 -0.1138 -0.1279  0.1260
 1240ERGO    R116308   4.013   7.924   6.448 -0.0466  0.0099  0.1318
 1240ERGO    R216309   3.877   8.076   6.633 -0.1491 -0.0345  0.0933
 1240ERGO    R316310   3.808   7.834   6.735  0.0717 -0.0565  0.1967
 1240ERGO    R416311   3.749   8.025   6.950 -0.2865  0.0101  0.0461
 1240ERGO    R516312   3.873   7.846   6.965 -0.0834  0.1613  0.2321
 1240ERGO    C116313   3.610   7.768   7.231 -0.1593  0.0154  0.1157
 1240ERGO    C216314   3.286   7.843   7.422 -0.0566 -0.4198  0.2290
 1241ERGO   ROH16315   6.815  12.402   6.474  0.1390 -0.1974 -0.0449
 1241ERGO    R116316   6.842  12.409   6.756  0.1943 -0.1238 -0.0529
 1241ERGO    R216317   6.944  12.628   6.890  0.1902 -0.0797 -0.1307
 1241ERGO    R316318   6.711  12.610   7.029  0.2224 -0.0748 -0.0736
 1241ERGO    R416319   6.921  12.625   7.234  0.2674  0.1059 -0.1220
 1241ERGO    R516320   6.766  12.472   7.218  0.3083  0.0442 -0.0061
 1241ERGO    C116321   6.689  12.607   7.566  0.3425  0.2185 -0.0634
 1241ERGO    C216322   6.571  12.696   7.939  0.0726  0.0810 -0.0579
 1242ERGO   ROH16323  14.852   9.950   6.155 -0.1687  0.3206 -0.0192
 1242ERGO    R116324  14.914  10.055   6.411 -0.2023  0.1117  0.0769
 1242ERGO    R216325  14.720  10.120   6.596 -0.2237 -0.1817  0.1660
 1242ERGO    R316326  14.863   9.954   6.757 -0.1060 -0.2563 -0.0113
 1242ERGO    R416327  14.674  10.086   6.937  0.0380 -0.3212  0.1897
 1242ERGO    R516328  14.890  10.077   6.961  0.0571 -0.3421  0.0200
 1242ERGO    C116329  14.782   9.911   7.286  0.3009 -0.4726  0.0370
 1242ERGO    C216330  14.561   9.731   7.569 -0.1384  0.0426 -0.2148
 1243ERGO   ROH16331  17.197   2.259   6.242  0.1151  0.2088  0.0162
 1243ERGO    R116332  17.214   2.084   6.464  0.1509  0.0157 -0.1366
 1243ERGO    R216333  17.446   2.053   6.611  0.0844  0.1333 -0.0072
 1243ERGO    R316334  17.283   2.114   6.820 -0.1317 -0.2430 -0.0551
 1243ERGO    R416335  17.536   2.034   6.944 -0.0795  0.0382  0.0330
 1243ERGO    R516336  17.338   1.953   6.988  0.0053 -0.2818 -0.1340
 1243ERGO    C116337  17.435   2.081   7.334 -0.3780 -0.3704  0.0114
 1243ERGO    C216338  17.694   2.207   7.648  0.0259  0.0817  0.1266
 1244ERGO   ROH16339  14.381   7.702   6.338  0.1588  0.0388 -0.0547
 1244ERGO    R116340  14.514   7.826   6.555  0.0293  0.0375  0.0262
 1244ERGO    R216341  14.386   7.885   6.794 -0.0812 -0.0804 -0.0007
 1244ERGO    R316342  14.592   7.742   6.901 -0.0579 -0.0235  0.0306
 1244ERGO    R416343  14.541   7.955   7.095 -0.2152 -0.1080  0.0755
 1244ERGO    R516344  14.732   7.907   7.003 -0.1636  0.0026  0.1307
 1244ERGO    C116345  14.823   7.863   7.371 -0.2715 -0.0706  0.1493
 1244ERGO    C216346  14.781   8.026   7.695 -0.1295  0.3334  0.2120
 1245ERGO   ROH16347   7.231  15.429   5.940  0.3289 -0.0894  0.0206
 1245ERGO    R116348   7.310  15.443   6.212  0.2490  0.0457  0.0364
 1245ERGO    R216349   7.260  15.664   6.369 -0.0806 -0.0021 -0.0026
 1245ERGO    R316350   7.144  15.481   6.534  0.1240 -0.1379 -0.0026
 1245ERGO    R416351   7.240  15.695   6.713 -0.0429 -0.0559  0.0056
 1245ERGO    R516352   7.284  15.481   6.729  0.1683 -0.0232 -0.0279
 1245ERGO    C116353   7.119  15.541   7.068  0.1712 -0.2147  0.0104
 1245ERGO    C216354   7.082  15.816   7.284  0.0384  0.2777  0.3311
 1246ERGO   ROH16355   6.663  11.307   6.477  0.2052  0.0118 -0.0476
 1246ERGO    R116356   6.707  11.476   6.699  0.4711 -0.0473 -0.0532
 1246ERGO    R216357   6.541  11.478   6.920  0.3582  0.3557 -0.1410
 1246ERGO    R316358   6.772  11.433   7.055  0.1993 -0.1401 -0.0107
 1246ERGO    R416359   6.589  11.543   7.256  0.3394  0.3942 -0.1452
 1246ERGO    R516360   6.788  11.617   7.208  0.5560 -0.0954 -0.0863
 1246ERGO    C116361   6.834  11.539   7.578  0.1793 -0.0490 -0.0252
 1246ERGO    C216362   6.865  11.293   7.965  0.0352 -0.0615 -0.0252
 1247ERGO   ROH16363   4.672  11.263   6.234 -0.0259  0.0020 -0.1421
 1247ERGO    R116364   4.660  11.258   6.517 -0.0320 -0.1965 -0.1461
 1247ERGO    R216365   4.506  11.435   6.662  0.1975 -0.1082 -0.0187
 1247ERGO    R316366   4.403  11.207   6.769 -0.0989 -0.0589 -0.1824
 1247ERGO    R416367   4.366  11.410   6.977  0.1862 -0.1463 -0.0253
 1247ERGO    R516368   4.465  11.217   7.001 -0.0624 -0.3049 -0.1728
 1247ERGO    C116369   4.188  11.182   7.262 -0.0986 -0.1222 -0.1827
 1247ERGO    C216370   4.039  11.176   7.507 -0.1813  0.1403  0.2603
 1248ERGO   ROH16371  16.381  10.272   6.612  0.1857 -0.0354 -0.0017
 1248ERGO    R116372  16.259  10.112   6.811  0.0488  0.0787  0.0077
 1248ERGO    R216373  16.372   9.877   6.904 -0.2150 -0.0855 -0.0736
 1248ERGO    R316374  16.344   9.997   7.146  0.0168 -0.0917 -0.0423
 1248ERGO    R416375  16.429   9.725   7.209  0.0511 -0.0977 -0.1272
 1248ERGO    R516376  16.254   9.827   7.288  0.1321 -0.0865  0.0363
 1248ERGO    C116377  16.436   9.749   7.614  0.4235 -0.1107 -0.1291
 1248ERGO    C216378  16.599   9.711   7.915  0.2938 -0.0650 -0.1183
 1249ERGO   ROH16379   2.958  10.472   6.205  0.1732  0.0792 -0.0961
 1249ERGO    R116380   3.084  10.389   6.444  0.1373 -0.0015 -0.1046
 1249ERGO    R216381   3.289  10.533   6.562  0.1783 -0.0858 -0.0709
 1249ERGO    R316382   3.127  10.523   6.780  0.1653 -0.0717 -0.0801
 1249ERGO    R416383   3.378  10.637   6.880  0.1546 -0.0551 -0.0744
 1249ERGO    R516384   3.273  10.464   6.960  0.1554 -0.0510 -0.0658
 1249ERGO    C116385   3.277  10.688   7.269  0.1286 -0.0240 -0.0850
 1249ERGO    C216386   3.094  10.969   7.461 -0.2138 -0.0033  0.1336
 1250ERGO   ROH16387  18.222  15.047   6.133 -0.1790 -0.0967 -0.2345
 1250ERGO    R116388  18.213  14.868   6.352 -0.2385 -0.0597 -0.2057
 1250ERGO    R216389  18.191  14.953   6.614 -0.0048  0.0010 -0.2018
 1250ERGO    R316390  17.978  14.784   6.616 -0.1781  0.2162 -0.0608
 1250ERGO    R416391  18.087  14.770   6.888  0.1641 -0.1031 -0.2060
 1250ERGO    R516392  18.048  14.602   6.755 -0.1801  0.0356 -0.2911
 1250ERGO    C116393  17.826  14.505   7.050  0.0999  0.0383 -0.0761
 1250ERGO    C216394  17.647  14.346   7.330  0.3639  0.2384 -0.0693
 1251ERGO   ROH16395   7.179  17.102   6.238 -0.0371  0.0767  0.0535
 1251ERGO    R116396   7.081  17.231   6.470 -0.1168  0.0186  0.0520
 1251ERGO    R216397   7.048  17.100   6.711  0.0040  0.0114  0.0618
 1251ERGO    R316398   7.203  17.302   6.806 -0.1440  0.1382  0.0382
 1251ERGO    R416399   7.063  17.197   7.042 -0.0754  0.0587  0.0519
 1251ERGO    R516400   7.068  17.405   6.975 -0.2270  0.0587  0.0248
 1251ERGO    C116401   7.217  17.443   7.324 -0.2605  0.2054  0.0241
 1251ERGO    C216402   7.142  17.300   7.651  0.0240  0.0941  0.2199
 1252ERGO   ROH16403  14.705   6.683   6.003  0.0714 -0.0652  0.4047
 1252ERGO    R116404  14.689   6.629   6.280 -0.1180  0.0389  0.4159
 1252ERGO    R216405  14.508   6.755   6.446 -0.3698 -0.0415  0.2109
 1252ERGO    R316406  14.437   6.501   6.510 -0.2083 -0.0759  0.2550
 1252ERGO    R416407  14.411   6.651   6.761 -0.2033 -0.0716  0.2527
 1252ERGO    R516408  14.526   6.468   6.730 -0.1137 -0.0109  0.2267
 1252ERGO    C116409  14.289   6.351   7.004  0.0454 -0.1215  0.3184
 1252ERGO    C216410  14.266   6.342   7.355  0.0176 -0.1124  0.1763
 1253ERGO   ROH16411  15.131  13.568   6.209 -0.1283  0.0928  0.1092
 1253ERGO    R116412  15.104  13.695   6.460  0.2243 -0.1164  0.2582
 1253ERGO    R216413  14.859  13.772   6.563  0.4217  0.3423  0.3825
 1253ERGO    R316414  14.940  13.624   6.776  0.1225 -0.0822  0.2179
 1253ERGO    R416415  14.720  13.787   6.879  0.4644  0.3248  0.4036
 1253ERGO    R516416  14.920  13.772   6.963  0.4646 -0.2137  0.3818
 1253ERGO    C116417  14.714  13.657   7.263  0.2084 -0.0841  0.2615
 1253ERGO    C216418  14.535  13.526   7.599  0.2658 -0.1202  0.0752
 1254ERGO   ROH16419   3.326  17.237   5.871 -0.1017  0.1281  0.0346
 1254ERGO    R116420   3.257  17.402   6.091 -0.0390  0.0783  0.0937
 1254ERGO    R216421   3.101  17.312   6.301 -0.0237  0.0446  0.0960
 1254ERGO    R316422   3.311  17.399   6.451  0.0173 -0.0368  0.0840
 1254ERGO    R416423   3.077  17.438   6.622  0.0343  0.1378  0.0634
 1254ERGO    R516424   3.225  17.588   6.570  0.1203  0.0397  0.0340
 1254ERGO    C116425   3.259  17.592   6.950  0.1066  0.1156  0.0331
 1254ERGO    C216426   3.302  17.746   7.271 -0.1019 -0.1201  0.0035
 1255ERGO   ROH16427   8.213  18.284   6.359 -0.0229 -0.0538  0.1517
 1255ERGO    R116428   8.100  18.221   6.611 -0.0010 -0.0316  0.1677
 1255ERGO    R216429   8.254  18.157   6.831  0.0184 -0.0451  0.1537
 1255ERGO    R316430   8.113  18.357   6.948  0.0586 -0.0217  0.1607
 1255ERGO    R416431   8.307  18.276   7.151  0.0013 -0.0999  0.1766
 1255ERGO    R516432   8.091  18.290   7.177  0.0050 -0.0428  0.1468
 1255ERGO    C116433   8.204  18.533   7.447  0.0291 -0.1102  0.1966
 1255ERGO    C216434   8.510  18.769   7.656  0.0966  0.4152  0.3553
 1256ERGO   ROH16435   2.762  18.414   5.992  0.1969 -0.0381  0.0037
 1256ERGO    R116436   2.824  18.314   6.249 -0.0085 -0.0963  0.0323
 1256ERGO    R216437   2.976  18.456   6.433 -0.0291 -0.1993  0.1312
 1256ERGO    R316438   2.762  18.413   6.594 -0.1487 -0.0885  0.0044
 1256ERGO    R416439   2.963  18.533   6.769 -0.2244 -0.1175  0.1066
 1256ERGO    R516440   2.857  18.346   6.803 -0.3088 -0.0719  0.0827
 1256ERGO    C116441   2.754  18.537   7.117 -0.4504  0.0342 -0.0267
 1256ERGO    C216442   2.630  18.624   7.442  0.0568 -0.2236 -0.0111
 1257ERGO   ROH16443   9.867  14.703   6.210  0.1661  0.1868 -0.0794
 1257ERGO    R116444   9.911  14.779   6.479  0.1513  0.2201 -0.0867
 1257ERGO    R216445   9.739  14.708   6.683  0.1142  0.2872 -0.0957
 1257ERGO    R316446   9.966  14.609   6.796  0.0814  0.2587 -0.0532
 1257ERGO    R416447   9.773  14.621   7.016  0.0406  0.2810 -0.0892
 1257ERGO    R516448   9.973  14.709   7.013  0.0524  0.2572 -0.0510
 1257ERGO    C116449  10.006  14.479   7.316 -0.0331  0.2508 -0.0455
 1257ERGO    C216450  10.109  14.447   7.655  0.0438  0.1464 -0.0059
 1258ERGO   ROH16451  17.508  11.683   6.443  0.1282  0.0276  0.0334
 1258ERGO    R116452  17.357  11.798   6.653  0.0905  0.0028  0.0176
 1258ERGO    R216453  17.187  11.650   6.812  0.0933 -0.0179 -0.0141
 1258ERGO    R316454  17.333  11.758   7.014  0.0472 -0.0069  0.0162
 1258ERGO    R416455  17.085  11.668   7.142  0.1004 -0.2199  0.0017
 1258ERGO    R516456  17.172  11.868   7.152 -0.0196 -0.1614  0.0739
 1258ERGO    C116457  17.163  11.780   7.524  0.0612 -0.3270  0.0393
 1258ERGO    C216458  17.040  11.877   7.914  0.0115  0.2978  0.0272
 1259ERGO   ROH16459   3.514  16.829   6.153  0.0854  0.0291  0.0316
 1259ERGO    R116460   3.483  17.015   6.365  0.0724 -0.0186  0.0713
 1259ERGO    R216461   3.290  16.987   6.561  0.1796 -0.1616  0.1557
 1259ERGO    R316462   3.504  17.007   6.728  0.2446 -0.0571  0.0623
 1259ERGO    R416463   3.288  17.146   6.868  0.2874  0.0081  0.0709
 1259ERGO    R516464   3.485  17.225   6.823  0.2676 -0.0033 -0.0505
 1259ERGO    C116465   3.487  17.256   7.203  0.4111  0.2048 -0.0662
 1259ERGO    C216466   3.732  17.326   7.472 -0.0891 -0.0798  0.1722
 1260ERGO   ROH16467  15.796  15.355   6.184 -0.0381  0.1427  0.0189
 1260ERGO    R116468  15.937  15.453   6.408  0.2358 -0.0832 -0.0484
 1260ERGO    R216469  15.811  15.530   6.642  0.4265  0.4493 -0.1021
 1260ERGO    R316470  15.984  15.354   6.755 -0.0625  0.0275  0.0254
 1260ERGO    R416471  15.880  15.511   6.980  0.2514  0.3742 -0.0704
 1260ERGO    R516472  16.090  15.479   6.930  0.1980 -0.1860  0.0220
 1260ERGO    C116473  16.082  15.334   7.283 -0.3096 -0.0655  0.0677
 1260ERGO    C216474  15.991  15.160   7.577  0.0791  0.1027  0.4528
 1261ERGO   ROH16475  13.148   2.051   6.290  0.2472 -0.0190 -0.0143
 1261ERGO    R116476  13.275   1.944   6.519  0.2194  0.1486  0.0813
 1261ERGO    R216477  13.292   2.082   6.757 -0.1807  0.1587  0.1114
 1261ERGO    R316478  13.178   1.857   6.858  0.0641 -0.0225 -0.0050
 1261ERGO    R416479  13.267   2.007   7.094 -0.0424 -0.0783  0.0716
 1261ERGO    R516480  13.315   1.800   7.047  0.1582 -0.0031 -0.0671
 1261ERGO    C116481  13.145   1.753   7.385  0.2681 -0.3863 -0.0607
 1261ERGO    C216482  13.034   1.788   7.669  0.0181  0.1930  0.1903
 1262ERGO   ROH16483   2.358   4.369   6.243 -0.1288 -0.0458  0.0874
 1262ERGO    R116484   2.481   4.374   6.497 -0.0239  0.1845  0.0327
 1262ERGO    R216485   2.377   4.515   6.710 -0.1113  0.1074  0.0321
 1262ERGO    R316486   2.393   4.275   6.836  0.2553  0.1651  0.1030
 1262ERGO    R416487   2.369   4.471   7.053 -0.3734  0.1883  0.0400
 1262ERGO    R516488   2.524   4.319   7.032 -0.0282  0.4931  0.2327
 1262ERGO    C116489   2.380   4.220   7.371 -0.1819  0.2897  0.1112
 1262ERGO    C216490   2.386   4.202   7.747  0.1930  0.1258 -0.3630
 1263ERGO   ROH16491  12.450  15.463   6.440 -0.2216 -0.0487 -0.1651
 1263ERGO    R116492  12.357  15.588   6.676 -0.0856  0.0129 -0.1429
 1263ERGO    R216493  12.189  15.462   6.855 -0.1739  0.1407 -0.1318
 1263ERGO    R316494  12.382  15.530   7.034 -0.0912 -0.0395 -0.1515
 1263ERGO    R416495  12.179  15.391   7.193 -0.3142  0.3489 -0.0907
 1263ERGO    R516496  12.262  15.589   7.232 -0.0270  0.2525 -0.1969
 1263ERGO    C116497  12.355  15.414   7.558 -0.3183  0.3009 -0.0853
 1263ERGO    C216498  12.523  15.325   7.836  0.1153  0.0794  0.2267
 1264ERGO   ROH16499  14.387   2.155   6.413 -0.1707  0.1350 -0.0842
 1264ERGO    R116500  14.450   2.362   6.595 -0.2497  0.1119 -0.0314
 1264ERGO    R216501  14.347   2.372   6.851 -0.0561 -0.1339  0.0551
 1264ERGO    R316502  14.609   2.386   6.922 -0.0114  0.1184 -0.1438
 1264ERGO    R416503  14.464   2.514   7.143 -0.0274 -0.4387  0.1974
 1264ERGO    R516504  14.629   2.600   7.029 -0.2345 -0.0136  0.1875
 1264ERGO    C116505  14.779   2.611   7.380  0.0313 -0.3793  0.0936
 1264ERGO    C216506  14.963   2.574   7.666  0.0412  0.0635 -0.1701
 1265ERGO   ROH16507   3.910   8.976   5.913  0.3480 -0.0813 -0.0428
 1265ERGO    R116508   4.083   8.941   6.134  0.2007 -0.2198  0.0545
 1265ERGO    R216509   4.062   9.090   6.365  0.2744 -0.1055 -0.0058
 1265ERGO    R316510   4.050   8.846   6.484 -0.0915 -0.0541  0.0736
 1265ERGO    R416511   4.158   9.025   6.690  0.1026 -0.1379  0.0388
 1265ERGO    R516512   4.247   8.838   6.621 -0.1373 -0.2831  0.1246
 1265ERGO    C116513   4.204   8.758   6.991 -0.3411 -0.1085  0.1394
 1265ERGO    C216514   4.199   8.875   7.312 -0.1925  0.0475 -0.2014
 1266ERGO   ROH16515   0.888   8.772   6.589  0.2089  0.0095  0.0620
 1266ERGO    R116516   0.690   8.683   6.772  0.0594  0.1222 -0.0423
 1266ERGO    R216517   0.709   8.442   6.906 -0.2208  0.0424 -0.1372
 1266ERGO    R316518   0.676   8.599   7.126 -0.1400 -0.0171 -0.0825
 1266ERGO    R416519   0.616   8.327   7.218 -0.1656 -0.0272 -0.1462
 1266ERGO    R516520   0.489   8.503   7.240 -0.1274 -0.0135 -0.0637
 1266ERGO    C116521   0.532   8.407   7.607 -0.0577 -0.1237 -0.1002
 1266ERGO    C216522   0.376   8.421   7.889 -0.0664 -0.0074  0.2497
 1267ERGO   ROH16523   4.543   9.964   6.270 -0.0430  0.2122  0.0175
 1267ERGO    R116524   4.545   9.824   6.517 -0.0552  0.0582 -0.0671
 1267ERGO    R216525   4.674   9.921   6.741  0.0610 -0.1499 -0.0352
 1267ERGO    R316526   4.430   9.886   6.857  0.0689 -0.0821  0.0000
 1267ERGO    R416527   4.621   9.873   7.079  0.0788 -0.0263 -0.0153
 1267ERGO    R516528   4.469   9.724   7.029  0.0609 -0.0232  0.0519
 1267ERGO    C116529   4.361   9.812   7.385  0.0966  0.1091  0.0294
 1267ERGO    C216530   4.486   9.888   7.667  0.4401 -0.3300 -0.1822
 1268ERGO   ROH16531   6.412  18.395   6.134  0.2535 -0.0610  0.0144
 1268ERGO    R116532   6.453  18.438   6.410  0.2349 -0.0181  0.0099
 1268ERGO    R216533   6.253  18.529   6.578  0.2350  0.0400 -0.0261
 1268ERGO    R316534   6.317  18.307   6.721  0.1889  0.0572  0.0230
 1268ERGO    R416535   6.156  18.469   6.904 -0.0659 -0.0175 -0.1221
 1268ERGO    R516536   6.355  18.389   6.943 -0.0645  0.0634  0.0687
 1268ERGO    C116537   6.161  18.227   7.229 -0.2843 -0.0345 -0.1318
 1268ERGO    C216538   6.102  18.096   7.464  0.2839  0.1536 -0.2406
 1269ERGO   ROH16539  15.270  17.811   5.962  0.1574  0.2401 -0.0626
 1269ERGO    R116540  15.473  17.778   6.156  0.1591  0.0428 -0.0961
 1269ERGO    R216541  15.648  17.981   6.224  0.0736  0.0197  0.2043
 1269ERGO    R316542  15.560  17.928   6.476  0.0797 -0.3779  0.1301
 1269ERGO    R416543  15.836  18.021   6.512 -0.1056  0.1293  0.3085
 1269ERGO    R516544  15.751  17.835   6.588  0.2237 -0.1111  0.1120
 1269ERGO    C116545  15.863  17.996   6.915 -0.2041 -0.1802  0.2995
 1269ERGO    C216546  15.994  18.002   7.291 -0.1187  0.0674  0.0525
 1270ERGO   ROH16547   1.023  13.680   6.188  0.1183 -0.3129  0.1194
 1270ERGO    R116548   0.871  13.757   6.414  0.0103 -0.0765 -0.0297
 1270ERGO    R216549   0.932  13.672   6.670 -0.2778 -0.0404  0.0509
 1270ERGO    R316550   0.931  13.938   6.724 -0.0605 -0.0168 -0.0495
 1270ERGO    R416551   0.895  13.809   6.985 -0.4865  0.1024 -0.0328
 1270ERGO    R516552   0.768  13.963   6.898 -0.2349  0.2107 -0.2345
 1270ERGO    C116553   0.874  14.139   7.219 -0.4040  0.2077 -0.1759
 1270ERGO    C216554   0.925  14.154   7.620 -0.1102 -0.1225  0.3937
 1271ERGO   ROH16555   1.984   3.068   6.349 -0.1216  0.2715 -0.0209
 1271ERGO    R116556   2.075   3.096   6.616 -0.1607 -0.0367  0.0293
 1271ERGO    R216557   2.032   3.325   6.764  0.1163 -0.0680  0.1696
 1271ERGO    R316558   1.925   3.151   6.943 -0.1891 -0.0441  0.0161
 1271ERGO    R416559   1.990   3.389   7.101  0.1129 -0.2575  0.2066
 1271ERGO    R516560   2.053   3.185   7.143 -0.1974 -0.3787  0.0792
 1271ERGO    C116561   1.864   3.263   7.465 -0.1759 -0.3453  0.0841
 1271ERGO    C216562   1.753   3.551   7.750 -0.0416 -0.1712  0.2543
 1272ERGO   ROH16563  12.450  14.647   6.554 -0.0823 -0.1653 -0.1739
 1272ERGO    R116564  12.535  14.654   6.824 -0.0547  0.0712 -0.1861
 1272ERGO    R216565  12.480  14.450   7.003 -0.0174  0.2146 -0.0063
 1272ERGO    R316566  12.749  14.453   7.039 -0.0136  0.2714 -0.0375
 1272ERGO    R416567  12.638  14.486   7.308  0.0095 -0.0758  0.0172
 1272ERGO    R516568  12.784  14.615   7.211 -0.0504  0.0888  0.1447
 1272ERGO    C116569  12.983  14.510   7.520  0.0286 -0.1917  0.0016
 1272ERGO    C216570  13.035  14.405   7.887  0.2940 -0.2685  0.0411
 1273ERGO   ROH16571   9.429  13.596   5.926 -0.0968 -0.1472  0.0883
 1273ERGO    R116572   9.410  13.346   6.056 -0.1427 -0.2023 -0.0232
 1273ERGO    R216573   9.350  13.323   6.326  0.0579 -0.3009  0.0130
 1273ERGO    R316574   9.152  13.160   6.234 -0.1146 -0.1376  0.0877
 1273ERGO    R416575   9.144  13.129   6.524  0.1605 -0.3403  0.0819
 1273ERGO    R516576   9.160  12.969   6.377 -0.0622 -0.2460 -0.0537
 1273ERGO    C116577   8.839  12.863   6.554  0.0583 -0.2098  0.1922
 1273ERGO    C216578   8.497  12.847   6.582  0.0956  0.0663  0.1822
 1274ERGO   ROH16579  11.614  14.810   6.460  0.0327 -0.1213 -0.1879
 1274ERGO    R116580  11.513  14.816   6.725  0.0076 -0.0509 -0.1991
 1274ERGO    R216581  11.478  14.587   6.876 -0.0356 -0.0131 -0.1532
 1274ERGO    R316582  11.633  14.721   7.055 -0.0366  0.0064 -0.1662
 1274ERGO    R416583  11.423  14.596   7.217 -0.0077 -0.0186 -0.1481
 1274ERGO    R516584  11.477  14.807   7.215 -0.0338 -0.0119 -0.1532
 1274ERGO    C116585  11.535  14.727   7.583  0.0074 -0.0037 -0.1573
 1274ERGO    C216586  11.326  14.681   7.845 -0.0364 -0.0645 -0.0783
 1275ERGO   ROH16587  13.327  12.601   6.347 -0.0327 -0.1084  0.0503
 1275ERGO    R116588  13.365  12.556   6.624 -0.0383 -0.0400  0.0614
 1275ERGO    R216589  13.516  12.724   6.782  0.0621 -0.0713 -0.0055
 1275ERGO    R316590  13.290  12.733   6.933  0.0776  0.0990  0.0115
 1275ERGO    R416591  13.509  12.757   7.126  0.1194 -0.2351  0.0130
 1275ERGO    R516592  13.346  12.612   7.131 -0.0399 -0.0642 -0.0513
 1275ERGO    C116593  13.292  12.784   7.468  0.1671 -0.1706  0.0397
 1275ERGO    C216594  13.355  13.030   7.705  0.0263  0.1045  0.3707
 1276ERGO   ROH16595   1.952   5.775   6.540 -0.0993  0.1085  0.1557
 1276ERGO    R116596   1.981   5.649   6.793  0.1284 -0.0719  0.0438
 1276ERGO    R216597   1.774   5.635   6.976  0.3978  0.1375  0.3713
 1276ERGO    R316598   1.828   5.369   6.967 -0.0063  0.0543  0.1329
 1276ERGO    R416599   1.701   5.410   7.228  0.3613  0.0881  0.3176
 1276ERGO    R516600   1.893   5.314   7.191  0.1831 -0.1805  0.0268
 1276ERGO    C116601   1.709   5.029   7.366 -0.0394 -0.0187  0.0625
 1276ERGO    C216602   1.636   4.882   7.633 -0.1031  0.0092  0.2234
 1277ERGO   ROH16603  14.498   5.525   8.307  0.2054  0.0648  0.1599
 1277ERGO    R116604  14.486   5.354   8.532  0.2148 -0.1304  0.0144
 1277ERGO    R216605  14.650   5.134   8.561  0.4646  0.0486 -0.0185
 1277ERGO    R316606  14.712   5.251   8.799  0.1085 -0.0591  0.1334
 1277ERGO    R416607  14.753   4.965   8.844  0.5527 -0.0414 -0.1033
 1277ERGO    R516608  14.629   5.098   8.963  0.2449 -0.3510 -0.0601
 1277ERGO    C116609  14.871   4.976   9.232  0.2697 -0.1949 -0.0099
 1277ERGO    C216610  15.014   4.923   9.477 -0.0189 -0.1925  0.0682
 1278ERGO   ROH16611  12.718  18.394   6.343 -0.0129  0.0651 -0.0468
 1278ERGO    R116612  12.691  18.397   6.625 -0.0765  0.0653 -0.0524
 1278ERGO    R216613  12.894  18.482   6.793 -0.0638 -0.0630  0.0002
 1278ERGO    R316614  12.701  18.648   6.889  0.0108  0.0461 -0.0375
 1278ERGO    R416615  12.903  18.638   7.101 -0.0861 -0.1529  0.0465
 1278ERGO    R516616  12.690  18.597   7.122 -0.1244 -0.0100 -0.0557
 1278ERGO    C116617  12.728  18.885   7.370 -0.0290 -0.1028  0.0379
 1278ERGO    C216618  12.745  18.946   7.733 -0.0021  0.1805 -0.0131
 1279ERGO   ROH16619   0.197   4.282   6.296  0.0540 -0.1243  0.0514
 1279ERGO    R116620  -0.008   4.269   6.491  0.0902 -0.0751  0.0933
 1279ERGO    R216621  -0.138   4.034   6.554 -0.1017 -0.0072 -0.0335
 1279ERGO    R316622  -0.061   4.098   6.807  0.0202 -0.2434 -0.0084
 1279ERGO    R416623  -0.244   3.871   6.840 -0.1851 -0.0958 -0.1142
 1279ERGO    R516624  -0.258   4.064   6.940  0.0201 -0.1453  0.0160
 1279ERGO    C116625  -0.233   3.836   7.244 -0.1191 -0.3691 -0.1377
 1279ERGO    C216626  -0.243   3.858   7.544  0.1426  0.2630  0.2755
 1280ERGO   ROH16627   0.900   3.116   5.960 -0.1055  0.1243 -0.0335
 1280ERGO    R116628   0.873   3.026   6.227 -0.0846  0.1736 -0.0154
 1280ERGO    R216629   1.073   3.054   6.414 -0.0350  0.1198 -0.0648
 1280ERGO    R316630   0.877   3.176   6.558  0.0457  0.2176 -0.0355
 1280ERGO    R416631   1.103   3.150   6.745 -0.0216 -0.1404  0.0120
 1280ERGO    R516632   0.898   3.082   6.778 -0.1049  0.0394 -0.0926
 1280ERGO    C116633   0.936   3.320   7.073  0.0619 -0.2001  0.0843
 1280ERGO    C216634   0.997   3.336   7.309 -0.1378 -0.1788 -0.1688
 1281ERGO   ROH16635   5.407   3.264   6.071  0.2966  0.1992  0.1364
 1281ERGO    R116636   5.309   3.115   6.291  0.2048  0.0593  0.0039
 1281ERGO    R216637   5.454   3.082   6.524  0.0899 -0.0490  0.0625
 1281ERGO    R316638   5.229   3.182   6.640  0.0141 -0.1484  0.0013
 1281ERGO    R416639   5.419   3.153   6.861 -0.0165 -0.0079  0.0430
 1281ERGO    R516640   5.217   3.072   6.852  0.0297 -0.1163  0.0175
 1281ERGO    C116641   5.187   3.288   7.165 -0.1495 -0.0773 -0.0258
 1281ERGO    C216642   5.202   3.554   7.327  0.0628 -0.0625  0.1658
 1282ERGO   ROH16643   8.927  17.653   6.038 -0.0135 -0.1931  0.0186
 1282ERGO    R116644   9.111  17.705   6.246 -0.0385 -0.1795  0.0369
 1282ERGO    R216645   9.161  17.960   6.341  0.0029 -0.1663 -0.0231
 1282ERGO    R316646   9.097  17.849   6.581 -0.0643 -0.0876 -0.0032
 1282ERGO    R416647   9.286  18.063   6.646 -0.1363 -0.0217 -0.0127
 1282ERGO    R516648   9.302  17.853   6.705 -0.1126  0.0041  0.0741
 1282ERGO    C116649   9.300  18.018   7.049 -0.2804  0.1364  0.0120
 1282ERGO    C216650   9.166  18.010   7.396 -0.0251  0.0587 -0.0254
 1283ERGO   ROH16651   5.626   4.208   6.169  0.0990 -0.1004 -0.0195
 1283ERGO    R116652   5.454   4.208   6.394  0.1732 -0.1045  0.0383
 1283ERGO    R216653   5.526   4.098   6.637  0.2999 -0.0048  0.0498
 1283ERGO    R316654   5.460   4.344   6.732  0.2328 -0.0021 -0.0040
 1283ERGO    R416655   5.611   4.218   6.949 -0.0886 -0.0656  0.1846
 1283ERGO    R516656   5.413   4.307   6.964 -0.0874 -0.0198 -0.0691
 1283ERGO    C116657   5.600   4.519   7.221 -0.3778 -0.0985  0.2125
 1283ERGO    C216658   5.654   4.729   7.416  0.2736  0.5072 -0.3982
 1284ERGO   ROH16659   6.303  15.571   6.345  0.0617  0.2973  0.1275
 1284ERGO    R116660   6.360  15.518   6.617  0.0049  0.2963  0.1397
 1284ERGO    R216661   6.178  15.566   6.820 -0.0824  0.1823  0.0903
 1284ERGO    R316662   6.225  15.305   6.880  0.0309  0.1987  0.0743
 1284ERGO    R416663   6.118  15.420   7.127  0.1328  0.1745  0.1302
 1284ERGO    R516664   6.304  15.309   7.105  0.1553  0.2309  0.0308
 1284ERGO    C116665   6.127  15.090   7.362  0.3644  0.1854  0.1384
 1284ERGO    C216666   5.897  15.040   7.608 -0.0976 -0.0625 -0.1874
 1285ERGO   ROH16667   7.129   7.581   7.990 -0.1492  0.1284  0.1747
 1285ERGO    R116668   6.976   7.663   7.767 -0.0316  0.0851  0.0772
 1285ERGO    R216669   6.702   7.626   7.754 -0.0115  0.0190 -0.0910
 1285ERGO    R316670   6.701   7.894   7.706 -0.0518  0.0177 -0.1017
 1285ERGO    R416671   6.418   7.820   7.713 -0.0604  0.0378  0.2990
 1285ERGO    R516672   6.520   7.927   7.554 -0.2693  0.0237  0.1457
 1285ERGO    C116673   6.252   8.183   7.645 -0.1267  0.0475  0.5161
 1285ERGO    C216674   6.133   8.527   7.694  0.0833  0.4233 -0.2752
 1286ERGO   ROH16675   5.924  12.824   6.512  0.0613  0.1731 -0.0808
 1286ERGO    R116676   5.777  12.827   6.754  0.0489  0.0831 -0.0880
 1286ERGO    R216677   5.792  12.623   6.939  0.0990  0.0534 -0.1303
 1286ERGO    R316678   5.853  12.826   7.110  0.0295  0.0362 -0.0830
 1286ERGO    R416679   5.687  12.642   7.268  0.0760 -0.0542 -0.1299
 1286ERGO    R516680   5.653  12.856   7.239  0.0108 -0.0549 -0.0853
 1286ERGO    C116681   5.683  12.844   7.619 -0.0027 -0.1331 -0.0853
 1286ERGO    C216682   5.665  12.856   7.933 -0.0941  0.0897 -0.2446
 1287ERGO   ROH16683   2.204  14.661   5.956 -0.0776  0.0801 -0.0618
 1287ERGO    R116684   2.200  14.811   6.197 -0.3007  0.0890 -0.0689
 1287ERGO    R216685   1.964  14.889   6.319 -0.4294 -0.3854  0.0101
 1287ERGO    R316686   2.074  14.764   6.535 -0.0913 -0.1574 -0.0221
 1287ERGO    R416687   1.889  14.961   6.649 -0.1614 -0.2659  0.0474
 1287ERGO    R516688   2.100  14.938   6.697 -0.0882 -0.0372 -0.1508
 1287ERGO    C116689   1.948  14.886   7.043  0.3121  0.0177  0.0389
 1287ERGO    C216690   2.078  14.867   7.431 -0.1498  0.0826 -0.0217
 1288ERGO   ROH16691   4.202  17.739   5.868 -0.1386  0.1521 -0.0269
 1288ERGO    R116692   4.203  17.882   6.113 -0.0464  0.0700  0.0198
 1288ERGO    R216693   4.075  17.791   6.339 -0.0323  0.0379  0.0073
 1288ERGO    R316694   4.320  17.824   6.453 -0.0026 -0.0781 -0.0182
 1288ERGO    R416695   4.136  17.794   6.680 -0.0135  0.0709  0.0048
 1288ERGO    R516696   4.277  17.957   6.647  0.0810 -0.0109 -0.0399
 1288ERGO    C116697   4.401  17.828   6.984  0.0255 -0.0187 -0.0207
 1288ERGO    C216698   4.354  17.934   7.364  0.0251  0.2007  0.3627
 1289ERGO   ROH16699   9.574   1.093   6.108  0.2363 -0.0104 -0.0253
 1289ERGO    R116700   9.439   1.101   6.357  0.1146  0.2937 -0.0958
 1289ERGO    R216701   9.470   0.905   6.549 -0.4444  0.2009 -0.0785
 1289ERGO    R316702   9.534   1.116   6.708 -0.0298  0.0587 -0.0465
 1289ERGO    R416703   9.530   0.887   6.889 -0.5332  0.0512 -0.0702
 1289ERGO    R516704   9.421   1.073   6.914 -0.1520  0.2773 -0.0710
 1289ERGO    C116705   9.625   1.075   7.236 -0.1957 -0.1695 -0.0354
 1289ERGO    C216706   9.859   1.071   7.498 -0.0449  0.1907  0.0657
 1290ERGO   ROH16707   5.742  12.427   6.514 -0.1814 -0.2456 -0.1342
 1290ERGO    R116708   5.691  12.246   6.726 -0.2350 -0.1428 -0.0607
 1290ERGO    R216709   5.893  12.113   6.860 -0.2856 -0.2069 -0.0676
 1290ERGO    R316710   5.775  12.223   7.079 -0.1698 -0.0747 -0.0681
 1290ERGO    R416711   5.910  11.983   7.180 -0.1729 -0.0808 -0.0201
 1290ERGO    R516712   5.700  12.035   7.207 -0.1617 -0.0141  0.0440
 1290ERGO    C116713   5.809  12.010   7.572  0.0015  0.1166  0.0069
 1290ERGO    C216714   5.986  11.915   7.991  0.1781  0.1701 -0.1293
 1291ERGO   ROH16715  16.736  10.100   6.813 -0.1640  0.1561 -0.3059
 1291ERGO    R116716  16.672  10.356   6.916 -0.2364  0.0529 -0.0887
 1291ERGO    R216717  16.536  10.391   7.154 -0.0614 -0.1841  0.0502
 1291ERGO    R316718  16.750  10.546   7.216 -0.1032 -0.0923 -0.0291
 1291ERGO    R416719  16.529  10.661   7.370 -0.1596 -0.0056 -0.1714
 1291ERGO    R516720  16.660  10.767   7.233 -0.1489 -0.0925 -0.2312
 1291ERGO    C116721  16.726  10.964   7.553 -0.2560  0.1843 -0.3748
 1291ERGO    C216722  16.700  11.073   7.864 -0.1679  0.3660  0.2136
 1292ERGO   ROH16723   6.701  14.158   6.164  0.1873 -0.0430  0.0339
 1292ERGO    R116724   6.770  14.071   6.424  0.1006  0.1136  0.1114
 1292ERGO    R216725   6.966  13.881   6.471 -0.1487 -0.1172  0.2708
 1292ERGO    R316726   7.068  14.073   6.633  0.1341 -0.0911  0.0642
 1292ERGO    R416727   7.211  13.829   6.709 -0.1554 -0.1908  0.2613
 1292ERGO    R516728   7.103  13.963   6.842  0.0469  0.0701  0.1592
 1292ERGO    C116729   7.450  13.980   7.000  0.1063 -0.2090  0.0618
 1292ERGO    C216730   7.805  13.963   7.021  0.0965  0.2133 -0.2115
 1293ERGO   ROH16731   8.784  15.417   6.361  0.2334  0.1259  0.0158
 1293ERGO    R116732   8.639  15.478   6.596  0.2685  0.0686  0.0531
 1293ERGO    R216733   8.585  15.289   6.791  0.1383 -0.0267 -0.0694
 1293ERGO    R316734   8.703  15.472   6.954  0.2594 -0.2095  0.0520
 1293ERGO    R416735   8.581  15.278   7.136  0.0677 -0.2061 -0.0753
 1293ERGO    R516736   8.551  15.494   7.138  0.2447 -0.1832  0.0347
 1293ERGO    C116737   8.689  15.443   7.491  0.1401 -0.4822  0.0351
 1293ERGO    C216738   8.630  15.529   7.859  0.2576  0.1475  0.0414
 1294ERGO   ROH16739   1.280   9.966   6.768  0.2972 -0.0919 -0.0666
 1294ERGO    R116740   1.314   9.859   7.028  0.3100 -0.1037 -0.0757
 1294ERGO    R216741   1.509   9.949   7.202  0.1749  0.0341 -0.0107
 1294ERGO    R316742   1.298   9.984   7.370  0.0998 -0.1763 -0.0543
 1294ERGO    R416743   1.528   9.952   7.547  0.1532  0.2557 -0.0077
 1294ERGO    R516744   1.342   9.838   7.554  0.3047 -0.0191  0.0351
 1294ERGO    C116745   1.340   9.986   7.905  0.0700  0.1871 -0.0470
 1294ERGO    C216746   1.187  10.158   8.193 -0.0060  0.5103  0.1834
 1295ERGO   ROH16747   4.139   7.068   6.148 -0.3830  0.0815  0.1189
 1295ERGO    R116748   4.189   6.897   6.368 -0.3894  0.0193  0.0737
 1295ERGO    R216749   4.378   6.954   6.561 -0.2137 -0.1568 -0.0357
 1295ERGO    R316750   4.169   6.919   6.730 -0.1413  0.0110  0.0893
 1295ERGO    R416751   4.403   6.832   6.883 -0.1316 -0.3084 -0.1000
 1295ERGO    R516752   4.221   6.717   6.849 -0.2836 -0.0935 -0.0247
 1295ERGO    C116753   4.221   6.727   7.230 -0.0159 -0.2392 -0.0201
 1295ERGO    C216754   4.303   6.838   7.636 -0.4861 -0.1790 -0.3394
 1296ERGO   ROH16755   4.267   4.857   6.095 -0.1392 -0.0711  0.0945
 1296ERGO    R116756   4.327   5.103   6.222 -0.2817 -0.0964  0.2135
 1296ERGO    R216757   4.309   5.137   6.496 -0.0129 -0.3293  0.2631
 1296ERGO    R316758   4.567   5.221   6.470 -0.1350 -0.0091  0.0331
 1296ERGO    R416759   4.499   5.273   6.751  0.1036 -0.2821  0.1517
 1296ERGO    R516760   4.579   5.417   6.608 -0.2203 -0.0850  0.1543
 1296ERGO    C116761   4.851   5.431   6.875  0.0567  0.0460 -0.1290
 1296ERGO    C216762   4.887   5.285   7.178 -0.0466 -0.1347 -0.3701
 1297ERGO   ROH16763  10.944  18.378   5.749  0.0273  0.0169 -0.1211
 1297ERGO    R116764  11.093  18.363   5.989  0.0356  0.0018 -0.1271
 1297ERGO    R216765  11.290  18.545   6.054  0.0814 -0.0374 -0.1507
 1297ERGO    R316766  11.144  18.573   6.282  0.0975  0.0137 -0.1467
 1297ERGO    R416767  11.378  18.744   6.322  0.1112  0.0025 -0.1901
 1297ERGO    R516768  11.308  18.587   6.455  0.1076  0.0320 -0.1590
 1297ERGO    C116769  11.293  18.886   6.692  0.1436  0.0737 -0.2094
 1297ERGO    C216770  11.385  18.978   7.040  0.3801  0.0197  0.0577
 1298ERGO   ROH16771  16.060  10.509   6.319  0.0798  0.0023 -0.0568
 1298ERGO    R116772  16.174  10.654   6.533  0.0683  0.0196 -0.0630
 1298ERGO    R216773  16.023  10.808   6.706  0.0502 -0.0354 -0.0344
 1298ERGO    R316774  16.145  10.657   6.896  0.1181 -0.0112 -0.0577
 1298ERGO    R416775  16.007  10.868   7.046 -0.0964 -0.1702 -0.0157
 1298ERGO    R516776  16.218  10.816   7.060 -0.0539 -0.0083  0.0224
 1298ERGO    C116777  16.113  10.762   7.422 -0.1178 -0.2259 -0.0267
 1298ERGO    C216778  15.923  10.669   7.802  0.1390  0.1160  0.1394
 1299ERGO   ROH16779  10.120  12.598   6.094 -0.1920  0.1993 -0.0372
 1299ERGO    R116780  10.158  12.518   6.363 -0.1052  0.2258 -0.0414
 1299ERGO    R216781  10.053  12.659   6.576 -0.1313  0.1839 -0.0272
 1299ERGO    R316782   9.946  12.417   6.642 -0.0070  0.1361  0.0015
 1299ERGO    R416783   9.976  12.559   6.898 -0.1067  0.1945 -0.0179
 1299ERGO    R516784  10.053  12.360   6.849  0.0056  0.2274  0.0211
 1299ERGO    C116785   9.831  12.273   7.147  0.0244  0.1558  0.0146
 1299ERGO    C216786   9.896  12.127   7.418 -0.1147  0.0324  0.0598
 1300ERGO   ROH16787  11.389  17.891   5.949  0.0736  0.0217  0.0502
 1300ERGO    R116788  11.457  17.985   6.208  0.0234  0.0544  0.0520
 1300ERGO    R216789  11.283  18.135   6.362 -0.0512 -0.0225  0.0476
 1300ERGO    R316790  11.331  17.941   6.546  0.0324 -0.0016  0.0472
 1300ERGO    R416791  11.236  18.170   6.703 -0.0872 -0.0558  0.0458
 1300ERGO    R516792  11.420  18.059   6.735 -0.0371  0.0352  0.0547
 1300ERGO    C116793  11.254  18.008   7.074 -0.0297 -0.0559  0.0444
 1300ERGO    C216794  11.119  18.118   7.272 -0.0107  0.2132 -0.2151
 1301ERGO   ROH16795   8.092  16.849   6.144  0.0543  0.0945 -0.0146
 1301ERGO    R116796   7.976  16.738   6.377 -0.1126  0.2312 -0.0291
 1301ERGO    R216797   8.128  16.651   6.592 -0.2319 -0.0728 -0.0574
 1301ERGO    R316798   7.967  16.820   6.732  0.0571  0.1715 -0.0111
 1301ERGO    R416799   8.081  16.643   6.934 -0.1344  0.0159 -0.0424
 1301ERGO    R516800   7.870  16.683   6.902 -0.0881  0.3224  0.0263
 1301ERGO    C116801   7.903  16.797   7.265  0.1937  0.2969  0.0097
 1301ERGO    C216802   7.789  17.074   7.618  0.0235 -0.0055 -0.1971
 1302ERGO   ROH16803   1.439  15.715   6.025 -0.0453  0.0609 -0.0868
 1302ERGO    R116804   1.577  15.714   6.273  0.0124 -0.2017 -0.1169
 1302ERGO    R216805   1.548  15.916   6.460  0.4124 -0.1586 -0.0944
 1302ERGO    R316806   1.486  15.709   6.625  0.0795 -0.0662 -0.0968
 1302ERGO    R416807   1.571  15.923   6.805  0.2046 -0.1250 -0.0802
 1302ERGO    R516808   1.649  15.720   6.800 -0.0138 -0.2159  0.0037
 1302ERGO    C116809   1.526  15.733   7.160 -0.2289 -0.0186 -0.0742
 1302ERGO    C216810   1.645  15.850   7.520 -0.2604  0.2037 -0.1053
 1303ERGO   ROH16811  16.456   6.828   6.430 -0.1118 -0.0316  0.0086
 1303ERGO    R116812  16.325   6.743   6.666 -0.0248 -0.1097  0.0290
 1303ERGO    R216813  16.463   6.667   6.894  0.0563 -0.0531 -0.0023
 1303ERGO    R316814  16.305   6.854   7.012 -0.0152 -0.1384  0.0392
 1303ERGO    R416815  16.435   6.715   7.235  0.0601 -0.1224  0.0081
 1303ERGO    R516816  16.221   6.745   7.208  0.0436 -0.2080  0.0276
 1303ERGO    C116817  16.270   6.918   7.545 -0.0048 -0.2428  0.0531
 1303ERGO    C216818  16.138   6.867   7.909 -0.2137 -0.0365  0.2900
 1304ERGO   ROH16819  13.378  11.594   5.985  0.0731  0.0159 -0.0998
 1304ERGO    R116820  13.501  11.518   6.229  0.0196 -0.0168 -0.0790
 1304ERGO    R216821  13.479  11.668   6.460  0.0466  0.0100 -0.0746
 1304ERGO    R316822  13.391  11.434   6.566 -0.0591  0.0444 -0.0942
 1304ERGO    R416823  13.521  11.572   6.789  0.0396 -0.0855 -0.1040
 1304ERGO    R516824  13.563  11.369   6.719 -0.0852 -0.0824 -0.1363
 1304ERGO    C116825  13.463  11.296   7.080 -0.0637 -0.1090 -0.1395
 1304ERGO    C216826  13.357  11.161   7.474  0.3538 -0.1123 -0.0509
 1305ERGO   ROH16827  11.124   9.591   6.148  0.3988  0.2360 -0.0480
 1305ERGO    R116828  11.109   9.454   6.396  0.2138  0.1204 -0.1195
 1305ERGO    R216829  11.325   9.434   6.568  0.1043 -0.0089  0.0089
 1305ERGO    R316830  11.150   9.539   6.748  0.0142 -0.0551 -0.0525
 1305ERGO    R416831  11.361   9.416   6.911 -0.0944 -0.1450  0.0236
 1305ERGO    R516832  11.146   9.379   6.926 -0.1091 -0.1233 -0.1146
 1305ERGO    C116833  11.218   9.504   7.280 -0.2946 -0.2676 -0.0256
 1305ERGO    C216834  11.289   9.724   7.677 -0.0911 -0.0833 -0.3903
 1306ERGO   ROH16835  11.599   4.262   6.023  0.0464 -0.0441  0.0497
 1306ERGO    R116836  11.478   4.359   6.260  0.0268 -0.1937  0.1045
 1306ERGO    R216837  11.522   4.243   6.509  0.2714 -0.1539  0.0971
 1306ERGO    R316838  11.592   4.497   6.577  0.0043 -0.0686  0.0536
 1306ERGO    R416839  11.524   4.369   6.830  0.3700 -0.1400  0.0895
 1306ERGO    R516840  11.442   4.555   6.754  0.0814 -0.2513  0.1648
 1306ERGO    C116841  11.590   4.681   7.082  0.1766 -0.0518  0.0443
 1306ERGO    C216842  11.744   4.638   7.365  0.0967 -0.1634  0.3361
 1307ERGO   ROH16843   8.188  12.223   6.252  0.0251 -0.1364  0.1016
 1307ERGO    R116844   8.351  12.207   6.483  0.0615  0.1363  0.0982
 1307ERGO    R216845   8.360  12.408   6.673 -0.2901  0.1465  0.1115
 1307ERGO    R316846   8.300  12.205   6.843  0.0690  0.0220  0.0985
 1307ERGO    R416847   8.360  12.432   7.018 -0.1892  0.0773  0.1169
 1307ERGO    R516848   8.450  12.234   7.027  0.1017  0.2025  0.0445
 1307ERGO    C116849   8.303  12.254   7.378  0.2066 -0.0798  0.1079
 1307ERGO    C216850   8.062  12.327   7.658  0.3975  0.2068  0.1284
 1308ERGO   ROH16851   2.646   2.024   6.043 -0.0695  0.3106  0.1664
 1308ERGO    R116852   2.680   1.905   6.297 -0.1216  0.2098  0.1261
 1308ERGO    R216853   2.912   1.933   6.445 -0.1130  0.0682  0.1377
 1308ERGO    R316854   2.741   2.020   6.637 -0.0826  0.0708  0.1679
 1308ERGO    R416855   2.951   1.877   6.784  0.0102  0.1697  0.1415
 1308ERGO    R516856   2.737   1.842   6.797  0.0200  0.1086  0.2173
 1308ERGO    C116857   2.813   1.926   7.161  0.1105  0.2313  0.1720
 1308ERGO    C216858   2.836   2.008   7.375  0.3006  0.1423  0.1410
 1309ERGO   ROH16859  10.890  17.174   6.268 -0.0585 -0.1021  0.1094
 1309ERGO    R116860  11.000  17.233   6.522  0.0938  0.1375 -0.0106
 1309ERGO    R216861  11.014  17.490   6.622 -0.2379  0.1810 -0.0900
 1309ERGO    R316862  10.883  17.379   6.834  0.1519  0.0105  0.0749
 1309ERGO    R416863  10.996  17.629   6.938 -0.5104  0.4833 -0.2316
 1309ERGO    R516864  11.022  17.430   7.022  0.1030  0.6193 -0.0233
 1309ERGO    C116865  10.863  17.607   7.320 -0.3032  0.4993 -0.1592
 1309ERGO    C216866  10.904  17.741   7.575 -0.2904  0.0592  0.0544
 1310ERGO   ROH16867  11.087  10.025   5.928 -0.1812 -0.1883  0.0181
 1310ERGO    R116868  11.274   9.992   6.138 -0.1279 -0.2866 -0.0451
 1310ERGO    R216869  11.279  10.156   6.360  0.1926 -0.1266 -0.1645
 1310ERGO    R316870  11.261   9.920   6.494 -0.0650 -0.0117  0.0143
 1310ERGO    R416871  11.313  10.120   6.702  0.0804  0.0902 -0.1271
 1310ERGO    R516872  11.426   9.937   6.667 -0.0880 -0.0460  0.0372
 1310ERGO    C116873  11.317   9.878   7.027 -0.2266  0.3242  0.0625
 1310ERGO    C216874  11.445   9.965   7.294  0.1042 -0.3445  0.0430
 1311ERGO   ROH16875   0.049  16.412   6.188 -0.0090 -0.3393  0.0892
 1311ERGO    R116876   0.150  16.454   6.449 -0.1658 -0.2583  0.1383
 1311ERGO    R216877   0.362  16.624   6.500  0.0583 -0.5352  0.1559
 1311ERGO    R316878   0.187  16.736   6.676  0.0741 -0.0996 -0.0922
 1311ERGO    R416879   0.445  16.741   6.815 -0.0460 -0.4522  0.1535
 1311ERGO    R516880   0.259  16.657   6.890 -0.2728 -0.0745  0.0390
 1311ERGO    C116881   0.330  16.915   7.162 -0.0919  0.0050 -0.0807
 1311ERGO    C216882   0.447  17.123   7.464 -0.1836  0.1107 -0.1364
 1312ERGO   ROH16883  12.753   0.452   6.409  0.0008 -0.0110  0.1101
 1312ERGO    R116884  12.790   0.656   6.602 -0.0288  0.0279  0.0750
 1312ERGO    R216885  12.601   0.713   6.795  0.0371 -0.0831  0.1753
 1312ERGO    R316886  12.811   0.676   6.964  0.1562  0.0665  0.0628
 1312ERGO    R416887  12.617   0.833   7.119  0.1148 -0.0989  0.1775
 1312ERGO    R516888  12.826   0.883   7.085  0.0588  0.0684  0.0712
 1312ERGO    C116889  12.822   0.868   7.466  0.2720  0.0323  0.0730
 1312ERGO    C216890  12.767   0.977   7.816  0.5115  0.1626  0.0866
 1313ERGO   ROH16891   5.059   9.650   6.607 -0.1356 -0.2704 -0.0668
 1313ERGO    R116892   4.928   9.604   6.853 -0.1664 -0.1225 -0.0536
 1313ERGO    R216893   5.023   9.425   7.041 -0.3718 -0.2689 -0.0804
 1313ERGO    R316894   5.007   9.641   7.206 -0.0685 -0.2577 -0.0612
 1313ERGO    R416895   4.977   9.410   7.384 -0.6645 -0.2358 -0.1160
 1313ERGO    R516896   4.842   9.580   7.369 -0.3195  0.0412 -0.1953
 1313ERGO    C116897   4.936   9.603   7.738 -0.5502 -0.2060 -0.1188
 1313ERGO    C216898   4.852   9.720   8.096  0.2188  0.2535  0.0340
 1314ERGO   ROH16899  17.470   6.716   6.349  0.2109 -0.0729  0.1007
 1314ERGO    R116900  17.487   6.588   6.601  0.2854 -0.0185  0.1244
 1314ERGO    R216901  17.685   6.645   6.784  0.1807  0.2253  0.1690
 1314ERGO    R316902  17.475   6.689   6.950  0.0868  0.0245  0.1062
 1314ERGO    R416903  17.694   6.605   7.127  0.1698  0.4042  0.1906
 1314ERGO    R516904  17.494   6.518   7.117  0.2866  0.1292  0.1932
 1314ERGO    C116905  17.502   6.623   7.483  0.0752  0.3201  0.1442
 1314ERGO    C216906  17.412   6.664   7.769 -0.2194 -0.0322 -0.1432
 1315ERGO   ROH16907  11.015  16.106   6.359  0.0243 -0.1195 -0.0147
 1315ERGO    R116908  11.101  16.146   6.626 -0.0432  0.0587 -0.0180
 1315ERGO    R216909  10.966  16.309   6.803 -0.3019 -0.1133 -0.0515
 1315ERGO    R316910  10.967  16.086   6.959  0.0336 -0.0909 -0.0130
 1315ERGO    R416911  10.847  16.293   7.127 -0.2481 -0.2303 -0.0367
 1315ERGO    R516912  11.016  16.166   7.179 -0.0579  0.0185 -0.0315
 1315ERGO    C116913  10.777  16.074   7.461  0.0981 -0.2774  0.0079
 1315ERGO    C216914  10.616  15.991   7.727  0.1680 -0.1735 -0.1123
 1316ERGO   ROH16915   7.256   7.860   6.024 -0.1534 -0.0548  0.0779
 1316ERGO    R116916   7.324   7.913   6.294 -0.0239 -0.0192  0.0388
 1316ERGO    R216917   7.135   7.955   6.490  0.0705  0.0554  0.1151
 1316ERGO    R316918   7.268   7.755   6.616  0.0855  0.0515  0.0932
 1316ERGO    R416919   7.055   7.833   6.803  0.0065 -0.0647  0.0527
 1316ERGO    R516920   7.268   7.820   6.847 -0.0034 -0.0205  0.1146
 1316ERGO    C116921   7.134   7.573   7.105 -0.0166 -0.1384 -0.0041
 1316ERGO    C216922   6.939   7.459   7.354  0.0358 -0.0927  0.1248
 1317ERGO   ROH16923  16.171   0.637   6.139 -0.0055  0.0893 -0.0228
 1317ERGO    R116924  16.291   0.853   6.278  0.1085  0.0207 -0.0135
 1317ERGO    R216925  16.144   1.030   6.432  0.1984  0.1072 -0.0285
 1317ERGO    R316926  16.321   0.959   6.625  0.1398  0.0053 -0.0113
 1317ERGO    R416927  16.232   1.227   6.702  0.2214  0.0230  0.0261
 1317ERGO    R516928  16.438   1.161   6.677  0.2033 -0.0456  0.0491
 1317ERGO    C116929  16.450   1.275   7.041  0.1798 -0.1217  0.0741
 1317ERGO    C216930  16.504   1.392   7.367  0.0033  0.1560  0.4104
 1318ERGO   ROH16931  13.713   0.149   6.304 -0.0037 -0.1955  0.0101
 1318ERGO    R116932  13.756   0.080   6.575  0.2349 -0.0438  0.0148
 1318ERGO    R216933  13.935   0.215   6.737 -0.0011  0.3959 -0.0679
 1318ERGO    R316934  13.718   0.243   6.898 -0.0257 -0.0441 -0.0153
 1318ERGO    R416935  13.946   0.302   7.071 -0.1097  0.5341 -0.0998
 1318ERGO    R516936  13.789   0.156   7.109  0.2291  0.1858 -0.0068
 1318ERGO    C116937  13.748   0.378   7.417 -0.1960  0.2016 -0.0691
 1318ERGO    C216938  13.676   0.473   7.737  0.0479 -0.2790  0.2831
 1319ERGO   ROH16939  14.203   3.798   6.101 -0.1043 -0.2214  0.0373
 1319ERGO    R116940  14.421   3.811   6.281 -0.1715 -0.2507  0.1219
 1319ERGO    R216941  14.597   4.024   6.287  0.0736 -0.4401 -0.0672
 1319ERGO    R316942  14.530   4.030   6.551 -0.0461 -0.0347 -0.1006
 1319ERGO    R416943  14.823   4.035   6.548 -0.0332 -0.4700  0.0274
 1319ERGO    R516944  14.696   3.895   6.658 -0.2929 -0.1600  0.1361
 1319ERGO    C116945  14.892   4.047   6.947 -0.2076 -0.1069  0.0512
 1319ERGO    C216946  15.091   4.175   7.048  0.3547 -0.1951 -0.2937
 1320ERGO   ROH16947  17.738  18.281   6.413  0.0492 -0.0427 -0.0068
 1320ERGO    R116948  17.806  18.379   6.670  0.0615  0.0178 -0.0334
 1320ERGO    R216949  17.617  18.468   6.851  0.0687  0.0323 -0.0352
 1320ERGO    R316950  17.735  18.287   7.015  0.1050  0.0807 -0.0072
 1320ERGO    R416951  17.658  18.508   7.192 -0.0980  0.0187 -0.0122
 1320ERGO    R516952  17.857  18.420   7.173 -0.0373  0.1348  0.0601
 1320ERGO    C116953  17.794  18.361   7.544 -0.1612  0.0560  0.0275
 1320ERGO    C216954  17.833  18.435   7.897 -0.2023  0.1338 -0.1683
 1321ERGO   ROH16955  10.530   3.894   5.770 -0.1399 -0.0512  0.0387
 1321ERGO    R116956  10.542   3.794   6.035 -0.1814 -0.0792  0.0301
 1321ERGO    R216957  10.650   3.939   6.244 -0.1849 -0.1145  0.0554
 1321ERGO    R316958  10.409   3.889   6.360 -0.2035 -0.0945  0.0258
 1321ERGO    R416959  10.584   3.965   6.582 -0.2370 -0.0570  0.0411
 1321ERGO    R516960  10.464   3.784   6.568 -0.2356 -0.0599  0.0525
 1321ERGO    C116961  10.320   3.934   6.888 -0.2849 -0.0047  0.0050
 1321ERGO    C216962  10.192   3.958   7.251  0.5839  0.1891  0.0152
 1322ERGO   ROH16963  17.035   3.175   6.611  0.0609  0.0288  0.0970
 1322ERGO    R116964  17.243   3.078   6.777  0.0164  0.0499  0.1657
 1322ERGO    R216965  17.425   3.245   6.901  0.0043  0.0634  0.1655
 1322ERGO    R316966  17.343   3.116   7.125 -0.0561  0.1243  0.1788
 1322ERGO    R416967  17.577   3.270   7.211 -0.0010  0.0472  0.1693
 1322ERGO    R516968  17.545   3.056   7.238 -0.0837  0.0621  0.1963
 1322ERGO    C116969  17.587   3.163   7.601 -0.0607  0.0949  0.1840
 1322ERGO    C216970  17.782   3.146   7.883  0.3201  0.0831 -0.1027
 1323ERGO   ROH16971  11.300   7.105   6.289 -0.0935  0.0016 -0.1280
 1323ERGO    R116972  11.112   7.133   6.499 -0.0237  0.0407 -0.0697
 1323ERGO    R216973  10.928   6.937   6.561 -0.0513  0.0793 -0.0154
 1323ERGO    R316974  11.035   6.960   6.810  0.0333  0.0520 -0.0500
 1323ERGO    R416975  10.773   6.837   6.854  0.1230 -0.1103  0.0138
 1323ERGO    R516976  10.849   7.017   6.950  0.0586 -0.1028  0.0450
 1323ERGO    C116977  10.783   6.801   7.257  0.3040 -0.2465 -0.0018
 1323ERGO    C216978  10.630   6.734   7.601 -0.0601  0.3059  0.1514
 1324ERGO   ROH16979   3.494  14.293   6.475  0.2637 -0.2113  0.0715
 1324ERGO    R116980   3.498  14.346   6.753  0.2363  0.0617  0.0228
 1324ERGO    R216981   3.569  14.593   6.857 -0.0451  0.2541 -0.2202
 1324ERGO    R316982   3.329  14.574   6.981 -0.0099  0.0818 -0.1766
 1324ERGO    R416983   3.485  14.755   7.150 -0.0339  0.0097 -0.0789
 1324ERGO    R516984   3.382  14.575   7.214  0.0424 -0.0728 -0.1877
 1324ERGO    C116985   3.210  14.832   7.437  0.0055 -0.2944  0.0443
 1324ERGO    C216986   3.252  15.048   7.654  0.1262 -0.0633  0.1251
 1325ERGO   ROH16987   2.169   9.529   6.488  0.2327 -0.5536 -0.0482
 1325ERGO    R116988   2.127   9.484   6.764  0.0771 -0.2393 -0.0171
 1325ERGO    R216989   2.193   9.245   6.888 -0.0983 -0.1404  0.2690
 1325ERGO    R316990   2.334   9.408   7.053 -0.1001 -0.0336  0.1682
 1325ERGO    R416991   2.230   9.198   7.228  0.1438 -0.0956  0.2517
 1325ERGO    R516992   2.207   9.412   7.256  0.0191 -0.1045  0.2488
 1325ERGO    C116993   2.384   9.323   7.582  0.2831  0.0307  0.1469
 1325ERGO    C216994   2.555   9.318   7.870  0.2293  0.1519  0.1213
 1326ERGO   ROH16995   3.761  12.022   6.160 -0.3539 -0.1719 -0.0125
 1326ERGO    R116996   3.776  11.997   6.441 -0.2085 -0.1540 -0.0173
 1326ERGO    R216997   3.557  12.034   6.606 -0.1115 -0.0771  0.1012
 1326ERGO    R316998   3.624  11.787   6.697 -0.1329 -0.0898  0.0799
 1326ERGO    R416999   3.460  11.904   6.911 -0.2372 -0.1515  0.0291
 1326ERGO    R517000   3.659  11.818   6.932 -0.2420 -0.1385  0.1013
 1326ERGO    C117001   3.466  11.595   7.174 -0.3305 -0.2068 -0.0329
 1326ERGO    C217002   3.487  11.377   7.474  0.0754 -0.1352 -0.1404
 1327ERGO   ROH17003  12.530   4.861   5.789 -0.0305  0.0388  0.1284
 1327ERGO    R117004  12.618   4.757   6.037 -0.0806  0.0154  0.1369
 1327ERGO    R217005  12.664   4.917   6.257 -0.0214  0.0089  0.1312
 1327ERGO    R317006  12.492   4.744   6.378 -0.0971  0.0857  0.1331
 1327ERGO    R417007  12.611   4.899   6.598 -0.1454  0.1397  0.1194
 1327ERGO    R517008  12.604   4.681   6.581 -0.1812  0.1355  0.1951
 1327ERGO    C117009  12.418   4.727   6.911 -0.2885  0.2879  0.1144
 1327ERGO    C217010  12.204   4.760   7.227  0.2772 -0.4065 -0.3537
 1328ERGO   ROH17011  10.481   0.177   5.610  0.0201 -0.3111  0.0968
 1328ERGO    R117012  10.474   0.141   5.891 -0.0008 -0.1678  0.1144
 1328ERGO    R217013  10.544  -0.098   6.011  0.0482 -0.0821  0.2421
 1328ERGO    R317014  10.714   0.060   6.152 -0.0101  0.0315  0.1889
 1328ERGO    R417015  10.655  -0.163   6.332  0.4331 -0.1905  0.0932
 1328ERGO    R517016  10.634   0.049   6.378  0.2094 -0.2375  0.2651
 1328ERGO    C117017  10.880  -0.053   6.651  0.6027 -0.1473 -0.0435
 1328ERGO    C217018  11.051   0.074   6.962 -0.3644 -0.0438 -0.3499
 1329ERGO   ROH17019   3.624   1.726   6.140  0.0244 -0.3522  0.1462
 1329ERGO    R117020   3.556   1.741   6.415  0.0235 -0.1293  0.1362
 1329ERGO    R217021   3.307   1.667   6.510  0.0404 -0.1068  0.2041
 1329ERGO    R317022   3.454   1.508   6.675  0.0821  0.0706  0.3409
 1329ERGO    R417023   3.177   1.477   6.768 -0.0081 -0.4424 -0.0607
 1329ERGO    R517024   3.350   1.533   6.889 -0.2686 -0.1967  0.2099
 1329ERGO    C117025   3.239   1.217   7.073  0.0029 -0.4713 -0.0863
 1329ERGO    C217026   3.155   0.980   7.355 -0.2637  0.2723 -0.1790
 1330ERGO   ROH17027  15.314   9.969   6.116 -0.0330  0.0297  0.1021
 1330ERGO    R117028  15.423   9.979   6.376 -0.0287  0.0989  0.0987
 1330ERGO    R217029  15.362  10.180   6.556 -0.2437  0.0015  0.1437
 1330ERGO    R317030  15.296   9.972   6.717 -0.0077 -0.1100  0.1028
 1330ERGO    R417031  15.339  10.197   6.900 -0.3168 -0.0838  0.1433
 1330ERGO    R517032  15.433  10.001   6.911 -0.0718  0.0311  0.1266
 1330ERGO    C117033  15.263  10.012   7.252 -0.1377 -0.2380  0.1046
 1330ERGO    C217034  15.150  10.274   7.539 -0.3896 -0.0009  0.0964
 1331ERGO   ROH17035  14.124  13.547   6.169  0.0866  0.1514 -0.0263
 1331ERGO    R117036  14.191  13.456   6.429 -0.1250  0.0625 -0.0026
 1331ERGO    R217037  14.326  13.613   6.612  0.0864 -0.1408  0.0087
 1331ERGO    R317038  14.114  13.552   6.771 -0.0523  0.2161 -0.0261
 1331ERGO    R417039  14.339  13.584   6.956 -0.0059 -0.1676  0.0116
 1331ERGO    R517040  14.206  13.412   6.941 -0.3068  0.0475 -0.0132
 1331ERGO    C117041  14.148  13.509   7.306 -0.1899  0.1519 -0.0192
 1331ERGO    C217042  14.045  13.432   7.586 -0.0151  0.0863  0.1448
 1332ERGO   ROH17043   5.493   9.673   6.217  0.0403 -0.0868 -0.0742
 1332ERGO    R117044   5.595   9.596   6.469 -0.0600  0.2879  0.0877
 1332ERGO    R217045   5.494   9.693   6.707 -0.6850  0.0613 -0.0696
 1332ERGO    R317046   5.468   9.429   6.766  0.0253 -0.0212 -0.0439
 1332ERGO    R417047   5.452   9.566   7.026 -0.5331  0.0057 -0.0714
 1332ERGO    R517048   5.587   9.403   6.973 -0.0212  0.3624  0.0423
 1332ERGO    C117049   5.404   9.245   7.267  0.2220 -0.1040 -0.0483
 1332ERGO    C217050   5.362   9.130   7.588 -0.5328  0.0842 -0.1539
 1333ERGO   ROH17051   6.015   6.568   6.091 -0.1727 -0.0247 -0.0110
 1333ERGO    R117052   6.053   6.662   6.355  0.0986 -0.0614 -0.0348
 1333ERGO    R217053   6.301   6.736   6.453  0.1679  0.1087 -0.3433
 1333ERGO    R317054   6.173   6.968   6.512  0.0623 -0.0047 -0.1118
 1333ERGO    R417055   6.388   6.949   6.710  0.1830 -0.0420 -0.2223
 1333ERGO    R517056   6.176   6.978   6.751  0.1755 -0.1897 -0.0971
 1333ERGO    C117057   6.318   7.291   6.916  0.0927 -0.2363  0.0655
 1333ERGO    C217058   6.586   7.656   7.134 -0.0414  0.3927  0.0936
 1334ERGO   ROH17059   1.025   2.072   7.529  0.1719 -0.0628  0.1013
 1334ERGO    R117060   1.076   1.821   7.407  0.1365 -0.0903  0.1390
 1334ERGO    R217061   1.144   1.596   7.552 -0.0510 -0.1235  0.1899
 1334ERGO    R317062   0.933   1.487   7.420 -0.0220 -0.0246  0.0642
 1334ERGO    R417063   1.102   1.259   7.490 -0.0695 -0.0802 -0.0315
 1334ERGO    R517064   1.029   1.309   7.291 -0.0079  0.0467 -0.0170
 1334ERGO    C117065   0.881   0.960   7.329 -0.0530  0.0379 -0.2785
 1334ERGO    C217066   0.693   0.586   7.118 -0.2113 -0.2008  0.4217
 1335ERGO   ROH17067  10.268   8.728   6.194 -0.0170 -0.1211 -0.0821
 1335ERGO    R117068  10.256   8.884   6.430 -0.0246 -0.0947 -0.1003
 1335ERGO    R217069  10.117   8.803   6.655 -0.1195 -0.0207 -0.1329
 1335ERGO    R317070  10.356   8.845   6.778 -0.1382 -0.1003 -0.0675
 1335ERGO    R417071  10.156   8.887   6.988 -0.1895  0.0615 -0.1448
 1335ERGO    R517072  10.314   9.025   6.930 -0.1016 -0.0324 -0.1360
 1335ERGO    C117073  10.403   8.975   7.297 -0.2480  0.0345 -0.0903
 1335ERGO    C217074  10.484   9.031   7.628 -0.0343  0.1669 -0.1587
 1336ERGO   ROH17075  11.688  12.170   5.914  0.0897 -0.0758  0.0912
 1336ERGO    R117076  11.561  12.052   6.138 -0.0785 -0.0999 -0.0146
 1336ERGO    R217077  11.530  11.779   6.164  0.0709 -0.1164  0.0212
 1336ERGO    R317078  11.654  11.821   6.403 -0.2123  0.0296  0.1466
 1336ERGO    R417079  11.547  11.548   6.421  0.0538 -0.0793  0.0552
 1336ERGO    R517080  11.514  11.711   6.563 -0.2592 -0.1049  0.0124
 1336ERGO    C117081  11.673  11.453   6.795 -0.2221  0.0790  0.1927
 1336ERGO    C217082  11.686  11.279   7.035 -0.0026 -0.0734  0.2459
 1337ERGO   ROH17083   8.932   9.848   6.530  0.0857 -0.1616 -0.1093
 1337ERGO    R117084   9.099   9.967   6.726  0.1659 -0.1747 -0.1691
 1337ERGO    R217085   9.021   9.998   6.989  0.1189  0.1565 -0.2169
 1337ERGO    R317086   9.253   9.865   7.039 -0.0460 -0.0707 -0.0284
 1337ERGO    R417087   9.199  10.016   7.285  0.0071  0.1502 -0.1485
 1337ERGO    R517088   9.383  10.020   7.168  0.0673 -0.1287 -0.0714
 1337ERGO    C117089   9.521   9.903   7.503 -0.2129 -0.0669  0.0683
 1337ERGO    C217090   9.578   9.905   7.824 -0.0651 -0.0287 -0.0851
 1338ERGO   ROH17091   9.661  15.902   6.148  0.1848 -0.1154 -0.0718
 1338ERGO    R117092   9.541  15.827   6.393  0.0284 -0.1434 -0.1563
 1338ERGO    R217093   9.654  15.642   6.563 -0.1022 -0.1953 -0.1251
 1338ERGO    R317094   9.627  15.841   6.746 -0.1762 -0.2268 -0.1011
 1338ERGO    R417095   9.640  15.595   6.906 -0.2009 -0.2527 -0.1366
 1338ERGO    R517096   9.485  15.748   6.915 -0.2188 -0.2685 -0.1588
 1338ERGO    C117097   9.607  15.756   7.276 -0.3277 -0.3157 -0.1206
 1338ERGO    C217098   9.605  15.857   7.513 -0.0200 -0.4297  0.2418
 1339ERGO   ROH17099   8.205   0.765   6.275 -0.2114 -0.1558  0.1010
 1339ERGO    R117100   8.241   0.728   6.553  0.0345 -0.2506  0.0587
 1339ERGO    R217101   8.483   0.654   6.663  0.2490  0.1320 -0.1411
 1339ERGO    R317102   8.446   0.877   6.815 -0.0676 -0.0182  0.0102
 1339ERGO    R417103   8.576   0.684   6.995  0.3596  0.0888 -0.1673
 1339ERGO    R517104   8.389   0.791   7.032  0.1828 -0.2539 -0.0105
 1339ERGO    C117105   8.595   0.910   7.331  0.1267 -0.0774 -0.0406
 1339ERGO    C217106   8.643   0.818   7.678 -0.1680 -0.1514 -0.1310
 1340ERGO   ROH17107  17.910  12.627   6.438  0.4541  0.4491  0.0224
 1340ERGO    R117108  17.845  12.526   6.695  0.2969  0.2901 -0.0777
 1340ERGO    R217109  18.034  12.419   6.865  0.1812  0.1116 -0.0565
 1340ERGO    R317110  17.933  12.602   7.039  0.1536  0.0236  0.0205
 1340ERGO    R417111  17.978  12.362   7.201  0.2170 -0.0265 -0.0737
 1340ERGO    R517112  17.792  12.474   7.185  0.1921 -0.0610 -0.0174
 1340ERGO    C117113  17.850  12.500   7.561  0.2118 -0.1894 -0.0115
 1340ERGO    C217114  17.966  12.509   7.936  0.1179  0.1781 -0.0280
 1341ERGO   ROH17115   6.561   9.651   6.214 -0.1796  0.0386 -0.0901
 1341ERGO    R117116   6.618   9.624   6.490 -0.1777  0.1651 -0.0774
 1341ERGO    R217117   6.475   9.758   6.686 -0.2277  0.1930 -0.1348
 1341ERGO    R317118   6.440   9.508   6.786 -0.1462  0.2201 -0.0361
 1341ERGO    R417119   6.466   9.680   7.022  0.1139  0.2797 -0.1010
 1341ERGO    R517120   6.582   9.501   6.979  0.0556  0.2576 -0.1784
 1341ERGO    C117121   6.427   9.400   7.313  0.3892  0.3555  0.0112
 1341ERGO    C217122   6.347   9.152   7.520 -0.1043  0.1526  0.1453
 1342ERGO   ROH17123  12.034  16.457   6.373 -0.1176 -0.1489  0.0051
 1342ERGO    R117124  12.069  16.543   6.640 -0.0345 -0.1490 -0.0054
 1342ERGO    R217125  11.873  16.682   6.778  0.0334 -0.0925  0.0340
 1342ERGO    R317126  11.906  16.483   6.960  0.0216 -0.0951  0.0335
 1342ERGO    R417127  11.828  16.717   7.119  0.0541 -0.0861  0.0362
 1342ERGO    R517128  12.004  16.591   7.150  0.0425 -0.1043  0.0280
 1342ERGO    C117129  11.833  16.550   7.489  0.0552 -0.0846  0.0370
 1342ERGO    C217130  11.673  16.648   7.648 -0.1730  0.0359  0.1982
 1343ERGO   ROH17131  16.261   2.990   6.524 -0.0127  0.1477  0.1874
 1343ERGO    R117132  16.432   2.792   6.631  0.0872  0.1354  0.0084
 1343ERGO    R217133  16.701   2.835   6.675  0.0719  0.2193  0.0114
 1343ERGO    R317134  16.640   2.754   6.927  0.1371 -0.0120 -0.0442
 1343ERGO    R417135  16.896   2.895   6.954 -0.1071  0.4286  0.0952
 1343ERGO    R517136  16.851   2.693   7.023  0.2243  0.3092 -0.0160
 1343ERGO    C117137  16.952   2.853   7.354 -0.1503  0.3334  0.0919
 1343ERGO    C217138  17.098   3.053   7.519  0.0492  0.1156  0.0870
 1344ERGO   ROH17139   9.079   0.109   6.084 -0.1617  0.3216 -0.0031
 1344ERGO    R117140   9.096  -0.019   6.336 -0.2090  0.1134 -0.1024
 1344ERGO    R217141   9.291   0.043   6.522 -0.1603 -0.1326 -0.0620
 1344ERGO    R317142   9.077   0.081   6.685 -0.1308 -0.1483 -0.0215
 1344ERGO    R417143   9.298   0.013   6.866 -0.1078 -0.1835 -0.0683
 1344ERGO    R517144   9.103  -0.084   6.857 -0.1111 -0.1725 -0.0505
 1344ERGO    C117145   9.101   0.032   7.220 -0.0494 -0.2278 -0.0338
 1344ERGO    C217146   9.209   0.081   7.585 -0.1389 -0.0319  0.1544
 1345ERGO   ROH17147   6.204  15.095   6.495  0.1263  0.0438  0.2277
 1345ERGO    R117148   6.304  14.885   6.656 -0.0466 -0.1193  0.1248
 1345ERGO    R217149   6.478  14.929   6.866  0.0817 -0.3790  0.0695
 1345ERGO    R317150   6.290  14.793   7.008 -0.0140 -0.2160  0.1028
 1345ERGO    R417151   6.491  14.873   7.207  0.1360 -0.4360  0.0587
 1345ERGO    R517152   6.416  14.671   7.172 -0.0766 -0.3652  0.0484
 1345ERGO    C117153   6.322  14.713   7.539  0.0778 -0.3163  0.0837
 1345ERGO    C217154   6.158  14.557   7.759  0.0427 -0.1861  0.0093
 1346W        W17155   3.105  14.643  11.934  0.0271 -0.1396 -0.0899
 1347W        W17156   1.495   7.712  11.645  0.1353  0.4209 -0.1486
 1348W        W17157  15.310  16.331  11.024  0.0208 -0.0820 -0.0059
 1349W        W17158   5.885   7.718  13.711  0.1513  0.1179  0.2377
 1350W        W17159   2.817   6.859  14.908  0.0240  0.0566 -0.1643
 1351W        W17160   3.843  12.928   3.668  0.0694 -0.1929  0.1415
 1352W        W17161  16.436  18.263   3.439 -0.0543 -0.1466  0.1154
 1353W        W17162  10.691  17.990  12.058 -0.1193 -0.0444  0.0372
 1354W        W17163   4.398   3.471   2.762  0.2613 -0.1588 -0.0465
 1355W        W17164   4.136   4.626  12.842  0.1569  0.2336  0.4937
 1356W        W17165   8.718  10.769   2.094 -0.1710 -0.0686  0.2773
 1357W        W17166   1.618  16.627  15.348 -0.2003 -0.1751  0.1223
 1358W        W17167  18.382   4.391   3.644 -0.0281  0.1233 -0.1319
 1359W        W17168   2.228   4.405   5.170  0.1170 -0.2413 -0.0243
 1360W        W17169  17.865  12.264   3.526  0.1520 -0.0919  0.1692
 1361W        W17170  12.031   3.161   0.115  0.2332 -0.1163  0.0125
 1362W        W17171  13.618   1.211  13.265  0.2339  0.1826 -0.1268
 1363W        W17172  18.198   8.010   3.841 -0.0023  0.0161 -0.0316
 1364W        W17173  11.831  10.220  11.144  0.2437  0.0393  0.2251
 1365W        W17174   2.491   2.117   4.386 -0.0425  0.0932  0.1370
 1366W        W17175  12.675   6.554  11.475 -0.2169 -0.1693 -0.1756
 1367W        W17176   0.251  17.308   2.517  0.4009  0.0533  0.0374
 1368W        W17177   3.929  15.315   2.339  0.3865 -0.0058 -0.3431
 1369W        W17178  10.870  16.885  10.964 -0.0913 -0.2938  0.2672
 1370W        W17179  12.542  11.032   4.760 -0.0209  0.2667 -0.0128
 1371W        W17180   2.508   6.341  11.903  0.0433 -0.1755 -0.1039
 1372W        W17181  14.430   5.045  10.417 -0.0421  0.1323 -0.0472
 1373W        W17182  15.868  12.551   3.526 -0.0721 -0.1976 -0.1184
 1374W        W17183  18.008   5.144   2.316 -0.1788 -0.2466 -0.0444
 1375W        W17184   9.740  17.238   0.363 -0.2615 -0.0839 -0.0734
 1376W        W17185   4.390   2.872  14.141 -0.2078 -0.5614  0.0259
 1377W        W17186  15.023  14.655   1.453 -0.2056 -0.2273  0.1033
 1378W        W17187  11.709   7.009  15.599  0.0300 -0.0254  0.0643
 1379W        W17188  12.064   5.107   1.849 -0.0620  0.1224 -0.0261
 1380W        W17189   5.473   7.288  12.937  0.3127  0.0546 -0.0116
 1381W        W17190  17.559   2.791   3.610 -0.1698  0.0241  0.1695
 1382W        W17191   4.572  16.762   4.470 -0.1982 -0.1391  0.3162
 1383W        W17192   4.890   2.542   1.187 -0.3561 -0.2208 -0.3412
 1384W        W17193   3.621   6.297  13.167  0.0175  0.0521  0.2618
 1385W        W17194  12.081  14.471  15.809 -0.2721 -0.0155 -0.2972
 1386W        W17195  12.713  15.756   1.128  0.0302  0.1981 -0.0770
 1387W        W17196   5.571   0.665  11.040  0.0673  0.1403  0.3076
 1388W        W17197   9.348   3.758  13.552 -0.1347  0.0670 -0.3128
 1389W        W17198  12.788  14.891  11.646  0.1174 -0.1670  0.2069
 1390W        W17199   3.386   1.084   4.735  0.1417 -0.3578  0.0323
 1391W        W17200   5.732   4.906   4.667  0.2195 -0.0364  0.1902
 1392W        W17201  17.309  10.052   1.210  0.0114 -0.1936 -0.2116
 1393W        W17202   8.432   4.927  10.706 -0.2976  0.2957  0.1766
 1394W        W17203   0.281  13.126   5.943  0.1827 -0.1589 -0.2367
 1395W        W17204   8.857  14.781   0.821 -0.0839  0.3559 -0.2742
 1396W        W17205  15.094   5.131  11.014 -0.0248  0.0544 -0.1427
 1397W        W17206   4.997  15.384  10.680 -0.1297 -0.2610  0.1154
 1398W        W17207  17.308   0.091  12.144 -0.0331 -0.0172 -0.0305
 1399W        W17208   6.507  14.310   0.005  0.2307  0.0516  0.0116
 1400W        W17209  18.022   1.135   4.536 -0.0833  0.0366  0.2551
 1401W        W17210   6.392   9.662   0.715  0.0307  0.0016  0.1745
 1402W        W17211  15.954   1.131   2.964 -0.0484  0.0467  0.0477
 1403W        W17212   5.635   2.968  11.401  0.3559 -0.0554 -0.0838
 1404W        W17213   6.372   8.215   1.709  0.0794  0.1582 -0.0030
 1405W        W17214   6.955   7.111   0.982 -0.1857 -0.0285 -0.2546
 1406W        W17215  17.221  16.210  14.583  0.0154 -0.1448 -0.0317
 1407W        W17216  14.624  12.582   2.256  0.2761  0.0703  0.2625
 1408W        W17217   5.096   8.245  13.162 -0.0137 -0.1526 -0.1128
 1409W        W17218   3.936  12.629   2.573 -0.0288  0.0570  0.2649
 1410W        W17219  14.267  10.964  10.359 -0.1241  0.0681  0.1481
 1411W        W17220   0.790   8.655  10.472 -0.2281 -0.0088 -0.1443
 1412W        W17221   4.397  11.509   1.762  0.1706  0.0027 -0.2094
 1413W        W17222  15.499   2.519   0.761  0.2942  0.1299 -0.0445
 1414W        W17223   2.319   8.183  14.737  0.2062  0.2867  0.0428
 1415W        W17224   5.423   2.169   4.754  0.0641 -0.1037  0.1747
 1416W        W17225  13.345  15.451   5.198  0.3592 -0.0486 -0.1051
 1417W        W17226   7.783   6.395  13.528  0.0593 -0.1117  0.0940
 1418W        W17227   7.104  11.592   2.480 -0.1928 -0.0052 -0.1289
 1419W        W17228   0.981  16.700  12.030  0.0190 -0.1925  0.0471
 1420W        W17229  18.088   6.632  13.109  0.0962 -0.0321  0.0203
 1421W        W17230  14.599  10.369   3.112 -0.3020 -0.4191 -0.3807
 1422W        W17231   8.737   9.500   3.843  0.0364 -0.2894 -0.0750
 1423W        W17232  10.757  16.745   3.947  0.1082  0.2129  0.3280
 1424W        W17233  16.016  15.279   4.079 -0.0121 -0.2615 -0.1198
 1425W        W17234   4.455  17.279  15.637 -0.2398 -0.4171  0.0769
 1426W        W17235   0.315  14.561   9.887 -0.2029 -0.1509 -0.0632
 1427W        W17236   9.923   8.274  12.600  0.0359 -0.0841 -0.2182
 1428W        W17237   6.774   4.228   1.195 -0.0422 -0.0910 -0.0467
 1429W        W17238   4.271  15.049  14.732  0.0037  0.0018  0.2089
 1430W        W17239  15.594  11.797   1.044 -0.1592  0.2449  0.1343
 1431W        W17240  15.291  18.298   3.206 -0.0367 -0.4678  0.0864
 1432W        W17241   9.352   9.383   3.156 -0.0612  0.3228 -0.0149
 1433W        W17242  12.606   4.888  13.402  0.0073 -0.1775  0.0352
 1434W        W17243   7.660  10.896   2.316 -0.0260  0.0273 -0.1744
 1435W        W17244  13.035  12.208   2.616 -0.1899  0.1752 -0.0348
 1436W        W17245  11.747   1.732  13.091 -0.1947 -0.4030 -0.3762
 1437W        W17246   4.336  15.282  11.568 -0.0006  0.3323 -0.0881
 1438W        W17247   4.766   2.586  14.890 -0.2493  0.1584 -0.2567
 1439W        W17248   0.342   4.949   1.778  0.1968  0.1684 -0.0041
 1440W        W17249  17.773  15.339  10.859 -0.0777  0.0462  0.0712
 1441W        W17250  10.242   6.242  15.278 -0.0587  0.0643  0.0172
 1442W        W17251   9.712   7.693   5.387 -0.0948 -0.3631 -0.0682
 1443W        W17252  15.646   8.625   3.948 -0.0760 -0.1470 -0.2520
 1444W        W17253  12.575  16.988   3.652  0.1854  0.0817 -0.1398
 1445W        W17254   6.577   1.111   2.089 -0.1916  0.0410  0.1240
 1446W        W17255   9.594   5.514   1.168  0.1262 -0.1239 -0.3695
 1447W        W17256  17.252  11.161  14.529 -0.2787 -0.1619  0.0441
 1448W        W17257  10.754   8.408   1.334 -0.1134 -0.1652 -0.1962
 1449W        W17258   6.080   0.387   2.202 -0.4365  0.2617  0.1765
 1450W        W17259   1.850   8.312   5.183  0.1613  0.0486  0.0610
 1451W        W17260   9.302  11.966  10.076 -0.0154  0.1993 -0.0870
 1452W        W17261   8.005  11.893   1.485  0.2585 -0.0512  0.0455
 1453W        W17262   7.858  14.012  13.584 -0.3928 -0.2566  0.0101
 1454W        W17263   1.865   6.682   1.161  0.0671 -0.1061  0.0087
 1455W        W17264   0.875   6.467  11.218  0.0459  0.0333  0.3405
 1456W        W17265  17.857   2.604   1.981 -0.2298 -0.1872 -0.0006
 1457W        W17266  13.126   3.894  12.766 -0.0586  0.0816  0.0101
 1458W        W17267  11.293  17.962   4.783  0.0861  0.1701  0.0132
 1459W        W17268  10.670  16.131  15.109  0.2081 -0.0370 -0.1859
 1460W        W17269   4.078  15.754   1.442 -0.1312 -0.0687  0.0138
 1461W        W17270   6.238  10.100  13.751  0.2646  0.1596 -0.2567
 1462W        W17271   9.328   8.857  11.968 -0.0675 -0.1759  0.1112
 1463W        W17272  12.429  18.136   3.298  0.0233  0.0677 -0.1411
 1464W        W17273  16.079   8.881  14.827 -0.2259  0.0273  0.2725
 1465W        W17274  17.867   6.648  12.530  0.1661  0.0929 -0.0748
 1466W        W17275  16.765   0.349   4.864  0.0599  0.0530  0.0151
 1467W        W17276   8.454  10.221  11.811  0.2101 -0.2437 -0.0485
 1468W        W17277  17.437  10.722   1.094  0.1577  0.1495  0.3184
 1469W        W17278  16.214  10.680  12.039  0.0190 -0.0880 -0.0448
 1470W        W17279   7.712   8.394   2.167  0.1048  0.0998  0.2348
 1471W        W17280   8.606   9.799  14.149  0.1147  0.0844 -0.1470
 1472W        W17281  10.321   2.308   4.707 -0.2586 -0.0763 -0.3206
 1473W        W17282   5.807  14.448   4.561 -0.1552 -0.1173  0.1080
 1474W        W17283   6.036  14.323  14.661 -0.2918 -0.3291  0.0156
 1475W        W17284  14.268  13.585  11.676 -0.2768 -0.1890 -0.2706
 1476W        W17285  12.215   1.395   5.116  0.3721  0.2370 -0.0847
 1477W        W17286   9.016   7.606   0.901 -0.0380 -0.0045  0.0792
 1478W        W17287  12.540  11.465   3.613 -0.1820  0.0797 -0.0107
 1479W        W17288   1.661  17.432  13.759 -0.4482 -0.3003  0.0680
 1480W        W17289   7.197  11.482   1.874 -0.0569  0.2104  0.0073
 1481W        W17290  15.161   5.371   3.876 -0.1447  0.0601 -0.2467
 1482W        W17291   8.388  11.171  14.919 -0.0884 -0.0994  0.0136
 1483W        W17292  10.756   1.865   0.525  0.0106 -0.1622 -0.0130
 1484W        W17293   8.461   7.337   1.544 -0.2689  0.0599 -0.0505
 1485W        W17294   7.427   3.753   2.546  0.3613 -0.0433 -0.1420
 1486W        W17295  12.787   3.870  12.282 -0.2104  0.2811 -0.2795
 1487W        W17296  12.037   2.771  11.851  0.1055  0.0362 -0.0823
 1488W        W17297   0.907   8.019   5.812 -0.1867 -0.1988  0.0634
 1489W        W17298  12.841  10.860  15.679 -0.0218 -0.0432 -0.1045
 1490W        W17299  11.991   8.922   4.821 -0.0461 -0.1526 -0.0528
 1491W        W17300  14.824  12.204   3.502 -0.3912 -0.2680 -0.1103
 1492W        W17301  16.884   2.886  12.254 -0.0889 -0.2949 -0.4516
 1493W        W17302  16.278  10.671  14.899  0.4162 -0.0421 -0.0223
 1494W        W17303  16.444  14.622   3.713  0.2106  0.0232 -0.2432
 1495W        W17304  15.851  17.797  11.389  0.1388  0.2266 -0.3165
 1496W        W17305   5.282   8.722   2.355 -0.2418  0.0410  0.0376
 1497W        W17306   9.131   9.840   1.823 -0.1070  0.2735  0.0519
 1498W        W17307  13.810   1.324  12.777  0.0241  0.2842 -0.2968
 1499W        W17308   7.519   9.633   3.037  0.0452 -0.0286 -0.2406
 1500W        W17309   8.727   5.401   1.325 -0.1958 -0.2738  0.0251
 1501W        W17310   4.136   0.065  11.754  0.1795 -0.1976  0.0399
 1502W        W17311  11.348  15.558  13.493 -0.2722 -0.1392  0.0324
 1503W        W17312  16.413  17.968   1.040 -0.1993 -0.2187 -0.4031
 1504W        W17313  10.563   6.998  15.331 -0.2942  0.3819 -0.1213
 1505W        W17314   7.133  15.781   3.213  0.0660 -0.0216 -0.0995
 1506W        W17315  10.257  16.119  13.580  0.0164 -0.1077 -0.0445
 1507W        W17316  17.045   4.508   1.204 -0.2457 -0.4728 -0.2525
 1508W        W17317  11.547  13.732   2.103 -0.0397  0.3553 -0.0908
 1509W        W17318  11.791   2.687  13.570  0.0156  0.1461  0.1071
 1510W        W17319  11.194  16.064  15.275 -0.0868  0.0410  0.1924
 1511W        W17320  14.668   3.216  15.580 -0.1173 -0.3227 -0.1164
 1512W        W17321   9.414  16.787   3.895 -0.1114 -0.1264  0.2238
 1513W        W17322   4.898  14.160  13.958  0.0449 -0.0331 -0.0827
 1514W        W17323  12.901   3.638  13.823 -0.0193  0.0712  0.0347
 1515W        W17324  15.063   1.265  14.115 -0.1153 -0.1110 -0.3974
 1516W        W17325   7.616   5.377  14.439 -0.0638  0.0261  0.2219
 1517W        W17326  14.645   0.735  11.282 -0.0008  0.1205  0.1420
 1518W        W17327   6.667  11.398  14.355 -0.0554  0.1419 -0.0460
 1519W        W17328   4.453  11.747   4.168  0.0771  0.1467 -0.3506
 1520W        W17329  18.027  12.975   2.796  0.0999 -0.1360 -0.1559
 1521W        W17330   5.343   5.073   2.577  0.0487 -0.0441  0.2112
 1522W        W17331   0.194   7.798  12.010 -0.1160 -0.2780  0.0718
 1523W        W17332   0.031  16.976   4.176  0.0657  0.0237  0.2063
 1524W        W17333  12.228   8.057   2.659 -0.1129  0.1516  0.1780
 1525W        W17334   9.928  18.187  11.331  0.1939  0.1481  0.0163
 1526W        W17335   2.329  12.520  13.627  0.0687 -0.1050  0.1689
 1527W        W17336  14.245   1.172   5.241 -0.0779 -0.0014  0.0442
 1528W        W17337   0.885   9.246  11.332 -0.0846  0.3244 -0.3820
 1529W        W17338   4.164  11.556  15.759 -0.2702 -0.0220 -0.0262
 1530W        W17339   9.925   6.251   0.546 -0.1629  0.1790 -0.0230
 1531W        W17340  14.883   6.438   0.784 -0.1950 -0.2062 -0.2922
 1532W        W17341   9.335   9.384  15.620 -0.1074  0.4532  0.1688
 1533W        W17342  12.876   3.482   4.606  0.2347 -0.1115 -0.2150
 1534W        W17343  16.496  10.933   2.597 -0.0470 -0.0565  0.3526
 1535W        W17344  13.430   3.103   2.349  0.0943 -0.0345  0.2363
 1536W        W17345  16.594   0.136  14.262  0.4786 -0.1841  0.2403
 1537W        W17346   0.791   5.079  12.347  0.1078 -0.1726  0.1835
 1538W        W17347   9.678   8.111   2.356 -0.0256 -0.2125 -0.0022
 1539W        W17348  17.460   6.203  15.333  0.2293 -0.1373  0.1527
 1540W        W17349  17.233   9.155  15.798 -0.0521 -0.2855 -0.0277
 1541W        W17350  17.465   8.065  10.429  0.1056 -0.1514  0.1713
 1542W        W17351  13.594   8.684  11.954 -0.0757  0.0172  0.1400
 1543W        W17352  12.445   6.519   0.668  0.2579  0.1232 -0.0448
 1544W        W17353   7.664   0.947   5.407 -0.0433  0.2182  0.1367
 1545W        W17354  11.916  11.675  12.935 -0.1071 -0.3420  0.2804
 1546W        W17355  16.177   1.381  11.137 -0.3005  0.0937  0.3676
 1547W        W17356   5.490   3.051   3.975  0.0496  0.1796  0.0620
 1548W        W17357  13.833  13.094  13.375 -0.1399 -0.0842 -0.1916
 1549W        W17358  12.868  12.479   9.956  0.1619  0.0143  0.0977
 1550W        W17359  16.968  11.815   5.285  0.0296 -0.1342  0.0474
 1551W        W17360   6.499   4.010  14.995 -0.0284  0.1567 -0.2940
 1552W        W17361   9.997  12.170  12.896  0.1742  0.0022  0.2072
 1553W        W17362   9.165   5.830   0.904  0.3112 -0.1183  0.1074
 1554W        W17363   9.697   7.821   0.410  0.0635  0.0166  0.0399
 1555W        W17364   1.978   5.387   5.451  0.4011  0.0868 -0.0762
 1556W        W17365  14.703   2.001  12.744 -0.0162 -0.0743  0.0852
 1557W        W17366  16.447  16.253   2.160 -0.4609 -0.1138  0.0153
 1558W        W17367  13.451   5.373  14.202  0.0912 -0.0750 -0.0856
 1559W        W17368   6.675   6.415   9.644 -0.0601 -0.1476 -0.0228
 1560W        W17369   7.674   6.125  11.348  0.1330 -0.1875  0.0891
 1561W        W17370   0.559  14.911  10.874 -0.0964 -0.0727 -0.3665
 1562W        W17371   2.332   6.024   5.191 -0.0694 -0.1512  0.1688
 1563W        W17372   1.730   4.526   3.507 -0.0078 -0.1401  0.3046
 1564W        W17373   5.141   6.377   2.973  0.0409 -0.0264 -0.0152
 1565W        W17374  17.405   6.478   0.652  0.2932  0.0837 -0.1154
 1566W        W17375   3.926   9.767   2.011  0.3234 -0.0457 -0.2361
 1567W        W17376  17.605  13.293  12.361 -0.1397 -0.1139  0.0721
 1568W        W17377  12.261  14.484  14.839 -0.0110  0.2151  0.0640
 1569W        W17378  16.238  18.200   5.361  0.0248 -0.0868  0.2670
 1570W        W17379  10.385  15.450  12.549  0.0334 -0.1052 -0.0762
 1571W        W17380   8.045  13.213   4.148 -0.1892  0.1459  0.0059
 1572W        W17381  12.634   9.138  10.190 -0.2459  0.0544 -0.2110
 1573W        W17382  12.966   1.799   4.610 -0.1618 -0.1333  0.2056
 1574W        W17383   6.604  18.444   2.858  0.1920 -0.3596  0.1308
 1575W        W17384   0.894  15.017  14.365 -0.1163  0.2008 -0.0601
 1576W        W17385   9.844   4.363  14.721 -0.1158 -0.1473 -0.0529
 1577W        W17386  10.346  12.259  15.570 -0.2033  0.1360 -0.0627
 1578W        W17387   3.558   8.866  12.224 -0.1543 -0.1958 -0.2311
 1579W        W17388   7.124   7.662  13.060  0.1189  0.2774 -0.0209
 1580W        W17389   7.846  15.030  13.164 -0.2391  0.1013  0.0174
 1581W        W17390   8.227  13.680  10.942 -0.0247  0.4054 -0.0315
 1582W        W17391  10.988   9.013   0.392 -0.0901  0.0171 -0.1419
 1583W        W17392  16.248  12.205  11.481  0.1512  0.4424  0.2187
 1584W        W17393  13.706  17.954   0.065  0.0996 -0.1081  0.0753
 1585W        W17394   1.963   5.520   2.421  0.0885 -0.1453 -0.0231
 1586W        W17395   9.717  10.186   6.147  0.1994  0.0852 -0.1013
 1587W        W17396   6.805  12.858   1.478  0.0769  0.0286 -0.1435
 1588W        W17397   2.047  12.209  12.540  0.0767 -0.1240  0.1653
 1589W        W17398   9.022   3.555   0.123 -0.1006  0.0562 -0.2432
 1590W        W17399   8.328   7.995   0.166  0.0133  0.2497 -0.0875
 1591W        W17400  13.379   7.439   2.746  0.0306 -0.0226  0.3270
 1592W        W17401   6.823  16.366  15.815 -0.0354 -0.1231  0.0014
 1593W        W17402   9.757   2.727  15.424  0.3288  0.0235 -0.1581
 1594W        W17403  15.630   5.798  12.745  0.0905 -0.2680 -0.3681
 1595W        W17404  18.160  10.891  13.097 -0.1815  0.0151  0.1301
 1596W        W17405   8.861   8.571  12.808  0.0904 -0.1070  0.2315
 1597W        W17406   2.105   1.759  15.224  0.0657 -0.1499  0.2638
 1598W        W17407   6.640   9.020   0.678 -0.1447  0.4724 -0.0210
 1599W        W17408  11.329   3.883  13.973  0.1320 -0.0008  0.0759
 1600W        W17409   3.359   5.230  15.753  0.0544  0.0392  0.0325
 1601W        W17410   7.202   6.794  11.943 -0.5148  0.1116  0.0458
 1602W        W17411   4.318   6.566   1.750 -0.2668  0.0657  0.1656
 1603W        W17412   2.784   9.738  14.849 -0.3541 -0.2393  0.1926
 1604W        W17413  10.267   5.156  11.919  0.0742 -0.2096 -0.4172
 1605W        W17414   2.610  17.572  14.045 -0.0202 -0.1344 -0.3707
 1606W        W17415   3.973   1.899  15.152 -0.0754 -0.0958  0.0312
 1607W        W17416   8.798  18.231   0.316  0.0196  0.1247  0.2461
 1608W        W17417   9.839   5.279  12.130 -0.1090  0.0792 -0.2660
 1609W        W17418   3.851   9.737  11.084  0.1103  0.1093  0.0571
 1610W        W17419   0.156   8.407   4.538  0.0323  0.1017 -0.1138
 1611W        W17420  12.381   7.971   3.166  0.0118 -0.3512  0.1223
 1612W        W17421   6.357   0.728   5.754  0.1166  0.2147 -0.2218
 1613W        W17422   7.534  15.096   0.272  0.4618 -0.2041 -0.0419
 1614W        W17423  12.258  17.192   1.872  0.0816  0.2360  0.0761
 1615W        W17424  16.846  13.539  10.597 -0.0482  0.0584  0.0573
 1616W        W17425  10.965  11.365  15.267  0.0265  0.1682  0.3796
 1617W        W17426   5.185  10.456   2.316  0.0588  0.2304  0.1699
 1618W        W17427   1.699   3.962  13.695 -0.1105 -0.2707  0.2849
 1619W        W17428   8.530   6.364  14.303  0.0428 -0.0693 -0.2872
 1620W        W17429   8.354   2.719   1.209 -0.3860 -0.0151  0.1611
 1621W        W17430   7.346   1.697   3.042  0.0328  0.1459 -0.0940
 1622W        W17431   8.907   0.227  15.022 -0.1996  0.0440  0.1012
 1623W        W17432  12.708  16.463   4.292  0.0946 -0.0987  0.3661
 1624W        W17433  10.007   9.001  10.533  0.1952  0.4095 -0.1882
 1625W        W17434   0.128   1.937   2.534  0.1371 -0.2789 -0.0994
 1626W        W17435   3.309   5.711  13.020  0.1010  0.1584  0.4047
 1627W        W17436  16.953   0.875   1.352 -0.3175 -0.2647  0.0434
 1628W        W17437  15.929   4.293  12.855  0.1684  0.1484 -0.0981
 1629W        W17438   6.973  12.015  12.045  0.3392  0.1816  0.2063
 1630W        W17439  12.587   7.284  10.831 -0.0585 -0.0530 -0.1193
 1631W        W17440  15.707  11.314  11.032  0.1716 -0.2160  0.3558
 1632W        W17441  10.093   9.713  12.414 -0.3034 -0.0006  0.1914
 1633W        W17442   1.395   5.527  13.554  0.0502 -0.2102 -0.0675
 1634W        W17443   9.417   3.990   4.551 -0.0920 -0.1562 -0.2709
 1635W        W17444   5.049  13.379  14.908  0.0744 -0.0122  0.2879
 1636W        W17445   3.478   7.545   1.957 -0.4212 -0.1912  0.1164
 1637W        W17446   9.617  10.182   0.664 -0.3325 -0.0302 -0.2938
 1638W        W17447  11.640   5.660   2.009  0.0396  0.0313 -0.0198
 1639W        W17448  11.947   9.726  10.982  0.3989 -0.0845  0.0054
 1640W        W17449  11.033  16.089  12.279  0.1719 -0.1943  0.4838
 1641W        W17450   5.958  14.323  12.865 -0.0554  0.3158  0.0726
 1642W        W17451  11.119  10.086  14.314 -0.0263 -0.1058 -0.1538
 1643W        W17452   7.095  11.707   0.320  0.0390  0.1231  0.0621
 1644W        W17453  16.023   5.961   3.576  0.0511 -0.4125 -0.2587
 1645W        W17454   9.222   8.628   6.061  0.2522  0.0309 -0.0645
 1646W        W17455  11.133   3.078  12.724  0.1409  0.2117  0.3417
 1647W        W17456   1.834  14.251   4.265 -0.0769 -0.1329  0.0657
 1648W        W17457  15.876   3.253   3.358 -0.2249  0.0940 -0.2258
 1649W        W17458  12.697  15.327  13.734 -0.3878 -0.1060  0.2934
 1650W        W17459   3.082   3.705   0.959 -0.2841  0.1925 -0.2863
 1651W        W17460  15.942   5.468  12.916 -0.2058  0.1530  0.2692
 1652W        W17461  17.747  11.082   0.982 -0.1114  0.0048 -0.2284
 1653W        W17462  16.317   1.251  13.560 -0.1179 -0.1909  0.0177
 1654W        W17463  12.764  16.912  15.271  0.3721 -0.0271  0.0104
 1655W        W17464  16.806  12.350   3.296 -0.1620 -0.0952 -0.3306
 1656W        W17465   6.816   9.113  12.162  0.4032 -0.1961 -0.0510
 1657W        W17466  16.398   9.482   1.812  0.1165  0.0071 -0.0057
 1658W        W17467  11.576   6.279   3.681  0.2140 -0.1820 -0.2049
 1659W        W17468   5.863   7.677   4.597 -0.3399 -0.3445  0.1246
 1660W        W17469  15.611   9.061   2.347  0.2020 -0.1029 -0.0539
 1661W        W17470   8.720  10.226   2.979  0.0458  0.1139 -0.1275
 1662W        W17471  17.453  11.006  12.395 -0.0564 -0.2027  0.0479
 1663W        W17472   6.916   2.830   1.609  0.4203  0.2422 -0.0003
 1664W        W17473   3.807   9.458  15.347  0.0907  0.0173  0.2430
 1665W        W17474  11.450  12.671  13.449 -0.3766 -0.2275  0.1871
 1666W        W17475  16.328   5.417   1.310 -0.0130 -0.1696 -0.2232
 1667W        W17476  10.616   2.586  14.861 -0.1778 -0.0823  0.1641
 1668W        W17477  11.513   1.093   1.500 -0.1304 -0.1163 -0.2573
 1669W        W17478  10.031   3.875  12.606 -0.0236  0.1662  0.0624
 1670W        W17479   0.674   4.938   2.144  0.0236 -0.0556 -0.2031
 1671W        W17480   9.374   4.244   3.610  0.1184  0.1195 -0.0082
 1672W        W17481  12.143   5.003  11.420 -0.0867 -0.1166 -0.0238
 1673W        W17482  17.477  17.174   2.279 -0.0604 -0.1262  0.1895
 1674W        W17483   2.803   0.340   1.120 -0.0148 -0.1916 -0.2420
 1675W        W17484  11.702  11.413  13.976 -0.0806  0.0733  0.0130
 1676W        W17485  14.976  10.206  11.085  0.0829  0.2535  0.1881
 1677W        W17486   0.656  14.079  15.321  0.0578  0.0256  0.0452
 1678W        W17487   3.679   5.166   4.377 -0.0469 -0.0773  0.0311
 1679W        W17488   6.225   4.489   3.511  0.1303 -0.1492  0.1063
 1680W        W17489   1.870   3.038   2.056 -0.0372  0.0809 -0.0371
 1681W        W17490  14.718  17.308   5.225 -0.1091  0.1234 -0.0349
 1682W        W17491  16.166   7.458   3.250  0.0906  0.1352  0.1607
 1683W        W17492   7.266   6.015   4.881 -0.1782  0.1855 -0.0180
 1684W        W17493  16.581  11.035   1.669 -0.0622  0.1759 -0.0743
 1685W        W17494  17.429   0.351  11.395  0.3026 -0.1572 -0.1361
 1686W        W17495  17.370  16.729  14.710 -0.0961 -0.0804 -0.0309
 1687W        W17496   5.734  16.357   3.355 -0.2558  0.0120 -0.2938
 1688W        W17497   6.625  13.705  12.122  0.1746  0.0223  0.1369
 1689W        W17498   2.103  17.048   3.752 -0.2340  0.0800  0.4183
 1690W        W17499   3.477   5.088   3.538 -0.1106 -0.0478  0.3506
 1691W        W17500   6.381  13.506  11.039  0.2206  0.3037  0.1733
 1692W        W17501   3.580   2.513  12.348  0.2684 -0.0608 -0.0047
 1693W        W17502  13.054  14.071   5.374  0.0332  0.0790 -0.0247
 1694W        W17503  14.567  15.529  13.233 -0.2212 -0.1576  0.2096
 1695W        W17504  13.589   1.183   6.344  0.3195  0.0979  0.0511
 1696W        W17505  16.466  15.347  13.984 -0.1794  0.2543  0.0043
 1697W        W17506   0.940  15.287   3.917 -0.0417 -0.0766 -0.1204
 1698W        W17507  13.243   9.494  12.337  0.0510 -0.3611  0.2061
 1699W        W17508   9.822   1.302  11.661 -0.1392 -0.3649  0.1406
 1700W        W17509  10.655   8.300  13.957  0.3294 -0.0304 -0.1015
 1701W        W17510  18.294  16.682  14.702  0.1345  0.2983 -0.0383
 1702W        W17511  12.168   3.222  13.197  0.0696 -0.0705 -0.0690
 1703W        W17512   9.509   2.070   4.442  0.2410  0.3478  0.2079
 1704W        W17513   5.189   7.007   3.964  0.1625  0.0483  0.0216
 1705W        W17514   1.323  13.034  12.890  0.0590 -0.1964  0.1627
 1706W        W17515   7.946  15.677  11.995 -0.1946 -0.1338 -0.0749
 1707W        W17516   4.651  13.677  10.971 -0.3673 -0.0200  0.1499
 1708W        W17517  12.928   9.335   1.717 -0.1429  0.1735  0.1659
 1709W        W17518  10.953   5.302  11.208  0.3332 -0.1795  0.2855
 1710W        W17519  10.546   7.227   3.308  0.0500 -0.0089 -0.3422
 1711W        W17520  17.239   7.660   5.376  0.1447  0.0306 -0.2172
 1712W        W17521   3.090  13.133   4.998  0.1390  0.1517 -0.2039
 1713W        W17522   1.796  14.101  14.754  0.3515  0.0479  0.1487
 1714W        W17523   9.659  10.561  14.723  0.1202  0.2344  0.2250
 1715W        W17524  11.329   6.301  14.979 -0.2089 -0.0398 -0.0627
 1716W        W17525  12.031  12.536  11.099 -0.3229 -0.3305  0.0393
 1717W        W17526  13.365   2.015  14.103 -0.0850  0.0821  0.0943
 1718W        W17527  11.743   7.524   1.668 -0.0018 -0.0756  0.1495
 1719W        W17528   8.202  11.640  11.946 -0.0078  0.2674  0.0070
 1720W        W17529  13.818  14.903   1.129  0.0884 -0.0438  0.1358
 1721W        W17530  16.171   6.495   4.171  0.0160 -0.1903 -0.1120
 1722W        W17531   1.883   7.486   5.697  0.0575 -0.2913 -0.2180
 1723W        W17532   3.913  13.882  13.305 -0.0616 -0.0204  0.1964
 1724W        W17533  14.205   4.340   4.525  0.2492  0.1301  0.2234
 1725W        W17534   6.365   3.222  13.158 -0.2065 -0.2090 -0.1061
 1726W        W17535   5.628   0.276   1.415  0.0221  0.0632 -0.0036
 1727W        W17536  10.614   8.283   4.317  0.0405  0.3008  0.1145
 1728W        W17537  16.732   7.573  12.620 -0.0785  0.2229  0.1518
 1729W        W17538  13.446  17.902  10.817 -0.1412 -0.1261 -0.0166
 1730W        W17539  14.737  12.466   0.857 -0.1292 -0.1178 -0.0220
 1731W        W17540   1.184   9.535   1.331 -0.2043  0.0148 -0.2661
 1732W        W17541   9.739   7.837  10.058  0.4089 -0.0345  0.0740
 1733W        W17542   4.854   2.931  12.333  0.0583  0.1501  0.2221
 1734W        W17543  16.511  17.231   0.680  0.0687 -0.3820 -0.0787
 1735W        W17544  17.513  14.003  12.752 -0.1709 -0.0118  0.2933
 1736W        W17545  18.239   6.368  11.235 -0.1731  0.0378  0.0415
 1737W        W17546  15.403  16.435   4.470 -0.1208 -0.0536  0.1239
 1738W        W17547  17.392  10.996   0.064  0.1007  0.1875  0.2196
 1739W        W17548   1.070   9.901  15.557 -0.2389  0.1969 -0.1922
 1740W        W17549  17.514   3.544  13.863  0.1526  0.1396 -0.0103
 1741W        W17550  14.509  15.408   4.308  0.1432 -0.2151  0.1911
 1742W        W17551   6.202  16.747   0.763 -0.1007 -0.2538 -0.2867
 1743W        W17552   6.883   9.764   4.842  0.0064  0.2489  0.0852
 1744W        W17553   6.162   4.139  12.595 -0.0244 -0.0446  0.2770
 1745W        W17554  12.549   9.815   1.645  0.3297 -0.1773  0.1996
 1746W        W17555  10.901  13.126   4.205 -0.3057 -0.3857  0.0580
 1747W        W17556   7.067  16.681  13.663 -0.0499  0.1933 -0.1980
 1748W        W17557   8.417  11.071   3.105 -0.3131 -0.1380 -0.0581
 1749W        W17558   1.255  15.811   2.016 -0.1340 -0.0127 -0.1450
 1750W        W17559   7.040   9.713  15.043  0.2446 -0.2002 -0.1269
 1751W        W17560  15.971   7.636  15.627 -0.1410 -0.4368 -0.3174
 1752W        W17561  17.251   7.657  15.520  0.2700 -0.0622 -0.2747
 1753W        W17562  10.083   6.460  11.992 -0.0839 -0.0559  0.2987
 1754W        W17563  16.960   9.746   5.339  0.0191 -0.4462 -0.0759
 1755W        W17564   9.734  17.959   0.770 -0.0065 -0.0799  0.0696
 1756W        W17565   0.138   3.807   1.978 -0.2321 -0.3408 -0.2735
 1757W        W17566   7.407   9.803   1.597 -0.0553  0.0862  0.0550
 1758W        W17567  11.167  17.794   3.496  0.0546 -0.3687  0.0356
 1759W        W17568  11.324  12.645   5.616  0.2606 -0.0510  0.0844
 1760W        W17569   0.398  14.832   4.751 -0.2311  0.0288  0.3270
 1761W        W17570  11.005   6.419   3.697  0.1233 -0.0447  0.0380
 1762W        W17571  10.034  13.770   1.389 -0.2812  0.0479  0.2927
 1763W        W17572  12.403   2.085  11.806  0.1507  0.4011 -0.2960
 1764W        W17573   0.324  16.002  11.395  0.0353 -0.3105  0.1513
 1765W        W17574   7.786  17.074   4.085 -0.3262 -0.1739 -0.1071
 1766W        W17575  17.724   2.307  12.234  0.1946  0.0772 -0.0591
 1767W        W17576   4.688   0.702  15.818 -0.1187  0.0053 -0.0276
 1768W        W17577  13.664  12.981  15.177 -0.2870 -0.0028 -0.1172
 1769W        W17578  14.116  10.313   4.733  0.0116 -0.1913 -0.0511
 1770W        W17579   8.113   8.557  11.735 -0.0459 -0.1848 -0.1124
 1771W        W17580  14.012  14.058  11.491  0.1994 -0.0273  0.0752
 1772W        W17581  18.439  18.207  11.320 -0.0385  0.0781 -0.0792
 1773W        W17582  14.349  11.153   4.330  0.1495  0.0022 -0.1128
 1774W        W17583   9.782   7.845  13.880  0.2354  0.0178  0.0493
 1775W        W17584   3.024   1.971   1.104 -0.3731 -0.0997 -0.1535
 1776W        W17585  13.525   3.401   3.677  0.0436 -0.1166 -0.2927
 1777W        W17586   3.595   5.644   3.720  0.3457  0.1855  0.2238
 1778W        W17587  13.641   4.625   0.047  0.2972  0.4307  0.0462
 1779W        W17588   4.346  18.127   1.494 -0.2565 -0.2499  0.0805
 1780W        W17589  15.648  10.213  13.278 -0.1151  0.1106 -0.1160
 1781W        W17590   5.831   7.597  10.871  0.0992 -0.0562 -0.0683
 1782W        W17591   8.851   6.585  12.640  0.1654  0.0222  0.1565
 1783W        W17592  17.702  17.286   1.374  0.1822 -0.0665  0.1899
 1784W        W17593  15.941   4.678   1.487 -0.0583  0.1973  0.1929
 1785W        W17594   6.850  10.226  14.570  0.2109 -0.1091 -0.0096
 1786W        W17595   4.762  12.253  13.999  0.1197  0.2852  0.1782
 1787W        W17596  14.105   7.972   4.156  0.1346 -0.0893 -0.0595
 1788W        W17597  11.974   7.957  14.624  0.1551 -0.2169 -0.0023
 1789W        W17598   8.036   6.301  14.477  0.0612 -0.1360 -0.1442
 1790W        W17599  10.532  10.950  10.897 -0.1198 -0.2851  0.0405
 1791W        W17600   5.656  12.055   4.381  0.0312  0.1059 -0.0957
 1792W        W17601   5.018   8.451   3.419  0.0618 -0.1211  0.2266
 1793W        W17602  18.266   3.462   2.920 -0.1159 -0.0983 -0.1075
 1794W        W17603   3.589  18.129  14.981 -0.1476  0.0477  0.1982
 1795W        W17604  11.883  16.679  11.660  0.2376 -0.2293  0.1093
 1796W        W17605   7.694   6.980   2.159  0.1165 -0.2984 -0.0370
 1797W        W17606   3.269  18.099  11.686 -0.1420 -0.1427 -0.4095
 1798W        W17607   3.588  13.287  14.845  0.0797 -0.2631 -0.0733
 1799W        W17608  14.080  11.118   4.909 -0.1618 -0.1468  0.1458
 1800W        W17609  17.466  15.398   2.778  0.0677  0.0301 -0.0560
 1801W        W17610   2.400   6.921   2.974 -0.1391 -0.1375  0.0527
 1802W        W17611  17.309   5.956  12.209  0.2424  0.1396 -0.3049
 1803W        W17612  13.064   6.227   4.959 -0.0644  0.0293 -0.1879
 1804W        W17613  18.203   6.972  11.479 -0.0412 -0.1990 -0.1015
 1805W        W17614  16.176   0.838  11.651  0.0012 -0.1426  0.0526
 1806W        W17615   5.968   7.981  10.605  0.2315  0.0510 -0.1381
 1807W        W17616   7.677   0.277   0.969  0.0439 -0.0134 -0.0070
 1808W        W17617   5.518  12.502  14.185  0.0109 -0.3639 -0.2858
 1809W        W17618   3.350   8.288  14.660 -0.1807  0.0165  0.2744
 1810W        W17619   2.989   4.987   0.819  0.0632  0.1921  0.5172
 1811W        W17620   0.431   1.004   3.515  0.2083 -0.0527 -0.2699
 1812W        W17621  12.792  13.745  12.713  0.0413  0.1273 -0.0906
 1813W        W17622   9.444   3.297  13.737 -0.0543  0.1795  0.2808
 1814W        W17623   1.964   1.663   2.113 -0.0369  0.0796 -0.2013
 1815W        W17624   2.571  12.488   4.379  0.0747  0.0798 -0.0846
 1816W        W17625   5.108   5.791   3.678  0.0103 -0.2755 -0.0166
 1817W        W17626   9.776   0.655  12.415 -0.1525  0.0416  0.3410
 1818W        W17627  17.164  16.078   0.055  0.0784 -0.0252 -0.0303
 1819W        W17628   1.605  12.025  13.376 -0.1585 -0.0526 -0.0534
 1820W        W17629   2.075  12.876  15.608  0.1296 -0.1707 -0.2491
 1821W        W17630   1.937  17.050   0.908  0.0192  0.2241 -0.1534
 1822W        W17631  14.136   6.480   4.244  0.2570  0.1095 -0.0060
 1823W        W17632   3.591  15.077  13.830  0.1843 -0.1386  0.0368
 1824W        W17633   6.326   5.997  10.625  0.2866 -0.3120  0.2277
 1825W        W17634   5.997   3.677   1.271  0.2317 -0.0402  0.0946
 1826W        W17635   4.457   2.900  13.100 -0.2227 -0.2174 -0.0535
 1827W        W17636  11.382   9.428  13.643 -0.1909 -0.0714 -0.3897
 1828W        W17637  14.925  14.919  12.044 -0.2738 -0.1229  0.1127
 1829W        W17638  11.506   9.972   3.856  0.1828  0.1969 -0.3293
 1830W        W17639  11.029   9.184   3.997 -0.2387 -0.2010 -0.1906
 1831W        W17640   4.296  12.090   3.047  0.0767  0.0202 -0.1217
 1832W        W17641  15.611  13.004  10.511 -0.1724  0.1098  0.0181
 1833W        W17642   8.486  16.617  15.464 -0.1835 -0.1025 -0.0002
 1834W        W17643   1.806   7.880  12.301 -0.0773  0.4492 -0.0988
 1835W        W17644  13.382   9.153   1.454 -0.0072 -0.0387  0.0538
 1836W        W17645   7.971   6.491  11.289 -0.0911 -0.0442  0.0244
 1837W        W17646  11.372  15.055   5.146 -0.3762 -0.0046 -0.0202
 1838W        W17647   9.756  18.269  14.307 -0.1440 -0.0612  0.0694
 1839W        W17648   4.044  14.991  15.321 -0.0171  0.0873 -0.3966
 1840W        W17649  13.004  14.142   2.186 -0.0132  0.0414  0.2381
 1841W        W17650   4.954   0.188  13.396  0.0505  0.5411  0.2837
 1842W        W17651   3.298  16.427  12.858 -0.2398 -0.1114  0.1905
 1843W        W17652   4.207  17.844   2.625  0.2104  0.1113 -0.0700
 1844W        W17653  10.805   4.535   2.580  0.1957  0.1235 -0.1724
 1845W        W17654  13.489  17.004   3.676 -0.1200 -0.1127  0.0250
 1846W        W17655  17.434   4.937  12.042  0.1812 -0.1570 -0.1971
 1847W        W17656   0.777  11.586  11.704 -0.2213 -0.1092 -0.1488
 1848W        W17657   9.841   8.253  13.515  0.0951 -0.2331 -0.1357
 1849W        W17658   1.332  10.038  11.977 -0.1704  0.0592 -0.0361
 1850W        W17659   2.868   9.439  12.955 -0.2486 -0.3672  0.1263
 1851W        W17660   4.739  13.974  15.391 -0.1395  0.2296 -0.0945
 1852W        W17661  16.083  11.376  15.536 -0.0990  0.1121 -0.0140
 1853W        W17662   1.874   5.436  14.948  0.1396  0.0753  0.4433
 1854W        W17663   7.840  12.734  14.047 -0.1122  0.0017 -0.1329
 1855W        W17664  15.740   6.600   0.386 -0.0321 -0.0883 -0.0429
 1856W        W17665  17.165   5.867   5.547 -0.2148 -0.0168 -0.1177
 1857W        W17666   8.537   1.738   4.848  0.0469 -0.0279 -0.0210
 1858W        W17667  13.118  14.612  15.158 -0.3963  0.0889  0.1831
 1859W        W17668   3.527  13.919   4.596 -0.1563  0.2323  0.1785
 1860W        W17669  11.577  10.474   4.919  0.1272 -0.1753 -0.2168
 1861W        W17670   3.593  15.712  13.166  0.0844 -0.1360  0.2483
 1862W        W17671   9.700   4.509   2.480  0.0212  0.0322 -0.1974
 1863W        W17672   0.719  11.268   3.747 -0.2253 -0.2361 -0.2968
 1864W        W17673   1.111   1.767   0.736  0.0334 -0.2746 -0.1167
 1865W        W17674   5.837   5.057   5.156 -0.3268 -0.0988 -0.0347
 1866W        W17675  12.336   0.191   3.092  0.1367  0.2077 -0.0166
 1867W        W17676   8.429  12.929   1.196  0.2497  0.0441 -0.0853
 1868W        W17677   7.443   1.164  12.377  0.1904  0.1331  0.1582
 1869W        W17678   5.401   7.217  15.307  0.0884  0.0562 -0.2661
 1870W        W17679   3.220   7.009   1.853  0.1057 -0.2223 -0.1206
 1871W        W17680   2.876  11.045   0.340  0.0563 -0.0372  0.0361
 1872W        W17681   7.453   9.309  13.305  0.4273  0.0155  0.3970
 1873W        W17682   3.950   5.934   3.206  0.2844 -0.0742  0.2650
 1874W        W17683   1.591   6.750   0.245  0.0734  0.0351  0.5014
 1875W        W17684  12.467   5.320   1.401  0.1242  0.0405 -0.0126
 1876W        W17685  17.554   9.971   1.634  0.1873  0.4642 -0.0722
 1877W        W17686   7.541   1.762   5.015 -0.1577 -0.2913  0.1147
 1878W        W17687  12.780  10.551   2.988  0.0434  0.2520  0.0694
 1879W        W17688   5.837   2.309   3.312 -0.1504 -0.0584 -0.0982
 1880W        W17689   8.265  13.454  13.125 -0.3993 -0.0171 -0.0557
 1881W        W17690  15.752   9.118   5.250  0.1869  0.1552 -0.2872
 1882W        W17691   7.099   3.834   2.104  0.0132  0.2261  0.1398
 1883W        W17692   5.306  17.791   4.722  0.0332  0.2732  0.1375
 1884W        W17693   5.949   9.662   1.479 -0.0125  0.2140  0.1420
 1885W        W17694  10.667  15.132   2.345  0.1175 -0.2574  0.0496
 1886W        W17695   0.767   2.402  13.490  0.2141  0.3072 -0.2293
 1887W        W17696  12.336  13.298   1.745 -0.4411  0.1282 -0.1501
 1888W        W17697  10.264  17.465   2.667  0.3369  0.2243  0.0461
 1889W        W17698   0.654  13.908  14.833  0.4109 -0.2114 -0.1063
 1890W        W17699   2.259  15.344  13.254  0.1712  0.3777 -0.1720
 1891W        W17700  17.759  15.517  15.003 -0.2538 -0.2495  0.0050
 1892W        W17701   8.753   9.854   2.530  0.1319  0.0374 -0.3067
 1893W        W17702  13.304  14.310   0.621 -0.0935 -0.3390 -0.0831
 1894W        W17703   2.181  10.658   4.598 -0.0403  0.0090  0.2348
 1895W        W17704   1.685   4.144   5.228  0.1446 -0.2289  0.1801
 1896W        W17705   2.101  11.287  12.251 -0.0058  0.0963  0.1254
 1897W        W17706  16.764   0.050  14.826  0.3080 -0.1949  0.0109
 1898W        W17707   6.104  16.007  14.384 -0.0990 -0.1357  0.0453
 1899W        W17708   4.399   1.583  13.371 -0.2175  0.0657  0.1201
 1900W        W17709   5.843   4.698  11.123  0.0881  0.2104  0.0721
 1901W        W17710  14.347   8.725  15.665 -0.0520  0.0355  0.0771
 1902W        W17711  10.487   5.778  15.466  0.3357  0.1006 -0.1927
 1903W        W17712   2.952   1.918   4.364 -0.1464 -0.1599  0.0424
 1904W        W17713   1.087   6.198   1.685 -0.0268 -0.2040 -0.0187
 1905W        W17714   6.899   2.395   0.982 -0.0089 -0.4677 -0.0547
 1906W        W17715   1.573  15.983  13.666  0.1367  0.0528  0.1077
 1907W        W17716   7.093   1.718   5.132  0.0649  0.0819 -0.0275
 1908W        W17717   6.041   8.276   2.068 -0.0856 -0.2522  0.4138
 1909W        W17718   0.404  13.831   4.635 -0.1243  0.0804 -0.0549
 1910W        W17719   6.127  10.084   3.133 -0.0739 -0.1239  0.1084
 1911W        W17720  12.404   6.351   4.158  0.0245 -0.2267  0.0362
 1912W        W17721   6.132   7.469   5.980 -0.0807  0.2370 -0.0848
 1913W        W17722  17.567  11.538  14.490 -0.1260  0.0329  0.1387
 1914W        W17723   0.153  12.573   2.388  0.2326  0.1895  0.0766
 1915W        W17724   1.852  12.331   4.285  0.4491 -0.4227 -0.1038
 1916W        W17725   2.502  17.542   0.719  0.1082  0.0728 -0.1046
 1917W        W17726   1.012  17.023   4.495  0.2215  0.1195 -0.1928
 1918W        W17727   4.428   0.221  15.069  0.0299  0.0257  0.1606
 1919W        W17728   4.878   1.001  13.355 -0.1239  0.1635 -0.2479
 1920W        W17729   0.648  15.998  11.921 -0.0484 -0.0627 -0.1419
 1921W        W17730  11.329  14.093   5.771  0.3776  0.0514 -0.1602
 1922W        W17731  13.262   5.377  12.841 -0.3521  0.1666  0.0051
 1923W        W17732   5.567  11.837   3.433  0.3600 -0.0887  0.0694
 1924W        W17733   5.960   3.509   0.639  0.2471  0.0558  0.0773
 1925W        W17734  11.211  11.714   0.181 -0.3118  0.2770  0.1460
 1926W        W17735   3.276   7.827  12.210 -0.1244  0.1877 -0.2530
 1927W        W17736  10.230   1.828  12.402  0.1341  0.0635 -0.1627
 1928W        W17737  10.270   7.568   5.292  0.1489  0.1700 -0.2920
 1929W        W17738   5.871   7.383   5.097  0.0837 -0.1231 -0.1103
 1930W        W17739  14.202  15.062   4.126  0.0585  0.0503  0.1143
 1931W        W17740  12.703   2.315  11.348 -0.0475 -0.1242  0.1290
 1932W        W17741   9.680   3.836  15.442 -0.2872 -0.0861 -0.1775
 1933W        W17742  15.295   8.338   4.764 -0.1237 -0.0964  0.2801
 1934W        W17743   8.688  12.173   0.004 -0.2765 -0.0050 -0.1425
 1935W        W17744  10.105   5.745   4.734 -0.3267 -0.2210  0.0004
 1936W        W17745  10.315  14.042   1.759  0.2027 -0.1143 -0.0199
 1937W        W17746   3.448   3.005  12.615  0.1348  0.3248 -0.0137
 1938W        W17747  10.449   9.926  11.724  0.1978 -0.0895 -0.1967
 1939W        W17748  15.332   0.141   0.136  0.1476 -0.0614  0.1341
 1940W        W17749   5.133   8.090  10.748  0.0212 -0.0441  0.0292
 1941W        W17750  18.325   4.892   0.488  0.0153 -0.0388 -0.0156
 1942W        W17751   3.490  10.393   2.238 -0.1272 -0.1160  0.3002
 1943W        W17752   6.511  10.145  13.376 -0.1432  0.1383  0.0990
 1944W        W17753  12.145   2.987   3.621 -0.2901  0.1762  0.1080
 1945W        W17754  17.128  18.158   1.222 -0.0890  0.2878 -0.1816
 1946W        W17755  10.003   0.252  11.089  0.3472  0.1824  0.1433
 1947W        W17756   8.378  17.539   5.321 -0.3191 -0.2631 -0.1515
 1948W        W17757   6.624  11.233   2.525 -0.0929  0.0786 -0.0033
 1949W        W17758   7.273  16.026  14.854  0.3201  0.1372 -0.0677
 1950W        W17759   9.290  13.904  14.574 -0.2231  0.1798  0.1231
 1951W        W17760   2.663   7.431  11.022 -0.0045 -0.0357  0.0512
 1952W        W17761  14.786   6.279   2.460 -0.1966 -0.0112 -0.0131
 1953W        W17762   3.125  13.263   2.182 -0.1403  0.2620  0.2160
 1954W        W17763   3.995   2.082   3.484  0.3410 -0.2754  0.5447
 1955W        W17764  16.308   2.466  13.001  0.2489  0.0073  0.1280
 1956W        W17765  15.348  11.295   3.464 -0.2955  0.3758  0.0217
 1957W        W17766   0.883  10.879   5.237  0.1039 -0.0452 -0.1710
 1958W        W17767  10.123   5.859   0.374 -0.0530 -0.1385  0.1559
 1959W        W17768  16.488  11.343   1.234  0.0792  0.1401 -0.0521
 1960W        W17769  15.041  16.481   5.613 -0.0782  0.0863  0.2316
 1961W        W17770   6.086   3.942  11.499 -0.2255 -0.2707 -0.0152
 1962W        W17771   4.576   3.606  10.896  0.0200  0.0058  0.0150
 1963W        W17772   1.533  12.756   1.064 -0.1484 -0.4106  0.0218
 1964W        W17773  15.407  17.184   5.187 -0.2503 -0.0253 -0.2729
 1965W        W17774  14.293   7.599  12.788  0.3254  0.0442  0.2603
 1966W        W17775   3.824  15.645   1.029  0.1697 -0.0470  0.1854
 1967W        W17776   5.350   2.481   1.368 -0.2672 -0.3419  0.0310
 1968W        W17777  12.672  17.087   3.222  0.0604 -0.1420 -0.1527
 1969W        W17778  11.151  14.234  11.134  0.2110  0.1964 -0.2191
 1970W        W17779  12.377   8.931   5.611 -0.4270 -0.1690 -0.1256
 1971W        W17780   4.261   1.008  15.278 -0.1839 -0.0657 -0.2271
 1972W        W17781  13.570   4.077  13.589  0.0112 -0.1238  0.0808
 1973W        W17782  16.724   8.979  13.803 -0.0958 -0.1314 -0.1143
 1974W        W17783  14.181   8.823  11.494 -0.2062 -0.3221  0.0412
 1975W        W17784   9.614   0.017   4.148 -0.3222  0.0973  0.0652
 1976W        W17785   3.170  12.052  13.252 -0.0934  0.0618  0.1404
 1977W        W17786  17.178   3.306  15.632  0.1629  0.0398  0.1685
 1978W        W17787  14.740   7.416  15.600  0.0723  0.0389 -0.4913
 1979W        W17788  15.087  13.856   1.211  0.0506 -0.1667  0.2349
 1980W        W17789   4.398  15.683  12.390  0.1809  0.2691 -0.3202
 1981W        W17790  15.020  18.214   5.696 -0.3038  0.2039 -0.0131
 1982W        W17791   7.735   9.479   4.148  0.0887  0.1126  0.1817
 1983W        W17792  15.442  17.805   4.345  0.1466 -0.0542  0.2266
 1984W        W17793  11.172  11.318   1.437  0.3070 -0.1718  0.1241
 1985W        W17794  12.693  10.237  14.372 -0.1098 -0.0670  0.0272
 1986W        W17795  12.313  13.722   2.673 -0.3828  0.3096  0.0243
 1987W        W17796  13.492  18.402  10.565  0.0548  0.0240 -0.1508
 1988W        W17797   5.745   1.680   2.212  0.1386  0.2865  0.0700
 1989W        W17798  10.424   6.615   2.419 -0.1023 -0.1506 -0.1878
 1990W        W17799  10.087   8.424   3.719 -0.1036 -0.2114 -0.0814
 1991W        W17800  16.442   6.618  13.025 -0.2452 -0.0048  0.0372
 1992W        W17801   5.104  14.802   5.601  0.4692 -0.1554 -0.3928
 1993W        W17802   0.150  12.145   5.206  0.0165 -0.0590  0.1505
 1994W        W17803   0.843   3.992  11.007  0.0097 -0.0281 -0.1771
 1995W        W17804  10.951  12.885  13.357  0.1049  0.1950 -0.0757
 1996W        W17805  10.806   7.262   2.886  0.2405 -0.0114  0.1638
 1997W        W17806   5.002  14.623  14.327  0.1489  0.1690  0.0454
 1998W        W17807  13.636   2.529   4.543 -0.4690 -0.0721  0.1297
 1999W        W17808  11.880  17.454   2.005  0.1991 -0.2795 -0.0878
 2000W        W17809  11.671   6.460  10.918 -0.1712 -0.0272  0.2584
 2001W        W17810   6.613  12.363   0.093 -0.0814 -0.1928 -0.1205
 2002W        W17811   5.000  12.801   0.569  0.0863 -0.1265 -0.1485
 2003W        W17812   6.903   0.131  10.901  0.0437  0.1928 -0.2728
 2004W        W17813   3.771  11.303   3.315  0.1493  0.0528  0.1921
 2005W        W17814  10.368   2.778   0.328  0.4486  0.0173 -0.1611
 2006W        W17815  13.092   3.524  14.609  0.1048 -0.3535 -0.0467
 2007W        W17816   8.627   3.205   0.210  0.1029  0.0717  0.2162
 2008W        W17817  15.944  15.512   2.686  0.1247  0.2185 -0.0147
 2009W        W17818  16.706  14.540  13.391 -0.0410  0.1039  0.0632
 2010W        W17819  17.755  10.954   4.990  0.0828 -0.3950  0.3321
 2011W        W17820  12.473  16.633   5.545 -0.3306  0.0473  0.0931
 2012W        W17821   0.833  10.077  13.777  0.1045 -0.1769  0.2030
 2013W        W17822  16.070  11.685   4.041 -0.0006 -0.1117  0.5227
 2014W        W17823  15.026   9.410   1.339 -0.0497  0.4380  0.0342
 2015W        W17824  14.986   0.407  11.510  0.1284  0.0292 -0.1871
 2016W        W17825   3.412   2.103  14.409 -0.2952  0.2103 -0.1940
 2017W        W17826  15.129  11.413  14.628  0.3513 -0.0942  0.1306
 2018W        W17827   0.276   0.628  13.366  0.0890  0.1709  0.1592
 2019W        W17828   0.394   3.727  10.913 -0.0444 -0.3548  0.1830
 2020W        W17829   2.574  16.532  14.266  0.0205  0.0762 -0.0917
 2021W        W17830   0.368   9.153   2.052 -0.0126  0.1302 -0.2040
 2022W        W17831   1.558  13.572  11.651  0.0077 -0.0991  0.1353
 2023W        W17832   4.103   5.096  12.858 -0.1192 -0.1199  0.0146
 2024W        W17833  11.040   1.637   2.673 -0.2134  0.1870 -0.0570
 2025W        W17834   2.661  17.969  11.003  0.2815 -0.0414  0.1081
 2026W        W17835  16.414  15.559   1.481  0.0686  0.0580 -0.2360
 2027W        W17836  13.154   7.328  11.479  0.1805 -0.2692 -0.0930
 2028W        W17837   7.113  12.338  13.474 -0.1895 -0.3009 -0.0058
 2029W        W17838  16.382  17.070  12.550 -0.0633 -0.0362  0.2200
 2030W        W17839  15.888  15.494   1.096 -0.1198  0.0209 -0.2245
 2031W        W17840   2.681  15.086  13.076  0.2926 -0.1817 -0.0395
 2032W        W17841  15.523  11.890  14.904  0.0505  0.0508  0.3314
 2033W        W17842   6.169   6.802  12.356  0.0592 -0.0718 -0.1815
 2034W        W17843   8.555   1.085  15.395 -0.0136  0.1959 -0.1104
 2035W        W17844  14.147   8.140   2.880  0.1341 -0.2349  0.0814
 2036W        W17845  14.298  16.603   0.991  0.1188 -0.1491  0.1656
 2037W        W17846   6.553   7.300   0.641  0.2212 -0.1426  0.3319
 2038W        W17847   1.930   1.056  11.235 -0.2297 -0.1117  0.1898
 2039W        W17848   8.554  11.085   2.585 -0.2340 -0.0322  0.0334
 2040W        W17849   5.594   0.538   2.906 -0.3393 -0.0518 -0.0926
 2041W        W17850   0.067   7.824  13.609  0.1073  0.0064  0.1123
 2042W        W17851   3.439  15.475   3.625 -0.0054  0.1424 -0.1645
 2043W        W17852  13.763  14.282   1.005  0.0202  0.1286  0.1268
 2044W        W17853   5.585   5.456   1.701 -0.1408 -0.1750  0.0466
 2045W        W17854  16.824   1.225  15.460  0.0976 -0.0169 -0.1488
 2046W        W17855  14.459   7.218   2.706 -0.0805  0.1247 -0.0109
 2047W        W17856   4.881   2.376  13.623  0.1055 -0.3120  0.0980
 2048W        W17857   4.771   9.067  10.632 -0.0288  0.0684  0.0133
 2049W        W17858  18.213   2.053   1.776  0.0042 -0.1393  0.4384
 2050W        W17859   8.900   4.153   3.630  0.0288 -0.1576 -0.0638
 2051W        W17860   0.810  13.023  13.856  0.0602 -0.2213 -0.0746
 2052W        W17861  15.628  10.381   6.137 -0.1012  0.0148 -0.0231
 2053W        W17862   5.358   6.464  13.867  0.1120 -0.1070 -0.2509
 2054W        W17863  17.041   3.025  13.427 -0.1606 -0.0516  0.1976
 2055W        W17864   5.509  10.985   5.637  0.1707 -0.1390  0.0923
 2056W        W17865   8.525   9.371  13.114 -0.1654  0.1389  0.3337
 2057W        W17866   5.542   3.946   4.787  0.1679  0.1221 -0.2217
 2058W        W17867   4.793  14.092  12.606 -0.2018  0.1980  0.0957
 2059W        W17868   6.619   1.955   0.605 -0.2568  0.1473 -0.4908
 2060W        W17869  17.764   4.631   5.547 -0.3273  0.0432 -0.2399
 2061W        W17870  13.274   3.250  11.360 -0.0112 -0.0144  0.2365
 2062W        W17871   8.608   6.884   4.855 -0.3019 -0.0928  0.2750
 2063W        W17872  10.616  13.955  14.516 -0.2283  0.2051  0.1011
 2064W        W17873  10.296   1.748   3.168  0.2439  0.1391  0.1359
 2065W        W17874   4.374  14.317  14.029  0.0666  0.1886  0.2596
 2066W        W17875  11.711  16.294  13.160  0.0565 -0.3754  0.2434
 2067W        W17876   6.649   3.566  13.878  0.2311  0.2468 -0.3009
 2068W        W17877   4.530  14.026   0.525 -0.1056 -0.0568 -0.0421
 2069W        W17878  15.117  18.403   5.200 -0.1246  0.1815  0.0673
 2070W        W17879   8.768   4.602   5.012  0.0710  0.1770  0.0203
 2071W        W17880  16.466  10.093   3.842  0.0501 -0.2990  0.1899
 2072W        W17881   1.334   1.297   3.210 -0.3156 -0.0021  0.1444
 2073W        W17882  10.620  10.241   2.816 -0.0848  0.0664  0.0577
 2074W        W17883   5.174   6.065  11.985  0.0481 -0.0288 -0.0508
 2075W        W17884   2.830   6.907  14.170 -0.2262  0.1730  0.1510
 2076W        W17885   0.385  15.100   3.451 -0.2816 -0.0894  0.0261
 2077W        W17886   4.445   2.187   3.685 -0.0390 -0.1105  0.1572
 2078W        W17887   5.656   3.373   1.530 -0.2117 -0.1053 -0.1079
 2079W        W17888   9.574   5.658   4.407 -0.0631 -0.1099  0.3881
 2080W        W17889   2.202  14.260  11.997  0.0688  0.1132 -0.0721
 2081W        W17890  13.365   4.100   2.849 -0.0879  0.2296  0.0270
 2082W        W17891   8.695  11.013  12.969 -0.1070 -0.2367  0.1045
 2083W        W17892   7.833   3.187  14.142 -0.2977  0.2834 -0.1228
 2084W        W17893  11.513   2.360  14.437 -0.1201  0.3090  0.0364
 2085W        W17894  15.788   1.999   1.976  0.5783 -0.1011 -0.0697
 2086W        W17895   1.637  17.699  12.883 -0.4310 -0.2260  0.2999
 2087W        W17896  16.952   1.000  12.760  0.1605  0.3653 -0.3421
 2088W        W17897  10.291  15.215   4.430 -0.0306 -0.1157 -0.2292
 2089W        W17898   6.335  14.149   1.246  0.2076 -0.0641  0.1478
 2090W        W17899   2.177   0.525   0.638  0.2045 -0.0348  0.0926
 2091W        W17900   8.347   7.534  13.806 -0.0730 -0.0916  0.2494
 2092W        W17901   6.036   6.686   1.296 -0.0087  0.0076 -0.2400
 2093W        W17902  17.071   0.037  11.713  0.0524 -0.2086 -0.0794
 2094W        W17903   9.367  14.093   2.352 -0.2398  0.1877 -0.1029
 2095W        W17904   5.237   9.990   0.498 -0.6451  0.1215 -0.0835
 2096W        W17905   0.544   3.973   2.804 -0.4172  0.0185  0.1672
 2097W        W17906   7.107  13.372   3.100 -0.0431  0.1507 -0.0159
 2098W        W17907  15.544  15.749  13.480 -0.0392 -0.5480  0.2151
 2099W        W17908   1.320  12.938  14.703  0.2534 -0.0157  0.0352
 2100W        W17909  17.646   0.915   4.827  0.1457 -0.2024 -0.0092
 2101W        W17910   4.846   8.576   4.771 -0.2120 -0.2686 -0.1651
 2102W        W17911  10.581  18.348   0.905 -0.4408 -0.0772 -0.0483
 2103W        W17912   2.548   3.428  13.262  0.1074  0.3357  0.0508
 2104W        W17913   5.975   9.820  11.448 -0.2288 -0.1976  0.2433
 2105W        W17914   1.747  11.434   1.646 -0.3794  0.2741  0.3020
 2106W        W17915   8.174   5.859  12.472  0.2401 -0.3713  0.1656
 2107W        W17916  16.449  13.996   2.882 -0.0318 -0.2113  0.1645
 2108W        W17917   5.315   5.994  13.639 -0.1712  0.2547  0.2495
 2109W        W17918  13.846  12.346   2.444 -0.3160  0.0171  0.0323
 2110W        W17919   1.391  11.765   1.855  0.0742 -0.5444 -0.0291
 2111W        W17920   9.501  14.175  14.141  0.0476 -0.0442 -0.1504
 2112W        W17921   2.286  12.146   2.559  0.5012  0.0332 -0.1176
 2113W        W17922  12.986  15.794   1.697 -0.1541 -0.1437 -0.1043
 2114W        W17923  12.628   3.298   2.050 -0.0809  0.2786 -0.2548
 2115W        W17924  11.328   6.831   2.614 -0.2082  0.3827 -0.3370
 2116W        W17925  17.359  15.618  15.211  0.0845  0.3001 -0.0984
 2117W        W17926   3.406  14.271  10.708 -0.1688  0.0502 -0.0093
 2118W        W17927   3.723  10.710   3.745  0.2703  0.1086  0.3307
 2119W        W17928   9.371   2.413  13.237 -0.0159  0.0318  0.1633
 2120W        W17929   7.129   5.074   4.304  0.2576  0.0305 -0.0335
 2121W        W17930  13.653  15.408  10.135 -0.1313 -0.3239 -0.2614
 2122W        W17931  14.887  10.357  15.434  0.2271 -0.1897  0.0133
 2123W        W17932  16.699   3.084   2.462 -0.1007  0.2989  0.2351
 2124W        W17933   3.027  14.687  14.407 -0.0169  0.3080  0.0914
 2125W        W17934   5.229  14.285   4.779 -0.1892 -0.0012 -0.1280
 2126W        W17935  18.330   0.931   0.972  0.0261  0.1709  0.1305
 2127W        W17936   2.181  14.579  13.987 -0.2149 -0.1050  0.1483
 2128W        W17937  11.113   2.616   4.499  0.2570 -0.1463  0.0937
 2129W        W17938  14.463   4.434   3.014  0.2081 -0.0962 -0.3298
 2130W        W17939   1.895   7.871   4.757 -0.0662  0.0431 -0.0002
 2131W        W17940  10.377   8.185   3.397 -0.2416 -0.0174  0.0801
 2132W        W17941  11.261   6.207  12.925  0.1658 -0.3073 -0.0050
 2133W        W17942  12.194  17.084  12.083 -0.1395 -0.0548  0.1222
 2134W        W17943   1.214   0.708   5.042 -0.2144  0.2578 -0.1325
 2135W        W17944  12.308   6.488   1.549  0.0637  0.0243  0.2134
 2136W        W17945  13.197  12.638  15.764  0.0066 -0.0560  0.2703
 2137W        W17946   0.748  18.082  12.232 -0.2168  0.0248  0.2926
 2138W        W17947  18.232   9.166  11.169  0.2175  0.1560  0.0387
 2139W        W17948   6.341   4.589  13.768 -0.0088  0.1064  0.0720
 2140W        W17949   2.456   6.087  13.222  0.3807 -0.2629  0.2933
 2141W        W17950  12.804  11.980   4.293  0.3743 -0.0886 -0.1049
 2142W        W17951  16.586  12.065  15.512  0.2038 -0.1591  0.1149
 2143W        W17952   0.993   2.977   1.045 -0.0437 -0.0342 -0.2342
 2144W        W17953  17.478   2.936   1.844 -0.1476  0.0169  0.0078
 2145W        W17954   8.270  17.384   0.144 -0.3104  0.1099 -0.1386
 2146W        W17955  11.722  12.572   2.513 -0.0355 -0.1195  0.3242
 2147W        W17956   4.383  13.656  15.162 -0.3536  0.0036 -0.1515
 2148W        W17957   9.903   3.862   4.383  0.1682  0.0895  0.1417
 2149W        W17958  11.443   7.203  11.904 -0.1387  0.0057  0.0210
 2150W        W17959   6.563   4.424  11.773 -0.0537  0.0306  0.1613
 2151W        W17960  16.346  15.466   4.510  0.1571 -0.1228 -0.1420
 2152W        W17961   7.181  18.270   1.647  0.0979  0.0895  0.1147
 2153W        W17962   4.565   5.539  12.365  0.0528 -0.1289 -0.2185
 2154W        W17963   5.706   6.354   4.186  0.1193  0.2791  0.0026
 2155W        W17964  16.700  15.750  10.848  0.1749  0.0891  0.0371
 2156W        W17965   2.669   2.888  10.145 -0.0827  0.2601 -0.5979
 2157W        W17966  11.376  11.044   0.828  0.1974  0.2858 -0.3284
 2158W        W17967  10.423   5.193   4.139  0.1169  0.1386  0.0537
 2159W        W17968  17.635  12.112  14.374  0.1629  0.2426  0.2112
 2160W        W17969   1.175  10.498  14.481 -0.1559 -0.3331  0.1868
 2161W        W17970  16.132   4.788  10.759  0.1182  0.1956 -0.0065
 2162W        W17971   0.347   9.936  12.192  0.0591  0.1189 -0.3246
 2163W        W17972  17.039  12.518  12.151  0.3130  0.2279  0.2041
 2164W        W17973  11.976   5.751  12.434 -0.0876  0.2647 -0.1991
 2165W        W17974   9.127   3.627  12.326  0.3500 -0.2479  0.1162
 2166W        W17975  14.539  15.922   4.101  0.1547 -0.1859  0.2015
 2167W        W17976   2.526   5.698   4.211 -0.3770  0.0355  0.2536
 2168W        W17977   1.053   9.733   5.828  0.0549  0.0303  0.3000
 2169W        W17978  16.426   7.356  12.120 -0.3667  0.1818 -0.0673
 2170W        W17979  11.977  18.399   3.340  0.1237 -0.0557 -0.2604
 2171W        W17980   2.660  13.593   3.095  0.1986  0.1327  0.0089
 2172W        W17981   4.599  13.381   1.958  0.2443  0.0994  0.2391
 2173W        W17982   3.490   3.107  13.136  0.1667 -0.3110  0.0321
 2174W        W17983  15.445  18.133   1.934 -0.0131  0.2983 -0.1192
 2175W        W17984   0.184   7.875   0.218 -0.1585  0.0589  0.2049
 2176W        W17985  12.439  11.592   0.889  0.0084 -0.1050  0.2199
 2177W        W17986   6.267   2.718  15.435 -0.0682 -0.3013  0.0985
 2178W        W17987   2.497   5.742  15.377 -0.2018 -0.0684 -0.1582
 2179W        W17988  11.188   7.937  13.045 -0.0498  0.0580  0.2196
 2180W        W17989  15.426   3.044   4.710 -0.3730 -0.1630  0.1578
 2181W        W17990  11.598   3.428  14.139 -0.2633  0.0423  0.1091
 2182W        W17991   4.599  16.312   4.303  0.0832  0.2846  0.5279
 2183W        W17992  11.224   9.236   5.087  0.0704 -0.1800  0.2751
 2184W        W17993   8.978   6.116  11.786  0.1130 -0.1617  0.0946
 2185W        W17994   0.683  11.455   0.138 -0.3207 -0.0020 -0.1744
 2186W        W17995   0.672   3.056  12.344 -0.1371  0.0625 -0.2411
 2187W        W17996   1.992   8.436  13.495  0.3070 -0.1304 -0.0209
 2188W        W17997   5.334   6.095   1.097  0.1998 -0.0700 -0.0465
 2189W        W17998  16.623   7.729  11.814 -0.0856 -0.3801 -0.1388
 2190W        W17999   9.500   0.352  12.092  0.0923 -0.0923  0.0819
 2191W        W18000   2.400   0.869   1.700  0.0845  0.0919 -0.0634
 2192W        W18001  17.903   6.652   0.545  0.0493  0.0485  0.0161
 2193W        W18002  13.255   4.194  14.712 -0.2091  0.2717 -0.0329
 2194W        W18003  16.484  12.758   4.561  0.0409 -0.1978  0.1545
 2195W        W18004  14.616  17.352  11.144 -0.1021  0.0581  0.4564
 2196W        W18005   1.860   9.086   5.573 -0.0837  0.3344 -0.3268
 2197W        W18006  18.221   0.069  12.703 -0.2286  0.1610 -0.0973
 2198W        W18007   0.299  12.706  11.454 -0.0861  0.1994 -0.1198
 2199W        W18008   6.447  15.097  11.522  0.0704 -0.0421 -0.3384
 2200W        W18009  12.127  13.318  14.018 -0.0137 -0.3838  0.1398
 2201W        W18010   2.729   5.563  13.117  0.0927 -0.2876  0.2043
 2202W        W18011  17.181  16.200  13.154 -0.0896  0.3337 -0.2311
 2203W        W18012   6.240   7.490   1.582 -0.0432  0.0368  0.0563
 2204W        W18013   1.129  16.330   4.728  0.2769  0.2113  0.0087
 2205W        W18014   2.045   3.043   3.136  0.2055  0.0811  0.0750
 2206W        W18015  13.570  12.608   5.306  0.1707  0.3718 -0.0792
 2207W        W18016   3.954   5.441   4.085  0.0331  0.1007  0.1056
 2208W        W18017  14.138  14.150   3.060 -0.0044 -0.0153 -0.3997
 2209W        W18018   5.043  13.689   3.019 -0.2225 -0.0617  0.0604
 2210W        W18019  16.149  10.698   1.746 -0.0544 -0.5019  0.0224
 2211W        W18020   1.825   5.807   1.205  0.3205  0.1179 -0.1004
 2212W        W18021   5.309   0.085   3.523  0.2364  0.0498  0.0618
 2213W        W18022  16.241  16.532  11.897 -0.2668 -0.0614  0.3235
 2214W        W18023  13.715   7.699   2.269  0.1317  0.1276 -0.0461
 2215W        W18024  18.461  12.524  13.576  0.0528  0.3059  0.1207
 2216W        W18025   8.057   0.555  14.059 -0.1917 -0.4321  0.1553
 2217W        W18026   0.763   4.443   2.043  0.2001  0.2502 -0.2316
 2218W        W18027  10.716   9.016   3.276 -0.0484  0.0828  0.4676
 2219W        W18028   6.571   5.866  13.689  0.0622 -0.2820  0.0481
 2220W        W18029  16.288   8.973   1.823 -0.1487  0.0609 -0.1475
 2221W        W18030  16.569   8.476   1.008  0.1500 -0.0716  0.3685
 2222W        W18031  17.672   4.271   4.827 -0.1606  0.3058 -0.1073
 2223W        W18032  16.107   4.846   0.053  0.1114 -0.0102 -0.1907
 2224W        W18033  14.910  11.255   3.164 -0.1785 -0.1024  0.0634
 2225W        W18034   8.858  16.609   3.812  0.3196 -0.0319  0.1159
 2226W        W18035  17.149  15.511  15.643  0.1371 -0.0915 -0.0007
 2227W        W18036   4.814   0.493   3.039  0.0753  0.1582  0.0597
 2228W        W18037   5.735  13.666  14.122 -0.0825 -0.0328 -0.1456
 2229W        W18038  13.127  15.354   2.626 -0.3401 -0.1218  0.0055
 2230W        W18039   0.752   7.648  14.038 -0.1392  0.3248 -0.1440
 2231W        W18040  17.919  18.072   1.974  0.0611 -0.0240  0.2041
 2232W        W18041   3.393   1.636  14.459 -0.2093  0.1898 -0.5017
 2233W        W18042   8.487   2.222   2.387  0.4288 -0.0574  0.2062
 2234W        W18043  14.673   5.074   0.048 -0.2158  0.2558 -0.0446
 2235W        W18044  14.587  16.307   3.327 -0.0042  0.0532 -0.1275
 2236W        W18045   8.992   0.959   2.510  0.0590  0.3876 -0.0275
 2237W        W18046   7.633  17.706  11.372  0.2037 -0.2976  0.1623
 2238W        W18047  16.523   9.795   3.238 -0.1730  0.1985  0.1429
 2239W        W18048   4.930   1.732  11.284  0.1928 -0.0258  0.2889
 2240W        W18049  15.879   7.499   4.474  0.0391  0.1323 -0.1160
 2241W        W18050   1.788   5.651  13.844  0.1312  0.0040  0.0353
 2242W        W18051   1.994   2.279  12.040 -0.0966 -0.0984  0.0214
 2243W        W18052   9.561   0.189   2.397  0.0016  0.1018 -0.1798
 2244W        W18053   5.382   1.413   0.775  0.2817  0.0148 -0.0712
 2245W        W18054   3.045  11.915   1.869  0.1036 -0.0393  0.1669
 2246W        W18055  16.192  14.846  12.864  0.1954 -0.0766  0.1412
 2247W        W18056   9.190   3.780   1.475 -0.0288 -0.4094 -0.1228
 2248W        W18057  13.920   6.325   4.801 -0.1424 -0.2471 -0.2700
 2249W        W18058   2.748   5.122   2.597  0.2084  0.1046  0.0381
 2250W        W18059   5.163   6.500  12.437  0.0415  0.0409 -0.0902
 2251W        W18060   3.071  15.471  11.280  0.0292  0.0792  0.0930
 2252W        W18061   4.569   4.847   4.602 -0.2878  0.0303 -0.1203
 2253W        W18062  18.324   0.378   2.724 -0.0694 -0.1844 -0.1500
 2254W        W18063  18.083   9.022   4.895  0.0789 -0.0219 -0.0973
 2255W        W18064   9.301   7.902   2.102 -0.0725  0.1086 -0.0374
 2256W        W18065  17.934  18.238  13.941  0.0676 -0.1967  0.0323
 2257W        W18066   6.801   4.184   2.885 -0.0287  0.0686 -0.2018
 2258W        W18067   5.079   9.661   4.035  0.3518  0.1888 -0.3217
 2259W        W18068  10.763   8.064   1.698 -0.0646 -0.0908  0.0096
 2260W        W18069   8.239   2.930   3.436  0.1033  0.2759 -0.1013
 2261W        W18070   4.803  16.400  15.555  0.3395  0.1146  0.1618
 2262W        W18071   3.728  17.675  13.544 -0.0804 -0.1620  0.2399
 2263W        W18072   3.468   9.443  12.132 -0.0319 -0.1843 -0.2871
 2264W        W18073   5.453   4.881   0.684 -0.1854 -0.2874  0.0335
 2265W        W18074  17.959  18.208   2.629 -0.1153  0.0584 -0.0041
 2266W        W18075  11.967   9.120   3.947  0.1129 -0.1412 -0.5967
 2267W        W18076  15.547   6.276  12.961  0.0320  0.3155 -0.0180
 2268W        W18077   6.831  16.733   3.970 -0.0421 -0.2743 -0.1633
 2269W        W18078   7.040   8.417   2.905  0.0241  0.0386  0.0807
 2270W        W18079   9.474   1.737   1.748  0.1160  0.1493 -0.1391
 2271W        W18080   4.568  15.782  14.224  0.0513  0.2506  0.1584
 2272W        W18081  13.528   0.151  11.531 -0.0643  0.0157 -0.1584
 2273W        W18082   5.475   4.654  11.934 -0.0000 -0.0982 -0.1770
 2274W        W18083   3.114   2.885  12.947 -0.0978 -0.0787  0.0907
 2275W        W18084  13.779   5.542   0.550 -0.1410 -0.0477 -0.0251
 2276W        W18085   3.995   0.462   3.551 -0.4615  0.0209 -0.2214
 2277W        W18086   2.376  10.835   3.532 -0.0015 -0.1126 -0.2795
 2278W        W18087   6.514   3.374   2.700  0.1256 -0.0022 -0.0242
 2279W        W18088   5.300   0.879   4.870  0.1363  0.0009 -0.0725
 2280W        W18089  11.703  15.435  13.969  0.0082 -0.0118 -0.0010
 2281W        W18090   2.958   9.407   1.806  0.1429  0.3063  0.0103
 2282W        W18091   8.353   1.764   2.909  0.1782 -0.2548  0.2316
 2283W        W18092   4.976  12.347   2.346  0.1808  0.2754  0.0591
 2284W        W18093   2.268   5.873  11.410 -0.0385  0.0975  0.1282
 2285W        W18094  16.387   6.077   4.018  0.1147 -0.0526 -0.2871
 2286W        W18095  15.000  14.060  11.920 -0.0503  0.2246  0.1750
 2287W        W18096  12.032  18.192  14.494  0.0209  0.1443 -0.1978
 2288W        W18097  16.629   6.163   0.565 -0.0114  0.3881 -0.1868
 2289W        W18098  11.859   5.284  13.969  0.1619 -0.1341 -0.1804
 2290W        W18099  10.893   5.941   2.627  0.0973 -0.0018  0.2506
 2291W        W18100   1.932   7.580  11.851  0.0785 -0.1650  0.1067
 2292W        W18101   1.506  11.937   3.537  0.0079  0.2894 -0.0137
 2293W        W18102  11.092  14.778  11.732 -0.0541  0.0282  0.0612
 2294W        W18103   0.442  13.105   4.566  0.2890 -0.1294 -0.1347
 2295W        W18104   2.811  16.050   5.317 -0.1704 -0.0026 -0.0346
 2296W        W18105   3.761  16.359   4.370 -0.3110 -0.0447 -0.1206
 2297W        W18106   7.524   1.539   0.263  0.2349  0.2777 -0.2323
 2298W        W18107   7.589  13.988   0.962  0.0694 -0.0095  0.1921
 2299W        W18108   1.246  13.560   4.872 -0.0519 -0.0820  0.1719
 2300W        W18109  15.974   0.165  15.137 -0.0512  0.1837 -0.1200
 2301W        W18110  10.270  15.560  12.078 -0.0291 -0.0107 -0.0340
 2302W        W18111   3.843  15.819   3.066  0.2657 -0.2437 -0.3892
 2303W        W18112   3.106   9.275   1.025  0.1208  0.3259  0.1513
 2304W        W18113  13.966   4.729   3.135 -0.1163 -0.1937  0.1560
 2305W        W18114  16.503   9.826   5.225 -0.0702  0.1519  0.2570
 2306W        W18115  12.384   7.793  15.576 -0.2887  0.2657  0.2806
 2307W        W18116  11.937  14.874  11.599  0.1942 -0.0911  0.1990
 2308W        W18117  12.491   5.597  13.303  0.0413 -0.1058  0.0472
 2309W        W18118   6.936  15.250  12.801  0.1251 -0.1263  0.0511
 2310W        W18119   5.569  12.596  15.592 -0.0480  0.0522  0.0533
 2311W        W18120   8.715   7.598  11.983  0.1172 -0.0273 -0.0709
 2312W        W18121   3.892   4.275   2.490  0.0433  0.0681 -0.0231
 2313W        W18122  11.745   9.405  15.166  0.4024 -0.0547  0.1334
 2314W        W18123   7.549   7.805   4.399 -0.0213 -0.0034 -0.2499
 2315W        W18124   2.099  17.550   3.918  0.1517 -0.1865 -0.1591
 2316W        W18125  15.324  15.178   0.051 -0.2175 -0.4239  0.2070
 2317W        W18126   2.174   1.887   0.778  0.1114  0.1361 -0.0652
 2318W        W18127   4.425   6.771  12.287 -0.0614 -0.0412 -0.1145
 2319W        W18128   4.524  15.901   4.724  0.1892  0.0719 -0.3023
 2320W        W18129   5.884  15.871  14.789  0.0301 -0.3601 -0.0239
 2321W        W18130  17.672   8.652  12.120 -0.1486  0.0274 -0.1074
 2322W        W18131   8.866   7.213  12.449 -0.1477  0.0673  0.2296
 2323W        W18132  14.332   9.759   0.634 -0.2408  0.1859  0.2001
 2324W        W18133   5.602  16.727  15.043  0.1037 -0.2810 -0.3159
 2325W        W18134   2.565  11.434   1.702  0.2271  0.2157  0.6995
 2326W        W18135  11.533   6.560   3.235 -0.3788  0.1333  0.0387
 2327W        W18136  17.751  17.330  15.646  0.1275 -0.5143 -0.0795
 2328W        W18137   5.280   3.476  11.303  0.2348  0.2298 -0.2534
 2329W        W18138  18.120  16.161  13.438 -0.0377 -0.0587  0.0027
 2330W        W18139  18.125   5.294  14.449 -0.1982  0.0065  0.2592
 2331W        W18140  17.325   0.838   4.354  0.0594  0.2893  0.0260
 2332W        W18141  12.306  16.742   2.856  0.0833 -0.1400  0.0682
 2333W        W18142  14.544  13.584   5.282 -0.1966 -0.5518  0.0110
 2334W        W18143   3.962  14.780   0.118  0.0577  0.1844  0.0391
 2335W        W18144   7.463   0.666   5.007  0.1742 -0.3513 -0.3681
 2336W        W18145  13.465   8.698  15.259 -0.0855 -0.0166 -0.0226
 2337W        W18146   9.555   1.081  14.551  0.0775  0.2764 -0.1262
 2338W        W18147   0.830  13.456  15.133 -0.0338  0.1180  0.4022
 2339W        W18148   8.051   7.446   2.388  0.1039  0.2700 -0.0037
 2340W        W18149   5.785   7.665  12.807  0.4394 -0.2766  0.0742
 2341W        W18150  14.705  13.904   0.715  0.0310 -0.1633 -0.2590
 2342W        W18151   5.715  15.066  12.134  0.1804  0.0488  0.2631
 2343W        W18152  12.094   3.551  11.481 -0.2299  0.0257  0.0950
 2344W        W18153  10.633  15.898  11.326 -0.2313  0.0495  0.0856
 2345W        W18154   5.732  10.350   2.034 -0.2776  0.1021  0.0185
 2346W        W18155   3.998  15.925  12.262  0.0801 -0.0765  0.2733
 2347W        W18156   5.959  13.251   0.979 -0.0093  0.0366 -0.2062
 2348W        W18157  18.211   4.683  15.037 -0.1069 -0.0654 -0.0877
 2349W        W18158   2.177   0.130   3.025  0.0338 -0.1074  0.0133
 2350W        W18159   3.318  13.329   5.613 -0.2130 -0.1293 -0.3739
 2351W        W18160  13.077  12.081   1.415 -0.1997  0.1601 -0.0055
 2352W        W18161   9.382   1.136  15.141  0.0803 -0.1785  0.1836
 2353W        W18162   6.797   1.193  15.745 -0.1734  0.1936 -0.1094
 2354W        W18163  15.776  12.455  11.785  0.0242  0.1294  0.3642
 2355W        W18164  10.711   3.342   4.226 -0.0109 -0.2271 -0.2133
 2356W        W18165   9.248  16.998   2.500  0.1338  0.1697  0.1191
 2357W        W18166  18.048   2.558   3.407 -0.1850  0.1727 -0.1417
 2358W        W18167   8.669   8.555   3.493  0.2205  0.1114 -0.4557
 2359W        W18168   1.355  14.079   3.433 -0.2307 -0.2804  0.0048
 2360W        W18169   1.792  14.542  14.360  0.0963  0.0822  0.2371
 2361W        W18170   3.166  15.703  14.355 -0.0387  0.0756 -0.2919
 2362W        W18171   3.480   0.875  10.279  0.0611  0.0012 -0.0988
 2363W        W18172  17.804   8.554   2.882  0.2812 -0.4308 -0.4081
 2364W        W18173   9.717  13.212   5.518  0.0158 -0.1986 -0.2743
 2365W        W18174  15.000  14.148  11.285 -0.0594 -0.0306  0.0440
 2366W        W18175  15.639   1.273   2.484  0.3697 -0.4412 -0.2168
 2367W        W18176   7.442  13.385   3.556  0.3058 -0.1431 -0.2223
 2368W        W18177   8.773   1.542  11.728  0.2572  0.1819  0.1673
 2369W        W18178  15.645   4.780   1.862 -0.1675  0.0365 -0.1661
 2370W        W18179   1.948  12.076   5.056 -0.0065  0.4292  0.1971
 2371W        W18180  16.599  16.279   5.594 -0.1459  0.1274  0.1583
 2372W        W18181   0.800  13.438  11.859 -0.0160  0.1118 -0.1291
 2373W        W18182   3.445   8.876   4.848 -0.0939 -0.2935  0.2855
 2374W        W18183   8.465   6.183  12.062  0.0288  0.3035 -0.0682
 2375W        W18184  12.391   5.990   9.990 -0.0422 -0.0277 -0.0048
 2376W        W18185   9.739  12.256   4.753 -0.0891  0.0520 -0.1285
 2377W        W18186  17.231   8.827  12.887  0.1612  0.2055  0.0403
 2378W        W18187  12.390   7.350  13.280 -0.3373  0.0160 -0.0022
 2379W        W18188  15.145  13.319  10.275 -0.0326  0.0988 -0.1641
 2380W        W18189  13.452   1.148  12.457 -0.0592  0.1369  0.2201
 2381W        W18190  10.155   4.920   4.529 -0.0979 -0.0876  0.4978
 2382W        W18191  11.095   5.810  11.173 -0.0508 -0.1560  0.0616
 2383W        W18192   8.354  14.505  11.434  0.3306 -0.0231  0.0336
 2384W        W18193   8.549  16.400   4.136 -0.1444  0.0190  0.2310
 2385W        W18194  18.228  15.167  14.016 -0.2712  0.0292 -0.3374
 2386W        W18195   1.054  18.389  11.430 -0.0725  0.3625  0.2944
 2387W        W18196   4.635  14.264  11.373 -0.1618 -0.3815 -0.1642
 2388W        W18197   7.355   1.146   1.312 -0.3010  0.0533 -0.1417
 2389W        W18198  16.001   7.985  13.246  0.1868 -0.0473 -0.0569
 2390W        W18199  17.228   5.617  12.599  0.1201  0.4622  0.3703
 2391W        W18200   7.780   5.866   4.639 -0.0147  0.2700 -0.2381
 2392W        W18201  14.132   4.308   1.596  0.0757  0.0946  0.1864
 2393W        W18202   2.336  18.021   0.795  0.1008 -0.2058  0.1094
 2394W        W18203   8.440   5.695   4.568  0.5318 -0.0261 -0.1326
 2395W        W18204   6.986  12.582  11.686 -0.2257  0.1509 -0.1922
 2396W        W18205  17.299   2.436  13.187  0.0223  0.0666 -0.0144
 2397W        W18206   5.227   9.301   2.976  0.1650  0.1063 -0.0357
 2398W        W18207   1.088  13.578   1.046 -0.2416  0.0190 -0.1751
 2399W        W18208   8.300   8.479  13.640  0.0742 -0.0902 -0.0541
 2400W        W18209  11.998   3.248   0.646  0.0049 -0.0785 -0.2282
 2401W        W18210   2.467   3.150  14.510 -0.1224 -0.0559  0.1045
 2402W        W18211   4.012   8.029   5.692 -0.3646 -0.0463 -0.0035
 2403W        W18212  10.631  15.476   1.505 -0.1641 -0.0588 -0.0071
 2404W        W18213   0.828   4.512  10.848  0.0097 -0.1644 -0.1145
 2405W        W18214  18.221   6.590   3.814 -0.0774 -0.1474 -0.0480
 2406W        W18215   9.114  12.085  15.347 -0.1096 -0.1467  0.1490
 2407W        W18216   6.512  15.461   0.451  0.1242  0.2633 -0.4808
 2408W        W18217  11.841   8.584  10.956 -0.0872  0.0793 -0.0349
 2409W        W18218   9.087  10.483  14.739 -0.0947 -0.0922 -0.1365
 2410W        W18219  12.099   4.088  14.707 -0.0293  0.4481 -0.0270
 2411W        W18220  13.094   9.913   5.505  0.0325 -0.1262  0.1544
 2412W        W18221  17.385  18.384   3.831 -0.1159  0.2514  0.0850
 2413W        W18222   6.941  18.032  14.918  0.0632 -0.2663  0.0260
 2414W        W18223   0.273  16.521  12.638  0.0761  0.3418 -0.3660
 2415W        W18224  14.255   8.437  14.818 -0.2466  0.0391  0.0538
 2416W        W18225   0.838  14.039   4.224 -0.1591  0.0149  0.1026
 2417W        W18226   6.436   9.915   1.717  0.2397  0.1419 -0.1184
 2418W        W18227  11.869   9.643   3.834 -0.2810 -0.1104 -0.2186
 2419W        W18228   4.484  10.013   5.421  0.2391 -0.2261 -0.3319
 2420W        W18229   1.840   1.021  14.968 -0.0637  0.0611 -0.0816
 2421W        W18230   2.165   9.454  11.902 -0.1795 -0.0131 -0.1143
 2422W        W18231  17.180  15.161   4.756  0.0273  0.1712 -0.0557
 2423W        W18232  16.181   0.253   3.274 -0.1381  0.2628  0.1297
 2424W        W18233  17.880  14.258  11.226 -0.1588 -0.0658 -0.0072
 2425W        W18234   4.841  16.890  10.118  0.0826  0.2319  0.0148
 2426W        W18235   3.003   4.565   4.805  0.2614  0.1161 -0.0053
 2427W        W18236   5.952  11.102  13.185  0.3265 -0.0021 -0.0606
 2428W        W18237  11.575   7.639   3.137 -0.2649 -0.1193 -0.1794
 2429W        W18238  12.991  14.474   0.284  0.0456 -0.1400  0.1445
 2430W        W18239   8.122  12.950   1.626  0.3353  0.3939 -0.1379
 2431W        W18240  16.394   8.916   4.157  0.1074  0.0535  0.0645
 2432W        W18241   9.943   3.770   2.124  0.0464 -0.1518  0.2833
 2433W        W18242  16.144   7.910   0.607  0.2170 -0.2324  0.0559
 2434W        W18243  10.031   2.539  14.997 -0.2484  0.0696 -0.0986
 2435W        W18244   0.050  15.815  13.253 -0.3037 -0.2963  0.0958
 2436W        W18245  16.173   7.858   5.709  0.1584 -0.2381  0.1164
 2437W        W18246   3.434   6.188   5.058 -0.0433  0.2079  0.1928
 2438W        W18247  10.962  15.810   1.822  0.1865 -0.0686  0.0767
 2439W        W18248  17.385   8.350   0.041 -0.0656 -0.5575 -0.0473
 2440W        W18249  11.485  11.376   0.445 -0.0950  0.0679 -0.1563
 2441W        W18250  12.277   9.749  10.484  0.1831 -0.0464 -0.2286
 2442W        W18251   9.972  10.893  14.468  0.1259 -0.2206 -0.3008
 2443W        W18252   4.288   1.475   1.764  0.2717  0.2794 -0.0560
 2444W        W18253   4.737  13.759  13.652  0.2230  0.2436  0.1277
 2445W        W18254  17.348  15.839   3.796  0.0340  0.2937  0.0530
 2446W        W18255   0.880  12.736  12.660 -0.3829 -0.0763 -0.1876
 2447W        W18256   7.325  14.840   2.195 -0.1362  0.1793  0.0646
 2448W        W18257   0.248   7.834   3.759  0.1147  0.1659  0.0761
 2449W        W18258   5.010   1.816   4.746 -0.0927 -0.1469  0.0625
 2450W        W18259  10.989   2.894   1.662  0.6195 -0.1278 -0.1563
 2451W        W18260  17.418  17.125   0.710 -0.0101  0.0923  0.2421
 2452W        W18261   4.196   6.265   0.192  0.0308 -0.0155 -0.1097
 2453W        W18262   9.884   7.427   1.570  0.1255  0.0332 -0.2799
 2454W        W18263  14.209  15.316  12.237 -0.1915  0.0192 -0.0868
 2455W        W18264   3.204   0.619  10.633 -0.3993 -0.1091 -0.1106
 2456W        W18265   7.071   2.086  15.548  0.2898  0.0723  0.3175
 2457W        W18266   6.872  11.859   4.895 -0.1651  0.0621 -0.1366
 2458W        W18267  13.160   3.280   0.683  0.1019  0.0510 -0.1195
 2459W        W18268   6.414   8.935  11.311 -0.2384  0.1423 -0.0451
 2460W        W18269   2.643  10.824  13.509  0.1075 -0.0029 -0.1754
 2461W        W18270  14.452  15.464   3.118 -0.3774 -0.0744  0.0612
 2462W        W18271   5.321   0.151   2.912  0.0789 -0.0885 -0.1387
 2463W        W18272  14.313   1.094  11.461 -0.0890  0.3134 -0.0444
 2464W        W18273  11.062   8.563  13.791  0.1049  0.0757 -0.1854
 2465W        W18274   6.374  17.655   0.597  0.0794  0.0831  0.2783
 2466W        W18275  18.008  10.970   2.602 -0.0733 -0.0086 -0.1934
 2467W        W18276  16.959   3.506   1.703  0.1013 -0.1765  0.0903
 2468W        W18277   6.532  16.370   0.787 -0.2292  0.0515  0.0490
 2469W        W18278   5.477  15.349   1.373  0.0982  0.1036  0.1068
 2470W        W18279   9.607  13.259   1.907  0.0224  0.1550 -0.2141
 2471W        W18280  17.127   9.444  12.198 -0.0071 -0.1451  0.2060
 2472W        W18281  11.367   0.590   0.102  0.2519 -0.0416 -0.0596
 2473W        W18282   3.845   5.943   0.132  0.0768  0.2966  0.3415
 2474W        W18283   3.541   2.970  15.579 -0.2020  0.1388 -0.1082
 2475W        W18284  11.008  13.364   4.646 -0.0797 -0.2200  0.1266
 2476W        W18285   7.582  15.558   4.449 -0.2148  0.1313 -0.0013
 2477W        W18286   1.708  15.611   5.104  0.0059  0.0813  0.0513
 2478W        W18287  17.442   7.290   1.620  0.0828 -0.1710 -0.1001
 2479W        W18288  16.062   9.267   2.630  0.5071 -0.0508  0.1643
 2480W        W18289   1.887  12.458  13.340 -0.1998 -0.1131 -0.0627
 2481W        W18290   9.615   0.888  10.803 -0.0320  0.0937 -0.1948
 2482W        W18291   3.284   3.329   1.888  0.3155  0.1416 -0.2879
 2483W        W18292  11.208   1.890  14.473  0.1536 -0.1717 -0.1303
 2484W        W18293  10.547   2.477  14.149 -0.0662 -0.0045 -0.2483
 2485W        W18294   1.746   6.145  13.600  0.2986  0.0376  0.0400
 2486W        W18295   3.242   8.247   2.802 -0.0250 -0.3569 -0.0584
 2487W        W18296  16.887  11.037  15.834  0.0411  0.2578 -0.0684
 2488W        W18297   9.727  13.873   3.649  0.1987  0.1266 -0.0717
 2489W        W18298  18.457  12.956  12.455  0.1766 -0.1994 -0.2409
 2490W        W18299  11.940  11.230   0.260  0.0557 -0.0027  0.2628
 2491W        W18300   9.825   5.534   1.688  0.0700 -0.1047  0.1827
 2492W        W18301   4.236  13.545  13.160  0.1097  0.1641  0.3105
 2493W        W18302  14.613  12.564   0.354 -0.0297 -0.2471  0.1072
 2494W        W18303   9.237   5.342   2.964 -0.1786  0.0959  0.0732
 2495W        W18304   9.153   8.864   2.237 -0.0614  0.0401 -0.2007
 2496W        W18305   8.932  12.009   2.528 -0.4984  0.1359 -0.1761
 2497W        W18306   7.386  11.958   4.803 -0.0013 -0.0876  0.1137
 2498W        W18307   4.612  15.668   5.172 -0.0573 -0.0067  0.2618
 2499W        W18308  15.244   3.402   1.171  0.1864  0.0876 -0.2815
 2500W        W18309  17.467   8.250  13.488 -0.1714 -0.1514 -0.1104
 2501W        W18310   3.885  14.135  14.653 -0.0009 -0.2317 -0.1356
 2502W        W18311   3.085  11.628   0.819  0.2508 -0.0036 -0.0261
 2503W        W18312   6.450  10.166  14.191 -0.1658 -0.0810  0.1120
 2504W        W18313   9.710  15.159   4.985 -0.1804  0.4449 -0.2183
 2505W        W18314   2.322  14.731   0.143  0.0952  0.0260 -0.1927
 2506W        W18315  16.802  17.006  12.916 -0.0167  0.2140 -0.3363
 2507W        W18316   3.632   8.327  15.162  0.0443  0.0451 -0.2341
 2508W        W18317  14.770  15.137  14.291 -0.1337  0.1638  0.1413
 2509W        W18318  14.661  12.096   2.526  0.3002 -0.2763 -0.0697
 2510W        W18319   1.878   5.846  11.713  0.0352  0.0827 -0.3059
 2511W        W18320   9.986   8.802  11.412 -0.2001 -0.2074 -0.1661
 2512W        W18321  11.686  16.829  13.075 -0.1768 -0.1744 -0.1777
 2513W        W18322  18.418   9.491   1.278  0.2490 -0.2443 -0.0762
 2514W        W18323  13.216  18.205  12.241 -0.0048 -0.1337  0.0724
 2515W        W18324   9.781   6.912  11.955 -0.1852  0.1570 -0.2264
 2516W        W18325  16.185  11.632  13.809 -0.1713  0.4962  0.0794
 2517W        W18326   7.994   8.877   5.184 -0.2197 -0.3888  0.1952
 2518W        W18327   1.713   0.327   0.410  0.2640 -0.1212 -0.0849
 2519W        W18328   5.874   1.404   1.295  0.0904  0.0838  0.2466
 2520W        W18329  17.558  11.731  11.683  0.4454 -0.0401  0.0295
 2521W        W18330  15.776   3.283  11.515 -0.5214 -0.2644 -0.1444
 2522W        W18331   4.650   8.481  12.773  0.0320  0.0503 -0.0526
 2523W        W18332   2.581  17.790   1.168  0.1102  0.0587 -0.0575
 2524W        W18333  15.852  16.031  11.869  0.0545 -0.2976 -0.2775
 2525W        W18334  14.025   1.546   9.708  0.0511 -0.3639  0.1157
 2526W        W18335   4.416  14.350  12.880  0.0261  0.0095  0.3362
 2527W        W18336  13.310  11.847  12.547 -0.1044  0.0387 -0.2108
 2528W        W18337   1.216   4.467   4.368  0.4302 -0.0575 -0.1779
 2529W        W18338  10.535   5.482   3.261 -0.1883 -0.0030 -0.0460
 2530W        W18339   1.531  16.025  12.118 -0.0800 -0.1830  0.4060
 2531W        W18340  14.325  10.916  15.767  0.3687  0.0705  0.2069
 2532W        W18341   0.894  15.252  12.724  0.0114 -0.2706  0.3441
 2533W        W18342   8.021  14.836  14.251  0.2664  0.3388  0.1404
 2534W        W18343   4.827   9.000  11.104  0.1160  0.0502 -0.3818
 2535W        W18344  12.355   7.615   1.394 -0.1917 -0.4086  0.0827
 2536W        W18345  13.906  11.791  11.051 -0.1817 -0.0803 -0.2887
 2537W        W18346   6.951  17.836   1.183 -0.6122 -0.1752  0.0791
 2538W        W18347   3.337  17.926   0.569 -0.1167 -0.0237  0.2119
 2539W        W18348   0.491  10.088   1.804 -0.3993  0.0616  0.1014
 2540W        W18349  11.945  10.540  13.196  0.0362 -0.1117  0.0717
 2541W        W18350   4.078  18.041  12.680  0.0562  0.2405  0.0241
 2542W        W18351   0.499   5.242   2.584  0.1770  0.0418  0.1499
 2543W        W18352   7.941  12.091  11.841  0.0219 -0.0189 -0.1075
 2544W        W18353  15.748   0.837   1.369 -0.1398  0.1455  0.1327
 2545W        W18354  10.363  18.263   2.192  0.2426  0.3374 -0.1781
 2546W        W18355   5.018   1.029  12.856  0.0942 -0.0899 -0.0294
 2547W        W18356   6.370  11.181  10.124  0.2676  0.1474 -0.1743
 2548W        W18357   3.225   1.161   1.728 -0.0123  0.1288  0.1943
 2549W        W18358  18.102  16.997   3.221 -0.0049  0.1545 -0.3441
 2550W        W18359  14.569  11.528  12.783 -0.0990 -0.0259  0.0841
 2551W        W18360  13.759  14.151  12.533  0.1060 -0.0235  0.1930
 2552W        W18361  15.380   6.170  11.647  0.1564 -0.0129 -0.3654
 2553W        W18362   6.250  16.903  11.449 -0.0619 -0.0258 -0.2139
 2554W        W18363  16.322  12.180   9.948 -0.1350  0.0280 -0.1415
 2555W        W18364  15.886   5.316   2.596  0.2007 -0.0940  0.0708
 2556W        W18365  12.932  16.771   0.030  0.0358 -0.0456  0.0896
 2557W        W18366  12.782  17.792  14.821 -0.1376  0.1851 -0.1123
 2558W        W18367   2.094  15.860  13.821 -0.0936  0.1924  0.0242
 2559W        W18368  16.637   9.520  12.042 -0.0201  0.0746 -0.1488
 2560W        W18369  16.518   3.236  11.971  0.3666  0.2027 -0.1329
 2561W        W18370  10.744   1.952   5.072 -0.1791  0.0968  0.2388
 2562W        W18371   5.970  12.451  10.964  0.0049 -0.0438  0.2029
 2563W        W18372  14.270   6.054   1.861 -0.2294 -0.0012 -0.0651
 2564W        W18373   0.338   5.008  15.794 -0.2125 -0.1447 -0.1843
 2565W        W18374   5.210   2.873  14.671 -0.2140 -0.1296 -0.0140
 2566W        W18375   0.102   6.589  15.016 -0.1458  0.0283 -0.1729
 2567W        W18376   5.089   3.318  12.054 -0.2784 -0.1962  0.1958
 2568W        W18377   0.511  14.869   0.474  0.5604 -0.2537 -0.0067
 2569W        W18378  17.950  15.748  11.796  0.0978  0.3281  0.0350
 2570W        W18379   7.962  13.796  12.183 -0.4247 -0.0761 -0.1155
 2571W        W18380   2.911   3.783  11.888  0.1103 -0.1168 -0.1249
 2572W        W18381   3.614  18.458  11.818  0.2403  0.2874 -0.0999
 2573W        W18382   6.257   5.629  15.372  0.2810  0.0723  0.1143
 2574W        W18383  10.019   1.262  15.694  0.0455  0.0438 -0.0910
 2575W        W18384  13.510  12.953   5.662 -0.1342  0.0982 -0.4610
 2576W        W18385   4.350   0.866   9.954  0.0840  0.3023 -0.1333
 2577W        W18386  17.098   2.068  10.823 -0.1113  0.0737 -0.1465
 2578W        W18387  10.676   5.094   3.742 -0.0800 -0.1072  0.2142
 2579W        W18388  14.378  17.099   1.842  0.0095 -0.2632 -0.0826
 2580W        W18389   1.232   6.620   1.142 -0.2619  0.1106 -0.1392
 2581W        W18390   1.905  13.530   2.703  0.2368 -0.0365 -0.4344
 2582W        W18391   7.060   5.779   0.035  0.2769  0.1864 -0.0334
 2583W        W18392   6.269   3.161  12.185  0.0515 -0.0457 -0.4122
 2584W        W18393   2.846  17.828   5.312 -0.0044 -0.0615 -0.1453
 2585W        W18394  13.492   9.119  13.266 -0.2069 -0.1321 -0.2079
 2586W        W18395   1.078  11.122   1.285 -0.1688  0.1203  0.2117
 2587W        W18396  13.220   5.287   1.918  0.0699  0.4528  0.2343
 2588W        W18397   8.436   4.908  14.998  0.1709 -0.1095  0.0514
 2589W        W18398   8.666  16.222   2.177 -0.0515 -0.3379 -0.1973
 2590W        W18399   2.800   1.007  12.175  0.3026 -0.1221 -0.0562
 2591W        W18400   6.519   3.502  10.728  0.0194 -0.1593 -0.3162
 2592W        W18401   1.899   6.273  12.062 -0.1146 -0.1302 -0.2027
 2593W        W18402   6.417   2.861   1.526  0.1343 -0.1467  0.3533
 2594W        W18403   3.791   3.245   3.889 -0.1187  0.2110 -0.0102
 2595W        W18404   6.602  11.853   4.397 -0.1413  0.1381  0.1792
 2596W        W18405  16.204   1.756  13.264  0.2560  0.4451 -0.0443
 2597W        W18406   5.148   6.576   4.316  0.0584  0.1595  0.1041
 2598W        W18407  16.548   2.068  12.929 -0.2926 -0.0025  0.1348
 2599W        W18408   8.297   4.102   0.943  0.1615  0.2235 -0.1061
 2600W        W18409  10.062  17.227   5.516 -0.2296 -0.0325  0.0561
 2601W        W18410  13.973  10.806   4.563  0.1704  0.1163  0.0829
 2602W        W18411   0.404  18.445  13.852 -0.1136  0.0737  0.5630
 2603W        W18412   9.705   6.305  13.718 -0.0346  0.2810  0.4477
 2604W        W18413   9.489  13.733   4.056 -0.1969  0.1040  0.2296
 2605W        W18414  17.404   2.714  14.162 -0.2255 -0.1311  0.0586
 2606W        W18415  18.191  16.728   2.784  0.2728 -0.1807 -0.1243
 2607W        W18416   4.583   6.746   5.002 -0.0052 -0.2844  0.0606
 2608W        W18417  10.120   3.448   2.486  0.0627  0.1682 -0.0614
 2609W        W18418   4.415  18.199  11.376 -0.0589 -0.2516 -0.0625
 2610W        W18419   0.512  15.265   2.975 -0.0676  0.0929  0.0495
 2611W        W18420  16.842  13.827   2.178  0.1035 -0.0853 -0.0530
 2612W        W18421  14.839   7.775  15.215  0.0399 -0.1397 -0.0839
 2613W        W18422  14.066  15.882   0.498 -0.2190  0.0831 -0.0135
 2614W        W18423   7.703  13.286  12.445 -0.0674  0.1013  0.2800
 2615W        W18424   9.059   1.854  12.967 -0.0056  0.0905 -0.2971
 2616W        W18425   4.915  11.786   5.471 -0.0292 -0.2405  0.2660
 2617W        W18426   7.128   7.084   3.927 -0.2924 -0.0910 -0.3323
 2618W        W18427  14.547  16.883  14.826 -0.0979  0.2800 -0.1553
 2619W        W18428   3.126   8.716  13.262 -0.0941  0.2118 -0.1318
 2620W        W18429   4.303   8.685   4.775 -0.2651  0.1657 -0.0083
 2621W        W18430   3.136  11.447  11.972 -0.1118  0.0529  0.0258
 2622W        W18431   7.748  15.539   1.075 -0.1226 -0.0972 -0.0025
 2623W        W18432   2.349   7.930   3.653  0.1100 -0.1085 -0.2029
 2624W        W18433  18.062  11.126  14.197 -0.1491 -0.1171  0.0242
 2625W        W18434  15.820   6.624   2.771  0.1428 -0.1101 -0.1500
 2626W        W18435  14.445  12.371   1.793 -0.1002  0.0012 -0.0700
 2627W        W18436  14.035   0.964  12.408  0.1506  0.2241  0.0635
 2628W        W18437   9.931  15.904  14.636 -0.0186  0.0735 -0.0257
 2629W        W18438  11.301  17.028   4.360  0.0106 -0.0587 -0.0472
 2630W        W18439  11.786  17.817  12.360  0.0762 -0.1165 -0.1613
 2631W        W18440   6.258   6.181   9.692 -0.0973 -0.2123  0.1016
 2632W        W18441   9.875  11.975  11.876 -0.1728 -0.1539 -0.1194
 2633W        W18442   4.416   9.091  14.779  0.2098 -0.1102 -0.0093
 2634W        W18443  15.324   4.476  12.126  0.1596 -0.2312  0.0207
 2635W        W18444  17.392   6.878  12.493 -0.0016  0.1941  0.2111
 2636W        W18445  13.911  11.234  10.962 -0.1046 -0.0356 -0.1717
 2637W        W18446   3.177   8.546  14.265 -0.1440  0.0120 -0.2826
 2638W        W18447   5.365   2.664   9.709 -0.1944 -0.0462  0.0751
 2639W        W18448   1.064   2.566   3.228 -0.2573 -0.2206  0.1131
 2640W        W18449  10.380   6.503   4.592 -0.3825 -0.1153  0.1690
 2641W        W18450  14.524   5.598   4.595  0.3228  0.3242 -0.1996
 2642W        W18451   4.579  10.775   1.379 -0.0586  0.2475 -0.2841
 2643W        W18452   3.587   9.211  14.945 -0.0191  0.0808  0.0226
 2644W        W18453  14.736  11.198  14.955  0.0233  0.1105 -0.0797
 2645W        W18454  11.833   3.996  11.691  0.0721  0.0464 -0.0362
 2646W        W18455   4.423  17.100  13.967 -0.3073 -0.3588 -0.3524
 2647W        W18456  15.892  10.565  15.333  0.3256 -0.0664  0.0297
 2648W        W18457   4.858  14.962   2.322  0.0005  0.0953  0.0242
 2649W        W18458   4.468  14.443  11.837  0.0953  0.2377 -0.1632
 2650W        W18459   3.189   8.791  15.120  0.0318 -0.3006  0.0717
 2651W        W18460   1.572  14.174   2.486  0.1914 -0.0464  0.0152
 2652W        W18461  15.364  16.301   0.914  0.0374  0.3747 -0.1236
 2653W        W18462  10.304  11.804  11.007  0.3131 -0.0448 -0.2639
 2654W        W18463  18.104  17.507  14.642 -0.0106 -0.2174 -0.2589
 2655W        W18464   0.257  14.569  13.564  0.1319 -0.1706  0.0358
 2656W        W18465   2.252   4.005   2.918  0.1703 -0.1203 -0.3418
 2657W        W18466   4.006   9.695  12.445 -0.1721 -0.1606 -0.2747
 2658W        W18467  10.815  14.774  14.677  0.0357  0.0724 -0.1696
 2659W        W18468  10.368   2.057   4.030 -0.0612 -0.0845  0.3050
 2660W        W18469  14.546  12.089   3.033 -0.1945 -0.2947  0.0601
 2661W        W18470   4.867  11.558  10.724  0.1136  0.0773 -0.2286
 2662W        W18471  17.549  13.811   3.803  0.0777  0.1581 -0.2914
 2663W        W18472  14.154  10.778   2.511  0.0973 -0.0417  0.1353
 2664W        W18473  15.311   5.824  10.770 -0.0784  0.0591  0.1648
 2665W        W18474   7.969  12.646  13.284  0.3716 -0.1038 -0.1936
 2666W        W18475   5.920  18.125  11.669  0.1112 -0.2869 -0.0797
 2667W        W18476   1.448   9.667   4.272  0.1462 -0.3025 -0.0080
 2668W        W18477   0.816   0.576  14.721 -0.0179 -0.0261 -0.0629
 2669W        W18478   9.107  16.480   1.577  0.1720 -0.1024 -0.0896
 2670W        W18479   8.249  10.196   0.432 -0.1843  0.3752  0.0427
 2671W        W18480   6.156   6.798  12.830  0.0210 -0.0222 -0.0960
 2672W        W18481   1.843   0.170   5.702 -0.0960  0.0105 -0.2784
 2673W        W18482  11.953   0.376   0.523  0.0319 -0.3000 -0.0136
 2674W        W18483   4.189  10.128   4.346 -0.0879  0.0182 -0.1050
 2675W        W18484   4.138  14.337   2.052  0.0751  0.0899 -0.0112
 2676W        W18485  16.274   7.747  11.357  0.3207  0.0969  0.1643
 2677W        W18486   5.269  15.645   3.144  0.0826  0.1382 -0.3020
 2678W        W18487  14.504  12.408  13.236  0.1156 -0.3353 -0.2204
 2679W        W18488  15.168  18.145   1.007  0.3213 -0.0274  0.4628
 2680W        W18489  11.937   7.478   1.141 -0.0645  0.2683 -0.2178
 2681W        W18490   3.516   3.934  11.926 -0.1139 -0.1521 -0.2377
 2682W        W18491   0.287  15.761   4.497 -0.0505  0.0466  0.0008
 2683W        W18492  15.126  10.829   9.965  0.1525 -0.3794 -0.0101
 2684W        W18493   8.875  12.679  14.807 -0.0943 -0.1314  0.1563
 2685W        W18494   0.237  12.161   3.490 -0.1149 -0.1370 -0.0054
 2686W        W18495  17.207  15.826   2.918 -0.1324 -0.1357  0.0933
 2687W        W18496  14.321  17.386  13.323  0.2352  0.0976 -0.1349
 2688W        W18497  10.016  11.220   2.297  0.1819 -0.0773 -0.0051
 2689W        W18498   9.157   4.738   3.662 -0.0496  0.2473 -0.2218
 2690W        W18499  11.519  16.153   4.288  0.2447  0.2970  0.1182
 2691W        W18500   6.428  17.363  11.255 -0.0085 -0.0016 -0.0025
 2692W        W18501   6.880   6.076   1.576  0.1476 -0.0907 -0.0922
 2693W        W18502  12.842   1.470   2.067  0.0940 -0.3997  0.1118
 2694W        W18503   9.159  10.407   2.069  0.1135 -0.2929 -0.1397
 2695W        W18504   2.845   4.109   2.296 -0.0968  0.2372 -0.1009
 2696W        W18505   4.731  12.250  11.322  0.0999  0.3077 -0.0119
 2697W        W18506   6.951  17.216   4.414  0.3684  0.2100  0.0589
 2698W        W18507  14.197  12.737   1.565 -0.0196 -0.2665  0.3944
 2699W        W18508   6.130  14.350  13.648  0.0817 -0.0597 -0.0982
 2700W        W18509  16.712  13.494  11.095 -0.1227  0.1660 -0.0997
 2701W        W18510   8.492  15.221   0.034 -0.1701 -0.1656 -0.4242
 2702W        W18511  16.003   8.449   4.936  0.1548  0.1091  0.0219
 2703W        W18512   3.146  12.543  15.308 -0.1136  0.1680  0.0156
 2704W        W18513   9.698  14.997   1.773 -0.1352  0.0849  0.2383
 2705W        W18514  10.310  10.098   5.217 -0.0530 -0.1856  0.0768
 2706W        W18515   9.354   2.638  10.635  0.0796  0.0321 -0.1994
 2707W        W18516  10.546   4.971  15.763  0.0542 -0.0363 -0.1114
 2708W        W18517   7.003  12.687   0.233 -0.0718 -0.0550 -0.2187
 2709W        W18518   3.031  13.645   3.684 -0.0559  0.1998  0.1292
 2710W        W18519   3.878   6.025   4.867  0.1613 -0.1814  0.4058
 2711W        W18520  13.456   3.888   5.642  0.0490 -0.0273  0.1993
 2712W        W18521  10.152  14.573   0.175 -0.3240  0.0208  0.0673
 2713W        W18522  15.321  12.883  15.121  0.3221 -0.2207 -0.3831
 2714W        W18523  15.987   1.437   0.848  0.1276  0.0761  0.0110
 2715W        W18524   6.696  14.153   4.884  0.1535 -0.1155  0.0533
 2716W        W18525  15.200   5.867   0.752  0.0984 -0.3759 -0.6395
 2717W        W18526  13.574  13.780   9.710 -0.2032 -0.1382  0.1144
 2718W        W18527   2.715   0.491  14.836  0.0739  0.3082  0.1515
 2719W        W18528  13.421   2.289   3.708 -0.4217  0.3560  0.2362
 2720W        W18529   1.014   4.735  13.277 -0.2705 -0.0262 -0.0071
 2721W        W18530   8.199   6.437  13.776  0.2293 -0.0067  0.1156
 2722W        W18531   8.953   3.478  13.825 -0.0251 -0.0147  0.1115
 2723W        W18532  17.336   3.143   4.065 -0.2004  0.0162 -0.0072
 2724W        W18533  14.169  13.234   1.732  0.0739 -0.1765  0.1342
 2725W        W18534   5.481   4.435   1.658  0.1212  0.0383  0.0388
 2726W        W18535   0.025   7.819  15.520  0.2196 -0.1661  0.3425
 2727W        W18536  12.032   9.792  15.438  0.0131  0.0778 -0.0946
 2728W        W18537  15.491   5.417   5.459 -0.0628  0.0032  0.2067
 2729W        W18538   6.895  12.322  11.035  0.1422  0.1421 -0.1154
 2730W        W18539   4.112  17.637   5.326  0.1367  0.1152  0.1886
 2731W        W18540  11.850   5.079  14.413 -0.1678  0.1082 -0.0077
 2732W        W18541  10.839  17.430  10.917 -0.1572 -0.0316 -0.1261
 2733W        W18542  11.024   4.186  14.215  0.3460 -0.1524  0.0742
 2734W        W18543   9.609   1.437  13.958 -0.2036  0.2081  0.0607
 2735W        W18544  13.032   8.995  10.536  0.2107  0.0271  0.1791
 2736W        W18545   8.244  16.444   0.894 -0.2751 -0.0293  0.0014
 2737W        W18546   9.738  15.892  11.691  0.0334 -0.0003  0.1614
 2738W        W18547   0.754  11.040   1.711 -0.2928  0.0308  0.0321
 2739W        W18548  16.159  11.212  13.452  0.2948  0.0125 -0.3263
 2740W        W18549  14.208  13.307   3.190 -0.0546  0.1060  0.2240
 2741W        W18550   5.601   2.186   4.273  0.1463 -0.1790 -0.2599
 2742W        W18551  15.166  10.983  15.340 -0.3301  0.0930  0.2122
 2743W        W18552  16.133   6.947  14.947 -0.0729 -0.1383 -0.0065
 2744W        W18553   6.470  16.845   1.223  0.0058  0.0965  0.1436
 2745W        W18554  16.078   0.894  11.158  0.3371 -0.0361  0.0106
 2746W        W18555  17.319  15.447   4.381  0.0948 -0.0739  0.0977
 2747W        W18556   4.131   2.803  11.723 -0.0047  0.1054 -0.4752
 2748W        W18557   2.983   6.197   3.667  0.3227 -0.0551 -0.0677
 2749W        W18558   4.077  15.195   5.740 -0.1225 -0.1527 -0.0124
 2750W        W18559   3.721   3.928  15.127 -0.2571  0.0042  0.2833
 2751W        W18560  15.570  17.768  14.180  0.0982  0.0229 -0.0211
 2752W        W18561  11.946   6.458   1.900 -0.2184 -0.2855 -0.0030
 2753W        W18562   2.453  14.707   1.845 -0.0219  0.1734 -0.0609
 2754W        W18563   7.196  13.124  13.986  0.0158  0.1612 -0.0588
 2755W        W18564   1.255   1.826   3.431 -0.1538 -0.1011 -0.1019
 2756W        W18565  11.763   2.680   4.398  0.2097  0.1125 -0.0401
 2757W        W18566  16.538  18.461   2.113  0.1571 -0.1584 -0.1010
 2758W        W18567   2.612   0.221   2.395  0.0328  0.2417  0.2382
 2759W        W18568   8.283  18.008   1.926  0.3277 -0.1152 -0.0813
 2760W        W18569   3.258   5.101  15.060  0.3084 -0.1292  0.0794
 2761W        W18570   5.345  16.917   0.885  0.0769  0.2956  0.0039
 2762W        W18571   0.241   9.385   3.006 -0.1992 -0.1648  0.0085
 2763W        W18572   0.322   7.339  12.235 -0.2482  0.5238 -0.0368
 2764W        W18573   5.343   5.734   4.863  0.1089 -0.0528  0.1899
 2765W        W18574  12.911   0.844   5.492 -0.0869 -0.0123 -0.0271
 2766W        W18575  15.388   0.379   4.535 -0.2188  0.0336  0.2947
 2767W        W18576  18.120   3.099  12.769 -0.2463 -0.1744 -0.1426
 2768W        W18577  13.895  10.218   1.873  0.1002  0.1957 -0.4098
 2769W        W18578  12.381  11.002  11.951  0.0576  0.2369  0.2520
 2770W        W18579   2.920  17.310  15.144  0.2114 -0.0052  0.4121
 2771W        W18580   5.416   8.195   3.316  0.1498 -0.0420 -0.1271
 2772W        W18581   8.564  12.441   2.456 -0.1653 -0.2257  0.1090
 2773W        W18582   3.815   7.148   1.179  0.1080 -0.1299 -0.1293
 2774W        W18583   6.080  13.780  13.115  0.0111  0.0467 -0.2454
 2775W        W18584   0.048   9.584  11.967 -0.1979  0.0482 -0.3492
 2776W        W18585  15.010   3.616  11.368  0.1905 -0.0300 -0.2896
 2777W        W18586   4.277   0.980   1.427 -0.2282 -0.0037  0.2078
 2778W        W18587   9.165   3.950  11.915  0.0299 -0.1553  0.0331
 2779W        W18588  11.558  14.552  11.405 -0.3733  0.2434  0.1019
 2780W        W18589   9.435   0.295   1.902  0.1322  0.0811  0.0770
 2781W        W18590   3.495   4.623   2.410 -0.0005  0.0901 -0.1934
 2782W        W18591   4.378   9.330  11.262 -0.0651 -0.1410  0.0332
 2783W        W18592   0.054  11.121   0.275  0.4496  0.0615  0.1995
 2784W        W18593   0.293   6.444  14.135 -0.1902 -0.0873 -0.0306
 2785W        W18594   0.663  17.908   1.657  0.0063  0.1107  0.2349
 2786W        W18595   3.898   1.542   2.654 -0.1580 -0.0151  0.0397
 2787W        W18596   8.058   9.308  13.288 -0.1220  0.0896 -0.0711
 2788W        W18597  17.688  14.490   5.245  0.0680  0.3664  0.0453
 2789W        W18598   8.701  12.208   2.004  0.0539  0.0625 -0.0221
 2790W        W18599   3.413  10.921  14.504  0.1271  0.0770  0.1450
 2791W        W18600  10.378  12.249   1.297 -0.4055  0.1539 -0.0401
 2792W        W18601  10.575   3.894  15.164 -0.0301  0.0209  0.1202
 2793W        W18602   5.915  10.702   3.752  0.0594  0.0357 -0.0708
 2794W        W18603   7.451   2.486   3.129 -0.1958 -0.3458 -0.0599
 2795W        W18604  13.208  16.002   1.237 -0.0068  0.2797  0.0726
 2796W        W18605  17.282   4.606   5.540  0.1984 -0.0040  0.3062
 2797W        W18606  16.801   1.670   0.498 -0.1816 -0.2579 -0.0345
 2798W        W18607   7.215  13.590  12.765  0.2735  0.0646  0.1326
 2799W        W18608   0.512  17.687   0.037  0.3692  0.0373 -0.2725
 2800W        W18609   9.729  16.858   2.795  0.0245 -0.0265  0.0795
 2801W        W18610   1.187  17.067  14.471 -0.5612  0.2395 -0.0063
 2802W        W18611   8.560  12.298  12.389 -0.2308 -0.0353 -0.1972
 2803W        W18612  12.952   4.707   3.891  0.1190 -0.1398 -0.0213
 2804W        W18613  15.349   7.050   2.134 -0.3024  0.2765 -0.0496
 2805W        W18614   9.027   0.617   0.734 -0.0540 -0.0369 -0.2049
 2806W        W18615   3.367   7.884  11.395 -0.2478  0.2118  0.1897
 2807W        W18616  13.732  18.018  14.256  0.0313  0.1684 -0.1455
 2808W        W18617  15.087   0.317  13.682  0.0352  0.0155  0.2550
 2809W        W18618  16.377   6.394  11.709 -0.1408  0.2747 -0.2208
 2810W        W18619  12.805   8.390   1.207 -0.0057  0.1658  0.2429
 2811W        W18620   0.298   8.366   2.675  0.1547 -0.2046  0.1687
 2812W        W18621  13.558  16.574   4.359  0.1909 -0.1831  0.4622
 2813W        W18622   2.747  12.385   0.812  0.0278 -0.1813  0.0748
 2814W        W18623  15.354  14.390  13.103 -0.0459  0.3839 -0.3027
 2815W        W18624   6.926  18.233   2.046  0.2278 -0.0085 -0.5770
 2816W        W18625   8.485   3.766  13.931 -0.0172  0.1259  0.0739
 2817W        W18626  15.694   8.066   4.934  0.2826 -0.0133 -0.0897
 2818W        W18627   1.759   6.615   2.352 -0.0642 -0.0397  0.0438
 2819W        W18628   9.742  14.759  15.835  0.0200  0.2593 -0.2525
 2820W        W18629  11.913   8.761  14.174  0.1296 -0.0800  0.2720
 2821W        W18630  11.984   8.831  14.979 -0.0152 -0.4150 -0.2125
 2822W        W18631   3.536  14.726  14.189  0.1787  0.1163  0.2893
 2823W        W18632   7.324   8.946   5.108 -0.0321 -0.0624 -0.3357
 2824W        W18633   5.359  15.817   1.185 -0.0033  0.2702 -0.0906
 2825W        W18634   5.370  11.778   1.110 -0.1473 -0.1863 -0.1875
 2826W        W18635  16.660   6.584  13.952  0.1117 -0.0774  0.0009
 2827W        W18636   6.734  16.657  11.168 -0.1374  0.1494  0.3684
 2828W        W18637   2.821   9.070   1.456  0.2229 -0.0726 -0.1444
 2829W        W18638   2.850   8.288   2.390 -0.1273 -0.1920  0.2267
 2830W        W18639   0.361   6.607   1.194 -0.4425  0.0079 -0.3637
 2831W        W18640  12.549  11.815   0.017 -0.1836 -0.1954 -0.0905
 2832W        W18641   2.549  13.729  15.148 -0.0069 -0.1262  0.2509
 2833W        W18642   0.312   8.186  10.884  0.2195  0.0740 -0.0433
 2834W        W18643  17.408  16.613   3.545 -0.0919  0.3854  0.3003
 2835W        W18644  15.103   3.195  13.791  0.1119 -0.0125 -0.3404
 2836W        W18645  16.839   1.042   4.274 -0.1266  0.2153 -0.3632
 2837W        W18646   8.516   5.365   0.468 -0.3520  0.1083  0.1814
 2838W        W18647  11.224   8.041  11.969  0.1887  0.0383 -0.0395
 2839W        W18648  13.443   2.437   3.232 -0.3482  0.0462  0.1996
 2840W        W18649   6.445  12.975  14.406 -0.0749  0.1062 -0.2004
 2841W        W18650  18.132   9.248  15.338  0.0835  0.1448 -0.0471
 2842W        W18651   1.234   8.581  15.370  0.1669  0.0796 -0.0401
 2843W        W18652  16.238  13.118  12.457  0.0353 -0.3370 -0.0687
 2844W        W18653  15.617  17.358  10.679  0.1308 -0.0958  0.0895
 2845W        W18654   8.789  14.019  14.542  0.0800 -0.0043  0.0368
 2846W        W18655  14.383   5.322   2.523  0.2651 -0.2762  0.1682
 2847W        W18656   4.581   3.627  14.732 -0.1637 -0.0426 -0.2759
 2848W        W18657  17.735   5.750   3.334 -0.0952 -0.0187 -0.1304
 2849W        W18658   1.964   7.919   1.413  0.1931 -0.1069  0.1416
 2850W        W18659   3.744   1.826   0.902  0.0166  0.3940  0.2358
 2851W        W18660  16.775   6.214   5.324 -0.1272  0.0499  0.3087
 2852W        W18661  18.223   3.385   3.932  0.2355  0.1220  0.0324
 2853W        W18662   4.593   1.582  10.917  0.0414  0.0840  0.1022
 2854W        W18663  17.968   7.254  11.929  0.0335 -0.0452  0.2839
 2855W        W18664   6.556  15.244   2.675  0.0898  0.0738  0.0563
 2856W        W18665  10.410   4.664  13.362 -0.1352 -0.3024 -0.0179
 2857W        W18666   8.578   1.512   1.849  0.1812 -0.0109  0.0593
 2858W        W18667   4.498   0.038   0.518  0.0268  0.2017 -0.1754
 2859W        W18668  10.198   7.902   4.394  0.1129 -0.0836 -0.0550
 2860W        W18669   6.003  14.644  12.242  0.0875  0.1703 -0.1563
 2861W        W18670   0.120  14.499   1.215  0.3293 -0.0375 -0.1610
 2862W        W18671   0.936  11.958   1.062  0.3337 -0.4325  0.3926
 2863W        W18672   0.923  13.478   1.558  0.0940 -0.2839  0.3231
 2864W        W18673  16.357  10.419   3.449 -0.0404  0.2511  0.1353
 2865W        W18674   7.355   8.510  14.015 -0.0214 -0.2173 -0.0666
 2866W        W18675   1.958   1.778  13.383  0.0212  0.1206  0.0176
 2867W        W18676  14.202  17.913  15.792 -0.1201  0.2004  0.0282
 2868W        W18677   1.720  16.008   2.024  0.0193 -0.1145  0.1044
 2869W        W18678   1.630   3.358  11.218 -0.1408  0.0151  0.2391
 2870W        W18679  15.618   6.692   1.260 -0.0400  0.1048  0.0576
 2871W        W18680   6.348  15.516   3.533  0.1798 -0.1375  0.0884
 2872W        W18681   3.091   4.549  15.185 -0.0356 -0.0294 -0.1029
 2873W        W18682  15.874  17.372   2.978  0.0471 -0.0707  0.0101
 2874W        W18683  18.195   8.524   1.519  0.0638 -0.2309 -0.1742
 2875W        W18684  13.999   7.762   4.727  0.0135 -0.0005  0.1165
 2876W        W18685   5.644   6.876   1.724  0.1560  0.1246 -0.0381
 2877W        W18686   2.985   4.963   5.956 -0.2598 -0.0744 -0.2320
 2878W        W18687   8.327   7.360  12.331 -0.1194 -0.1551  0.0505
 2879W        W18688  10.952  12.064  12.522  0.1075  0.1388  0.1534
 2880W        W18689  12.719   4.789  11.485  0.0258  0.0946  0.1741
 2881W        W18690   4.755  13.411  13.257 -0.1510  0.0780  0.0406
 2882W        W18691   7.754   5.636  12.145  0.2580 -0.0467 -0.1845
 2883W        W18692  10.122  10.343   0.598  0.2804  0.0432  0.0932
 2884W        W18693   6.081  13.328   2.018 -0.1685  0.0391  0.1078
 2885W        W18694   8.030   2.820   0.692  0.0795 -0.1758  0.0913
 2886W        W18695  14.070   9.363   2.217  0.0637  0.3714  0.0307
 2887W        W18696  15.932   3.821   0.208  0.0661  0.2460  0.1361
 2888W        W18697  15.632  11.598  15.384 -0.1194  0.2443  0.1388
 2889W        W18698   9.776  15.465   2.028  0.0407  0.1907 -0.1026
 2890W        W18699  17.746   5.960   1.831  0.2441  0.4223  0.1222
 2891W        W18700  15.897   5.120  10.421 -0.2597 -0.0503  0.2248
 2892W        W18701  12.833   6.743  13.824 -0.2514  0.1024 -0.0318
 2893W        W18702  17.006  10.802   2.675 -0.0926  0.0197 -0.0697
 2894W        W18703   3.834   6.749   0.607 -0.4242  0.1928 -0.1550
 2895W        W18704  15.157  11.713   0.280  0.3456  0.2058  0.0518
 2896W        W18705   2.588  15.609  14.119 -0.0420 -0.0719 -0.1300
 2897W        W18706   1.318  12.097  15.463 -0.1466 -0.1234 -0.0095
 2898W        W18707  12.944   4.872   2.678 -0.2491  0.0758  0.0388
 2899W        W18708  13.406  14.438   2.516  0.2278  0.0070 -0.2618
 2900W        W18709   7.922   2.307  14.458 -0.2587 -0.1083 -0.2357
 2901W        W18710  12.372   5.191  14.199 -0.0856 -0.0983 -0.3496
 2902W        W18711  12.889  14.281  11.455  0.1202 -0.3031  0.1280
 2903W        W18712   3.918   1.424   0.106 -0.2096  0.1087  0.0822
 2904W        W18713   0.075  13.530  14.746 -0.0258 -0.0506 -0.0952
 2905W        W18714   3.262  17.483   5.369  0.1315  0.1249 -0.3568
 2906W        W18715   2.276  17.960   3.105  0.2539 -0.3751 -0.0332
 2907W        W18716   7.172  13.127  11.921  0.1126 -0.1859  0.2402
 2908W        W18717   5.984   6.716  10.950 -0.2705 -0.0019  0.1916
 2909W        W18718  12.324   1.895  11.323  0.1599  0.1201  0.0974
 2910W        W18719  14.786   7.189   0.432 -0.1909 -0.2583  0.2476
 2911W        W18720  12.978   4.702   4.974  0.1303 -0.2353 -0.1979
 2912W        W18721  12.624   8.874  12.086  0.0005  0.2868 -0.0385
 2913W        W18722   4.205   5.336  12.010 -0.0218 -0.0203  0.0067
 2914W        W18723  10.287   5.027   3.312  0.0323 -0.0605 -0.0235
 2915W        W18724  11.032   2.352  12.786 -0.1749  0.3457 -0.1976
 2916W        W18725   8.380  10.429   5.871 -0.0374 -0.1818  0.0499
 2917W        W18726   4.996  11.236   4.619  0.2704 -0.0334  0.3753
 2918W        W18727  17.207   7.575  15.015 -0.1183 -0.1456 -0.2197
 2919W        W18728  18.408  12.171  13.943  0.1090  0.2302  0.0504
 2920W        W18729  15.471   8.534  13.568 -0.1388 -0.0835  0.2103
 2921W        W18730   1.625  10.100   4.088  0.0052  0.0777 -0.0830
 2922W        W18731  16.809   5.319  12.540 -0.3667  0.0039 -0.2240
 2923W        W18732  15.900   7.962  14.993 -0.2099 -0.0674  0.1277
 2924W        W18733   9.799   8.274  12.097  0.0962 -0.1635 -0.0474
 2925W        W18734  15.022  12.807   2.448 -0.0906 -0.1378  0.0812
 2926W        W18735   7.714   3.710  14.557 -0.0670  0.2907  0.2126
 2927W        W18736   8.517   6.046   3.400  0.2223  0.1568  0.2917
 2928W        W18737   0.636   3.988   1.888  0.0741  0.0380  0.2561
 2929W        W18738  18.255  14.657  11.297 -0.0236 -0.2079 -0.2765
 2930W        W18739   9.592  15.115  14.215  0.3537 -0.1993 -0.0745
 2931W        W18740   6.260  10.574  13.437  0.2783 -0.0101  0.0145
 2932W        W18741   5.307  13.805  10.871 -0.3698  0.0051 -0.0974
 2933W        W18742  15.958  11.045   2.671  0.0074  0.0558  0.2241
 2934W        W18743  13.691   7.056  14.528  0.1583  0.2679 -0.1365
 2935W        W18744  11.627   9.345  13.208  0.1814 -0.2368  0.0715
 2936W        W18745  10.189   1.870   1.295  0.1271  0.0249 -0.0178
 2937W        W18746   4.757   9.920  10.804  0.4360  0.0276 -0.0347
 2938W        W18747  15.901   1.367   3.936  0.1319  0.0332  0.1508
 2939W        W18748  17.146   1.080   4.760 -0.1728 -0.1978  0.0425
 2940W        W18749   2.626  16.569  11.483  0.3203  0.0248 -0.2975
 2941W        W18750   4.078   8.454  11.096 -0.3304 -0.0565 -0.0628
 2942W        W18751   7.570   3.395  15.518  0.0181 -0.1355 -0.2165
 2943W        W18752   6.511   6.059   0.167 -0.0870  0.0605  0.1754
 2944W        W18753   7.446   3.110   5.125 -0.1666 -0.3030  0.1699
 2945W        W18754   3.402   6.435   2.747 -0.3850  0.1512  0.1148
 2946W        W18755   0.115   7.375   1.091  0.0875 -0.3470  0.0671
 2947W        W18756  17.728  12.323  12.379  0.0370  0.0686  0.1170
 2948W        W18757   5.981  15.511   2.164  0.1652  0.1609 -0.0875
 2949W        W18758  10.961  13.226  15.430  0.1756 -0.0273  0.3651
 2950W        W18759  14.664   4.329   2.527  0.0161 -0.0013  0.1754
 2951W        W18760   4.220  10.659   0.976  0.1080 -0.3848  0.1889
 2952W        W18761   5.102   4.011   4.430  0.2827 -0.0275  0.0357
 2953W        W18762  18.348   7.257   4.865 -0.0749  0.3689  0.0830
 2954W        W18763   6.306   5.357   0.844  0.1402 -0.0448 -0.3086
 2955W        W18764   3.347   8.502  13.678  0.1421  0.0055 -0.1714
 2956W        W18765   1.632   3.446   1.324  0.1471 -0.2807  0.0088
 2957W        W18766   2.465  18.398  10.264  0.1455  0.3799 -0.0817
 2958W        W18767   6.599   1.144  12.586  0.0745 -0.2133  0.0640
 2959W        W18768  16.186   3.978  14.154 -0.1422 -0.0026 -0.0919
 2960W        W18769  13.654   4.793  14.264 -0.1456  0.0766 -0.0110
 2961W        W18770  13.781   2.716  13.708  0.2188  0.1821 -0.0114
 2962W        W18771  10.408   2.140  14.618 -0.0628 -0.0757 -0.0572
 2963W        W18772   2.087   7.466   1.260  0.0903 -0.1531 -0.2454
 2964W        W18773   3.566   9.759  11.513 -0.1023 -0.2396 -0.1474
 2965W        W18774  11.326   2.034  13.142 -0.3045  0.0086 -0.0413
 2966W        W18775   7.572   3.507  10.588 -0.0504 -0.3336  0.3482
 2967W        W18776  10.291   2.833  12.698 -0.1835 -0.3012 -0.0428
 2968W        W18777  11.015  17.530  15.530  0.6059 -0.1007  0.0072
 2969W        W18778  10.655  13.774  13.220 -0.0940  0.1087  0.0703
 2970W        W18779   8.466  14.157  14.931 -0.1079 -0.0478  0.2613
 2971W        W18780  13.440   4.865   4.069 -0.2109 -0.0293 -0.2128
 2972W        W18781  11.753   7.242   0.748  0.0840 -0.2031  0.0042
 2973W        W18782  13.106  10.581  13.887  0.1669  0.0678 -0.2273
 2974W        W18783   3.938   6.288  14.743  0.5836 -0.2048 -0.0575
 2975W        W18784   8.105  16.243   2.016  0.0508  0.0431  0.3228
 2976W        W18785   9.417   6.391  15.592  0.1497 -0.0361 -0.1807
 2977W        W18786  13.691   1.798  11.281  0.0900  0.0071 -0.3893
 2978W        W18787  11.350   9.293   0.546  0.0626 -0.1190  0.0258
 2979W        W18788  10.331  10.313  10.907 -0.0458  0.2860 -0.0762
 2980W        W18789   3.650  15.285  13.384  0.3049 -0.3114 -0.0459
 2981W        W18790  16.350  16.936  11.512  0.1394 -0.0329  0.2748
 2982W        W18791   2.115   6.111   1.496 -0.0613 -0.1430  0.1187
 2983W        W18792   3.567  17.202  15.844 -0.3075  0.2427  0.0057
 2984W        W18793   2.372   7.846   4.800 -0.1604  0.1099  0.0316
 2985W        W18794  12.498   7.171   5.067 -0.2773 -0.1214  0.1917
 2986W        W18795   1.454  12.318   3.248 -0.1086 -0.2360  0.0386
 2987W        W18796   7.559  12.353  14.248 -0.0831  0.0033  0.0403
 2988W        W18797   3.526   9.948  14.174  0.0126 -0.1117 -0.1514
 2989W        W18798   3.433   3.873  14.143 -0.0824  0.1035  0.0068
 2990W        W18799   8.293   5.783   2.064  0.2169  0.1070 -0.0939
 2991W        W18800  11.380  17.756  11.961 -0.1831  0.1354  0.0997
 2992W        W18801  13.722   2.789   6.123  0.1107  0.2041  0.0397
 2993W        W18802   0.686   8.995   3.152  0.2528  0.2562 -0.2574
 2994W        W18803  11.472   5.866  15.271 -0.0778  0.1276  0.0565
 2995W        W18804   0.384   8.218  15.759  0.1137 -0.3239  0.2290
 2996W        W18805  16.133  14.177   3.890 -0.3176 -0.2680  0.0259
 2997W        W18806  18.412   1.126  15.451  0.1050 -0.2740 -0.1354
 2998W        W18807   2.871  13.190   5.523 -0.0276 -0.1349  0.1551
 2999W        W18808   3.511  16.761  11.987 -0.1692  0.0560  0.4858
 3000W        W18809  17.327   0.881   0.607 -0.1148 -0.2541 -0.1353
 3001W        W18810   3.531   5.517  12.014  0.1940  0.3679 -0.0591
 3002W        W18811  10.194   4.184  11.757 -0.2176  0.2009 -0.0752
 3003W        W18812   5.763   3.938  12.138 -0.0942  0.0380  0.1201
 3004W        W18813  16.765  16.183   0.254  0.1841 -0.2893  0.1116
 3005W        W18814   5.628   2.923  12.787  0.0337 -0.0468 -0.1821
 3006W        W18815   2.389  12.292   3.067  0.0765  0.3117 -0.1462
 3007W        W18816  11.505  11.543  15.229 -0.0636 -0.0740  0.0499
 3008W        W18817   0.810  10.159  12.092  0.0019  0.2655 -0.2245
 3009W        W18818  12.225  11.599  11.220 -0.0227 -0.0969 -0.0019
 3010W        W18819   5.651  13.630   2.114  0.0293  0.0881  0.0173
 3011W        W18820  17.075   9.268  12.655 -0.0710  0.1694 -0.1744
 3012W        W18821   1.404   3.522   3.859 -0.0119 -0.0112  0.0151
 3013W        W18822  16.779  14.895  15.540 -0.0795 -0.1371  0.0609
 3014W        W18823   4.704   6.126  13.137 -0.1508 -0.0273  0.2201
 3015W        W18824   3.808   9.490   5.625  0.0659 -0.2361  0.1060
 3016W        W18825   1.569   3.475  15.649  0.0688 -0.2722  0.2829
 3017W        W18826  16.006   1.348  14.064  0.1953  0.1015  0.2278
 3018W        W18827  18.067   9.392  12.089 -0.2590 -0.1826 -0.0895
 3019W        W18828   2.542  12.205  12.370  0.2046  0.2922  0.3639
 3020W        W18829   5.262   0.257   5.651 -0.1419 -0.0077  0.2193
 3021W        W18830   1.323  17.118  13.989 -0.3704  0.1897 -0.3051
 3022W        W18831  13.238   3.943   3.301 -0.0019  0.2879 -0.0325
 3023W        W18832  11.076  13.776  10.448 -0.4521 -0.0554  0.0131
 3024W        W18833   2.131   9.940   3.145 -0.1054 -0.0334 -0.0119
 3025W        W18834   2.538  14.558   1.383 -0.2137  0.1152  0.0750
 3026W        W18835   1.043  17.636  11.598 -0.1765 -0.3231  0.2215
 3027W        W18836   5.139  10.802   4.277  0.2390 -0.0052  0.2416
 3028W        W18837   6.929   2.646  15.421  0.0500  0.1720 -0.2116
 3029W        W18838   5.647   1.586   1.713  0.2222  0.2030 -0.2083
 3030W        W18839   9.932  16.529   4.445  0.0787 -0.2111 -0.0717
 3031W        W18840   8.315   6.818   1.561  0.1564  0.2320 -0.2531
 3032W        W18841   9.202  16.258  14.661  0.4384  0.2093  0.0028
 3033W        W18842   8.678   6.564  11.843 -0.0613 -0.2579 -0.0646
 3034W        W18843  11.034   7.361   4.826 -0.0541 -0.0643 -0.2489
 3035W        W18844   4.220  17.226   1.107 -0.0895 -0.1364 -0.0948
 3036W        W18845   1.903  15.070  11.094  0.3182 -0.0171  0.1705
 3037W        W18846  12.507  12.680   1.095  0.1838 -0.1489 -0.0371
 3038W        W18847  15.294   7.240   1.035 -0.2406 -0.1351 -0.0297
 3039W        W18848   2.623   0.963  13.078 -0.0644 -0.0035  0.0443
 3040W        W18849   0.414   3.496   4.582  0.1442  0.1743 -0.1457
 3041W        W18850  17.778   4.831  15.595 -0.2021  0.3090 -0.4186
 3042W        W18851  10.728   5.258  11.699 -0.3662 -0.2015  0.3485
 3043W        W18852  12.103  18.067   4.101  0.0155 -0.1412  0.1797
 3044W        W18853   4.392  11.012  11.294 -0.1008  0.0358 -0.0863
 3045W        W18854  17.402   5.702   2.091 -0.2329  0.1299  0.0667
 3046W        W18855   4.690   4.474   5.759  0.2714  0.2387 -0.2331
 3047W        W18856  10.043   5.160   1.416 -0.1139  0.2248 -0.0938
 3048W        W18857  14.292   1.040   4.776  0.0289  0.0557  0.3395
 3049W        W18858  13.212   5.308   0.427  0.3795  0.0837  0.0274
 3050W        W18859  14.199  10.314  14.610 -0.0274  0.0141  0.0041
 3051W        W18860  10.723  18.296   3.007 -0.0954  0.2894  0.0717
 3052W        W18861   6.499   5.639  15.780  0.1019  0.0881  0.2709
 3053W        W18862   0.592   7.053   1.368  0.1606  0.2211 -0.1286
 3054W        W18863   5.807  13.090   5.128  0.0708 -0.0330  0.4631
 3055W        W18864  18.326   9.089   0.188  0.1805  0.2133  0.3678
 3056W        W18865   7.098  11.068  10.114 -0.1426  0.0336  0.3263
 3057W        W18866  17.518   9.410   1.278  0.0108  0.1994 -0.2827
 3058W        W18867  13.189   0.192  14.906 -0.4439  0.0707 -0.1289
 3059W        W18868   2.865   1.725  14.404 -0.0398  0.0358  0.1811
 3060W        W18869   0.953   1.711   1.300  0.0438  0.1608 -0.0234
 3061W        W18870   2.770   3.202   1.928  0.0239  0.0510  0.1947
 3062W        W18871  17.133   5.143  10.652  0.0772  0.0292  0.1104
 3063W        W18872  14.360  12.851  11.964 -0.0417  0.1723 -0.0214
 3064W        W18873   2.913  15.027  11.623 -0.1405  0.0293 -0.3263
 3065W        W18874  17.684   0.279   3.864  0.0121 -0.2560  0.4003
 3066W        W18875  12.494   2.463   3.990  0.2421 -0.0703  0.0274
 3067W        W18876  14.053   5.155   5.229  0.0409 -0.2759  0.0340
 3068W        W18877  17.017   5.007  11.737 -0.2991  0.1869  0.0588
 3069W        W18878  11.958  10.215  14.892 -0.0279  0.3447 -0.0133
 3070W        W18879  15.377  14.296   1.312  0.2155  0.0260  0.2362
 3071W        W18880   8.457   7.081   0.237  0.1718  0.3271 -0.2422
 3072W        W18881  17.245   0.221  15.401 -0.1371  0.1291 -0.2253
 3073W        W18882  17.109  16.295   2.664  0.0896  0.1839 -0.1088
 3074W        W18883   0.600  14.271   3.043 -0.1556  0.1121 -0.0750
 3075W        W18884  14.568  16.155   2.885  0.3056  0.1039  0.1943
 3076W        W18885   1.813   9.698  13.879 -0.1097 -0.4090  0.4085
 3077W        W18886   6.071  10.134  15.837  0.0651  0.1198  0.1325
 3078W        W18887  15.149   7.464  12.781  0.0392  0.0631  0.0892
 3079W        W18888  10.688  15.650   5.184 -0.2289  0.1092  0.0233
 3080W        W18889  11.223  10.029   1.955 -0.0263  0.1217  0.0464
 3081W        W18890  11.031  16.427   3.061  0.0080  0.0619  0.0786
 3082W        W18891  16.802   5.633   4.744 -0.1842 -0.2706 -0.2366
 3083W        W18892  16.844  17.236  15.246 -0.0636  0.1342 -0.0115
 3084W        W18893   4.384   3.107   2.007  0.2395 -0.1728  0.0155
 3085W        W18894  10.339   1.051   0.198  0.0655  0.1158 -0.1904
 3086W        W18895   3.649   2.465  10.849  0.1214 -0.0601 -0.2799
 3087W        W18896   0.452   8.371   5.853  0.1520  0.1425 -0.0251
 3088W        W18897  16.639  10.257  15.035  0.0501 -0.1090 -0.1257
 3089W        W18898   1.811  13.413  12.102  0.1173  0.0880 -0.1200
 3090W        W18899   9.008  10.208  14.264  0.0467  0.0814 -0.0094
 3091W        W18900  15.079  17.130  15.563 -0.0460  0.0821 -0.0450
 3092W        W18901   2.799   5.202  14.802 -0.1687  0.0851 -0.1045
 3093W        W18902  15.768  16.871   3.034  0.0180 -0.3500  0.0541
 3094W        W18903   2.424  16.847   2.615 -0.0686 -0.2315 -0.2530
 3095W        W18904  14.345  11.129   0.872  0.1685  0.0492  0.1048
 3096W        W18905  11.393  10.641  11.811 -0.4091  0.2281 -0.0024
 3097W        W18906   9.598  10.863  13.258  0.1945 -0.1945  0.1810
 3098W        W18907   3.339   1.651  12.841 -0.2162 -0.1367 -0.0604
 3099W        W18908   8.051  13.472  13.599 -0.1089 -0.0977  0.0388
 3100W        W18909   0.480  11.010   4.396  0.1163 -0.0158  0.0466
 3101W        W18910   4.565   6.843   5.526  0.0440 -0.4435  0.1401
 3102W        W18911  15.562   7.686   4.067  0.2947 -0.1775 -0.1822
 3103W        W18912  11.577   8.887   0.829  0.0175  0.0258  0.1488
 3104W        W18913   9.067  10.610   0.283 -0.0868  0.0041  0.1579
 3105W        W18914   5.097  15.488   4.944 -0.0960  0.1851  0.3492
 3106W        W18915   3.090   0.386   4.500  0.0355 -0.0322  0.1139
 3107W        W18916   7.683   8.141   1.610 -0.2429 -0.0809  0.0168
 3108W        W18917  11.626   2.400  12.874 -0.0412  0.5659 -0.1218
 3109W        W18918  16.915   7.216  15.287 -0.2408 -0.0484  0.1237
 3110W        W18919   3.625  10.502  11.209  0.1700  0.0995 -0.0676
 3111W        W18920   7.420  10.404   3.334  0.0365  0.0708 -0.0032
 3112W        W18921  14.497  13.048   2.873  0.0964 -0.2341 -0.0091
 3113W        W18922  14.242   5.286  14.898 -0.2036 -0.3125  0.2969
 3114W        W18923   9.007   0.289   1.117  0.0195  0.0767 -0.1752
 3115W        W18924  15.812  15.286  12.131  0.1089  0.4053  0.1445
 3116W        W18925   6.318  10.098   5.279  0.0066  0.2300  0.2617
 3117W        W18926   3.526   2.599   0.597 -0.1434  0.4534 -0.1090
 3118W        W18927   8.023   3.640  15.337 -0.1394  0.1269 -0.1881
 3119W        W18928  10.121   0.625   0.552 -0.1021 -0.0104 -0.0735
 3120W        W18929   7.623   0.227  13.869  0.2551  0.0548 -0.1724
 3121W        W18930   9.038  10.788   2.433 -0.1941  0.1340 -0.0126
 3122W        W18931   6.994  10.809   0.784 -0.0947  0.2049 -0.1479
 3123W        W18932   5.729  10.238   3.672  0.2830 -0.0189 -0.2680
 3124W        W18933  13.322   1.127  10.881 -0.1968 -0.1011  0.0606
 3125W        W18934  13.804  14.810   3.995  0.2341 -0.0770 -0.0108
 3126W        W18935   0.275   5.825  15.317 -0.0745 -0.0757  0.0314
 3127W        W18936  14.718  18.011  10.371  0.3683 -0.0580 -0.0203
 3128W        W18937  11.720  16.985  14.559  0.1777 -0.1161  0.2688
 3129W        W18938  17.532  13.224  11.682 -0.0568  0.0964 -0.0975
 3130W        W18939   9.903  16.797  13.213  0.3224 -0.2651  0.2184
 3131W        W18940   9.948   1.949   1.813  0.0437 -0.0746  0.1639
 3132W        W18941   0.848  11.913  13.769  0.1679  0.2052  0.1799
 3133W        W18942   7.024   0.126   4.682  0.1297 -0.1129  0.1737
 3134W        W18943   9.566   6.490   3.582 -0.1429 -0.0904  0.1974
 3135W        W18944  17.011  14.221   1.537 -0.1320 -0.1549  0.3891
 3136W        W18945   0.682  10.685   1.363  0.5246 -0.0768 -0.0361
 3137W        W18946   9.380   0.366   0.484 -0.1191  0.1903  0.0777
 3138W        W18947   5.385  16.895   5.133  0.2869  0.0194  0.0604
 3139W        W18948  10.530   7.470   4.797 -0.0402  0.0064 -0.1142
 3140W        W18949  15.618  11.708   0.509  0.0014 -0.0553 -0.0099
 3141W        W18950   6.754   8.957   0.157 -0.4466  0.0945  0.0705
 3142W        W18951   4.388  10.273  11.237  0.0212 -0.0424  0.1364
 3143W        W18952  12.218   7.804  13.791  0.3659  0.0952  0.0021
 3144W        W18953  15.724   3.165  14.857 -0.0474  0.2489 -0.0256
 3145W        W18954   9.728   8.074  15.758 -0.1128  0.1623  0.1454
 3146W        W18955  17.807  16.522   1.659 -0.0084  0.0671  0.2378
 3147W        W18956  15.577   1.404   0.548  0.3631  0.2323  0.1428
 3148W        W18957   0.526   3.953   0.299 -0.0492 -0.1257  0.0934
 3149W        W18958   9.101   8.315  11.062  0.0152 -0.1713 -0.3074
 3150W        W18959  17.585  11.241  14.077  0.1079  0.2344 -0.0325
 3151W        W18960   9.109  12.209  14.234 -0.1474  0.1245 -0.0595
 3152W        W18961   6.098  11.134   3.539 -0.1889  0.1418 -0.0299
 3153W        W18962   8.197   6.404  10.799 -0.0992 -0.7206  0.2822
 3154W        W18963   3.241   8.109  14.025  0.2796 -0.0297  0.0721
 3155W        W18964   6.355   2.703  12.374  0.0257  0.1214  0.0637
 3156W        W18965   7.390   4.494  13.295  0.1285 -0.1253  0.1095
 3157W        W18966   0.585  10.007   4.190 -0.0052  0.0463  0.1314
 3158W        W18967   1.816   3.014   1.487  0.0618 -0.1027 -0.4809
 3159W        W18968   3.009   6.498   1.244  0.4880 -0.1686 -0.0149
 3160W        W18969  16.073  13.718  13.802 -0.0461  0.0796 -0.4577
 3161W        W18970  15.371  17.168   3.935  0.0844  0.5561  0.0395
 3162W        W18971  10.987  12.880   4.682 -0.2115  0.0726 -0.0781
 3163W        W18972  11.343  16.104   4.812 -0.0465  0.0721  0.0365
 3164W        W18973   6.506   0.496   3.033 -0.0856 -0.2380  0.1444
 3165W        W18974  17.793  14.639   3.477 -0.0510 -0.1314 -0.0634
 3166W        W18975   1.682   2.559   2.053  0.2750 -0.0456 -0.2819
 3167W        W18976   1.756  13.816  13.228 -0.0311  0.0037 -0.1976
 3168W        W18977  15.613   8.836  15.087 -0.0781  0.0092  0.0189
 3169W        W18978  15.729  10.262   1.790  0.3802 -0.0786  0.0848
 3170W        W18979   1.117  10.532   1.235 -0.1271 -0.2926 -0.2612
 3171W        W18980   1.322   4.566  10.688  0.2397 -0.1048 -0.1202
 3172W        W18981   2.018  15.693   1.687  0.0298 -0.0916  0.1102
 3173W        W18982   0.929  15.934   5.061  0.1197 -0.1525 -0.0259
 3174W        W18983  15.649   9.757   0.728 -0.1370  0.0926 -0.2684
 3175W        W18984   8.948   8.541   1.375 -0.0203 -0.1887  0.0111
 3176W        W18985   5.795   4.893  11.639 -0.0660  0.0257  0.1015
 3177W        W18986   9.348   3.683   5.862  0.3135 -0.2424 -0.1302
 3178W        W18987  17.956   8.804  11.009  0.2100  0.1438  0.5214
 3179W        W18988   4.041   7.662  14.727 -0.2954  0.1423  0.1979
 3180W        W18989  14.089   9.672  10.816  0.4087 -0.0983 -0.0431
 3181W        W18990  16.811  16.290  14.128  0.0905  0.1515 -0.0223
 3182W        W18991   8.015   9.373   3.673 -0.1916  0.0461 -0.3245
 3183W        W18992  11.630   6.897   0.430 -0.2934 -0.0139  0.3735
 3184W        W18993  13.903   8.330   3.850  0.0298  0.4805 -0.1525
 3185W        W18994   0.165   2.640  15.052  0.0887  0.2847 -0.1295
 3186W        W18995  17.723  15.605  12.860  0.1329 -0.0331  0.3014
 3187W        W18996  18.461   9.633  11.467 -0.1284 -0.0222  0.4477
 3188W        W18997   6.047  15.179  12.495  0.2440 -0.0606  0.0277
 3189W        W18998   8.726   9.398  11.856 -0.1132 -0.2471  0.1746
 3190W        W18999  11.315   9.109   2.233 -0.0826  0.1243  0.0838
 3191W        W19000  13.980  10.839  13.425 -0.1733  0.1935 -0.0529
 3192W        W19001   4.811   6.308   4.770  0.1494 -0.0293  0.1174
 3193W        W19002   0.441  10.691   4.901 -0.3389 -0.0917 -0.2074
 3194W        W19003  11.483   2.840  11.936  0.3061 -0.1089 -0.1035
 3195W        W19004   5.308  16.543  11.377  0.3144  0.1375 -0.1514
 3196W        W19005  10.268   2.057   3.522  0.2401  0.1508 -0.2593
 3197W        W19006   9.698  18.233  13.283 -0.1363  0.0542  0.4582
 3198W        W19007   8.111   6.925   1.142 -0.1064  0.1122  0.0485
 3199W        W19008  18.215  14.916   2.653  0.1386 -0.2354  0.0988
 3200W        W19009  12.526  10.387   2.592  0.1536  0.1419  0.0539
 3201W        W19010  17.708  11.407  12.622  0.2524  0.2439 -0.0873
 3202W        W19011  14.957   9.599   1.967 -0.1288  0.0973  0.0565
 3203W        W19012  10.929   6.454  14.624 -0.0494  0.1247 -0.5700
 3204W        W19013   6.257   4.196   1.261  0.1555 -0.0146 -0.1142
 3205W        W19014  10.313  15.937  15.514 -0.1520 -0.4385 -0.1999
 3206W        W19015   6.142   8.377  14.550 -0.0362  0.0345  0.2679
 3207W        W19016  11.453   2.258   1.246 -0.1054 -0.1102  0.1513
 3208W        W19017  17.708   4.740   3.195  0.2279  0.0630  0.1451
 3209W        W19018   6.394   5.740  11.478  0.2889 -0.0233  0.0468
 3210W        W19019   5.021   2.111  15.831  0.0835  0.1278  0.0094
 3211W        W19020  14.022  15.463  13.584 -0.1248 -0.1729  0.2093
 3212W        W19021  15.138   7.448   1.726 -0.0252 -0.0411 -0.0480
 3213W        W19022  14.151  14.049   2.087 -0.2952  0.0370  0.0224
 3214W        W19023   2.258   3.685  11.916  0.0194  0.0838 -0.1250
 3215W        W19024  17.709   9.844   3.642 -0.1763  0.0071 -0.1349
 3216W        W19025   4.477   5.997   0.602 -0.1051  0.1759  0.0459
 3217W        W19026  16.642   9.575   5.907  0.0989 -0.0214 -0.0855
 3218W        W19027  15.198   5.903   1.730  0.0720  0.2389  0.1054
 3219W        W19028   2.314  18.407  11.534  0.2838  0.1983  0.0887
 3220W        W19029   0.446   0.036   1.158  0.1294 -0.0678 -0.0416
 3221W        W19030  17.756  16.709   4.492 -0.0645  0.0565  0.1018
 3222W        W19031   5.066   6.117  14.040  0.0557  0.0105  0.2315
 3223W        W19032   6.312   0.982   4.358 -0.5377 -0.1973  0.2403
 3224W        W19033   5.422  11.915  13.488 -0.1996  0.0421  0.0289
 3225W        W19034   1.508   1.874   5.461 -0.2868  0.0219  0.0279
 3226W        W19035   9.283   7.173   2.614 -0.1240 -0.1443 -0.1019
 3227W        W19036   1.414   4.536   3.131  0.0756 -0.1850 -0.1107
 3228W        W19037  18.045   6.368   3.405 -0.1549 -0.1537  0.1322
 3229W        W19038  10.446   0.395   3.256  0.0896  0.1358  0.0990
 3230W        W19039   3.471  12.996  12.690 -0.0986 -0.0891  0.1343
 3231W        W19040   6.771   1.691  14.476 -0.0612  0.1182  0.0057
 3232W        W19041   9.391  15.783   2.115  0.0888 -0.1378  0.1348
 3233W        W19042  16.458   3.435  11.037  0.0434  0.1484 -0.2254
 3234W        W19043  10.939   9.718  13.694 -0.0505  0.1951  0.1534
 3235W        W19044  16.608  16.958   1.989 -0.0233  0.2721  0.0361
 3236W        W19045  14.485  14.101  11.392  0.1138  0.2170 -0.0007
 3237W        W19046  12.141  17.153  14.773 -0.0856  0.0689 -0.0735
 3238W        W19047  11.294   7.051  12.928  0.1908 -0.0328 -0.2369
 3239W        W19048  15.739  11.947  13.349 -0.0904 -0.1841 -0.0683
 3240W        W19049  15.825   9.545  12.788  0.2251  0.0528 -0.0140
 3241W        W19050   5.733   5.776   0.299  0.4210  0.1754 -0.2512
 3242W        W19051   4.593  11.717  15.474  0.1465  0.1272  0.2524
 3243W        W19052  14.217   3.881   3.710  0.1305 -0.1519 -0.0060
 3244W        W19053  13.879   9.558  11.886  0.1628 -0.1476  0.3330
 3245W        W19054   6.068   4.603  10.102 -0.0179  0.1424 -0.0926
 3246W        W19055   9.530   0.841  12.952 -0.0291  0.1140  0.4542
 3247W        W19056  12.119   2.791   2.658 -0.1001  0.1316 -0.1768
 3248W        W19057   4.271   2.933   0.058 -0.2291 -0.3046 -0.3122
 3249W        W19058  13.088  10.655   3.843 -0.1194 -0.3310  0.0863
 3250W        W19059  17.494   5.649  13.082 -0.1748  0.2128 -0.0346
 3251W        W19060   6.371   6.322   5.240 -0.0839 -0.2930  0.0512
 3252W        W19061  10.924   6.279  11.313  0.0532 -0.2619  0.1061
 3253W        W19062  17.851   1.053  14.681 -0.2290  0.2218  0.0704
 3254W        W19063   6.081  11.086   4.978 -0.1098  0.2467  0.1207
 3255W        W19064   8.116  10.282  14.733  0.1507  0.2465  0.3806
 3256W        W19065   9.812  12.823  12.317 -0.0398  0.0422  0.1094
 3257W        W19066   0.644   4.083  10.587 -0.0772  0.3743  0.1859
 3258W        W19067   5.470  12.829  13.791 -0.2799  0.2571  0.0256
 3259W        W19068   2.718  16.910   3.861  0.0623  0.1537  0.2208
 3260W        W19069  10.943   1.528  13.751 -0.0094  0.0077 -0.0335
 3261W        W19070   0.725  14.806   3.114  0.2448 -0.3115  0.0834
 3262W        W19071   6.273   7.121   4.936 -0.0274  0.1591 -0.2407
 3263W        W19072  17.694  13.131  13.217 -0.2070  0.2830  0.3077
 3264W        W19073  13.232  18.222   5.655  0.2620 -0.0890  0.1298
 3265W        W19074  14.792   4.165  13.650  0.0475 -0.1836 -0.0230
 3266W        W19075   1.789  16.422  13.160  0.1707  0.0146 -0.0588
 3267W        W19076   5.072   7.678  14.086 -0.0354  0.0452 -0.0359
 3268W        W19077   3.968  13.112   5.089 -0.1907  0.2924 -0.1286
 3269W        W19078   4.478  14.731   2.014  0.2813  0.0945  0.1150
 3270W        W19079   1.826  12.272  14.381 -0.1260  0.3495  0.0451
 3271W        W19080  10.149  11.453   4.989  0.7118 -0.1351 -0.3938
 3272W        W19081   0.786   2.023  11.339 -0.0461 -0.1671 -0.3517
 3273W        W19082  11.021  14.839  14.183  0.0558 -0.0833  0.0208
 3274W        W19083   6.383   1.212   0.571  0.0493 -0.0175  0.1629
 3275W        W19084   0.020  14.833  13.092  0.1359  0.1290 -0.1027
 3276W        W19085  10.298   4.524  11.359  0.1236 -0.3488  0.1047
 3277W        W19086  13.133  17.274   3.348 -0.1027  0.1807  0.0739
 3278W        W19087  13.143   7.168  11.004 -0.0370  0.4822 -0.1447
 3279W        W19088   8.315  16.247  12.872  0.3006  0.1201 -0.2081
 3280W        W19089   9.005   1.072  11.622 -0.0185 -0.2690 -0.3099
 3281W        W19090  17.540  15.529  13.988 -0.2210  0.0121 -0.1562
 3282W        W19091   3.922   5.710  11.797  0.0830  0.1198  0.1182
 3283W        W19092  15.276   6.895  10.987  0.0019  0.3031  0.1915
 3284W        W19093  10.460  17.377  13.246  0.1922 -0.3971 -0.2389
 3285W        W19094  10.361  16.719  11.075  0.0518 -0.0487 -0.0274
 3286W        W19095  12.327   7.280   0.922  0.1764  0.1075  0.0857
 3287W        W19096   4.947  13.623   1.391 -0.0024 -0.0226 -0.2094
 3288W        W19097   7.086   2.541   2.580 -0.1180  0.2296  0.0206
 3289W        W19098  13.805   1.206   4.599  0.1812  0.0095 -0.0037
 3290W        W19099   8.139   5.048  13.667  0.3511  0.0501 -0.4043
 3291W        W19100   4.858   7.900  14.489  0.0710 -0.1594  0.1093
 3292W        W19101   4.357   6.364   3.836 -0.0308 -0.2221  0.1799
 3293W        W19102  13.719   4.160   2.369 -0.3997  0.2637  0.2932
 3294W        W19103  13.663  16.079  11.400 -0.2929 -0.2123  0.0236
 3295W        W19104   1.631  15.456   0.409 -0.1956 -0.2067 -0.0468
 3296W        W19105   7.651   4.563   0.235  0.2977  0.2321  0.0454
 3297W        W19106   7.977  14.667   4.747  0.1205  0.1635  0.0002
 3298W        W19107   3.898   5.251   5.073  0.4291 -0.1321 -0.0515
 3299W        W19108  16.683   5.543  14.669 -0.1330  0.2848 -0.2955
 3300W        W19109   9.458  15.129  12.209  0.0118  0.0456 -0.2438
 3301W        W19110   5.405   7.672   1.843 -0.2352  0.1192  0.2806
 3302W        W19111  12.458  13.517  14.545  0.2310  0.2601  0.0794
 3303W        W19112   3.703  16.709   3.966  0.0763  0.3596 -0.0206
 3304W        W19113   9.609  16.425   1.486 -0.1629  0.0314 -0.1692
 3305W        W19114   2.519  18.088   1.659  0.0505  0.0589  0.0662
 3306W        W19115   3.257   1.957  15.769  0.0174 -0.2946  0.2703
 3307W        W19116  10.390   3.204  11.438 -0.2402  0.1495 -0.0100
 3308W        W19117  17.473   1.978   2.501 -0.0106 -0.0558  0.2294
 3309W        W19118   1.002   3.780   3.604 -0.1989  0.2256  0.0291
 3310W        W19119  17.562  11.728  12.214 -0.0459  0.0836  0.0175
 3311W        W19120   7.822   7.707  10.578 -0.0127 -0.0982  0.1454
 3312W        W19121  15.501   0.652   3.610 -0.0578  0.1856  0.2381
 3313W        W19122  11.552  12.150  11.357  0.1935 -0.1640 -0.3794
 3314W        W19123  18.272   3.526   2.442 -0.1565 -0.0865  0.1999
 3315W        W19124  11.002  16.697   2.561  0.1910  0.0305 -0.2400
 3316W        W19125  15.699  14.054  14.136  0.3737 -0.0351  0.4470
 3317W        W19126  17.308  13.329  15.660  0.2058 -0.0512  0.2337
 3318W        W19127   2.322   3.637   4.055  0.0419  0.1102 -0.0197
 3319W        W19128  11.810   0.708  12.863 -0.0599  0.0434 -0.1114
 3320W        W19129   5.938   9.102   1.560  0.0503 -0.2950 -0.1653
 3321W        W19130  12.620  12.698   2.086 -0.1086  0.0693 -0.2068
 3322W        W19131   4.998   4.556   4.410 -0.0503  0.3409 -0.1502
 3323W        W19132  12.700  13.162  14.813  0.1579 -0.2038  0.1661
 3324W        W19133   5.068  16.057  15.084  0.0794  0.2462  0.0742
 3325W        W19134   9.208  11.180  13.101 -0.2246 -0.0184  0.1782
 3326W        W19135   2.003   8.324  11.053 -0.0466  0.0932 -0.2078
 3327W        W19136  10.143  11.458  15.609 -0.3070 -0.0267  0.4984
 3328W        W19137  10.463  17.138  14.043  0.1765 -0.2446  0.1441
 3329W        W19138   3.318  17.170   4.989 -0.2150  0.1688  0.1433
 3330W        W19139   1.512  15.222   2.706 -0.0496  0.1053 -0.0291
 3331W        W19140   4.707  16.469   1.411  0.1491 -0.0940  0.2060
 3332W        W19141  12.319   5.356   5.160 -0.0421 -0.0041  0.2334
 3333W        W19142   1.722   8.481   0.036  0.2283  0.1399 -0.0130
 3334W        W19143   7.525   3.635   1.968 -0.0620  0.0728 -0.0344
 3335W        W19144   9.166   7.576  14.381  0.3473 -0.1467  0.1141
 3336W        W19145  14.337   9.412  11.569  0.0291 -0.0276 -0.1511
 3337W        W19146   6.997  13.521   5.224 -0.0912  0.0519 -0.1380
 3338W        W19147   8.740   5.803  15.221  0.0300  0.0947 -0.0713
 3339W        W19148  18.227  10.631  14.042  0.1589 -0.0392 -0.1658
 3340W        W19149   3.572   6.584  11.828  0.0434 -0.0873 -0.1754
 3341W        W19150  16.156  10.229  15.095  0.1267  0.1130 -0.0339
 3342W        W19151   6.460  10.955   1.423  0.0560 -0.4033  0.1625
 3343W        W19152  10.263  13.025   2.263 -0.1064  0.0158 -0.0448
 3344W        W19153  16.526   1.382  14.994  0.0225 -0.0641 -0.1623
 3345W        W19154  14.035   3.534  11.097 -0.0339  0.1831  0.1073
 3346W        W19155   5.162  12.365   0.307 -0.3445 -0.1790  0.2913
 3347W        W19156   7.862  10.012   0.738  0.2160  0.0457  0.1356
 3348W        W19157   6.073   9.871   3.596  0.0340 -0.0882  0.3481
 3349W        W19158   5.720  11.039  13.889 -0.2414  0.0390  0.2467
 3350W        W19159   5.263  11.309   3.002 -0.2700  0.0453  0.0577
 3351W        W19160   7.302   8.870  12.503 -0.0880  0.0587  0.1209
 3352W        W19161   1.619   3.738  12.820 -0.0901 -0.1368  0.1840
 3353W        W19162  10.925  11.293   0.959 -0.3584 -0.1079  0.0851
 3354W        W19163   8.894  17.488   1.705  0.3846 -0.1746 -0.0601
 3355W        W19164  16.777   0.229  11.086 -0.3768 -0.1727  0.0536
 3356W        W19165   4.797   0.046   3.593  0.1722  0.1179  0.0288
 3357W        W19166   3.664  12.514  12.693 -0.1307 -0.0578 -0.0983
 3358W        W19167   7.863   9.923  15.488  0.2042  0.0407 -0.2459
 3359W        W19168  11.844   8.572  12.653 -0.0055 -0.1645  0.2830
 3360W        W19169  14.130  10.401   2.907  0.0283 -0.1801  0.2325
 3361W        W19170  10.272   1.045   2.617 -0.1025  0.0831  0.0217
 3362W        W19171   4.310   0.188   4.526 -0.0305  0.3301  0.1659
 3363W        W19172  11.408  18.222   1.936  0.3025  0.1045 -0.1755
 3364W        W19173  14.331  14.457  12.883  0.4229  0.3442 -0.0422
 3365W        W19174  11.964  17.929   1.849 -0.0590 -0.1843  0.0048
 3366W        W19175   2.275  10.154   0.671 -0.0533 -0.2876 -0.0568
 3367W        W19176   7.384   8.125  14.423  0.1382  0.1721  0.1293
 3368W        W19177  10.147  15.056   2.044  0.0153 -0.1507 -0.1016
 3369W        W19178   8.698  14.124  13.748  0.1806  0.0176  0.0534
 3370W        W19179   7.823   1.771   2.940  0.0431  0.0303 -0.1211
 3371W        W19180  17.079   3.872  13.162  0.0126 -0.1674 -0.2887
 3372W        W19181   0.375  10.245  14.545 -0.1904  0.1332 -0.1852
 3373W        W19182   7.474   1.285   2.576  0.2733 -0.0732  0.0459
 3374W        W19183   5.419  16.731   2.328  0.1187  0.1013 -0.0651
 3375W        W19184   8.928   5.123  14.166  0.1182  0.4761  0.0476
 3376W        W19185   5.295  13.099  15.410  0.1586  0.0856 -0.5411
 3377W        W19186   2.496   9.381   2.088 -0.0077 -0.0588  0.0805
 3378W        W19187  10.741   7.733   3.427  0.0602 -0.1555  0.1874
 3379W        W19188   5.954   0.803  11.413 -0.1485  0.0570  0.2118
 3380W        W19189   8.411   3.055  14.844 -0.6084  0.3897  0.1990
 3381W        W19190  14.652   1.148  13.824 -0.1037  0.0826  0.2886
 3382W        W19191  18.443  15.305  13.239  0.0170  0.0206 -0.1336
 3383W        W19192  10.650   5.089   2.401  0.2773 -0.2635  0.0080
 3384W        W19193  18.277   9.344   1.964  0.2890  0.0899  0.2465
 3385W        W19194  16.196  15.639  15.679  0.0762 -0.0796 -0.0862
 3386W        W19195  11.852  12.180   2.089 -0.0588  0.0703  0.0071
 3387W        W19196  15.476  17.000   2.532  0.3199  0.2360 -0.3304
 3388W        W19197  14.950  17.900  11.853 -0.0903  0.1611 -0.1791
 3389W        W19198  15.521  18.211  14.428  0.4203  0.0002 -0.2089
 3390W        W19199   2.462   2.263   0.527  0.0584 -0.1011 -0.3664
 3391W        W19200   4.073   4.296  10.868  0.0986  0.2397 -0.1737
 3392W        W19201   0.430  11.357  10.415 -0.1413 -0.0841  0.2935
 3393W        W19202   7.841   3.958  11.565  0.0416  0.2833  0.0848
 3394W        W19203   2.658   4.854   4.483  0.3265  0.3721  0.1809
 3395W        W19204  16.534   8.378   0.088 -0.2233  0.0040  0.2697
 3396W        W19205  13.532   3.591  12.787  0.0876  0.0988  0.4837
 3397W        W19206  10.261  17.343  11.001 -0.0186 -0.0031 -0.2925
 3398W        W19207  14.843  10.985  11.605  0.0623 -0.0190  0.1693
 3399W        W19208   6.556  16.743  15.070 -0.0119  0.3186  0.0896
 3400W        W19209   3.063   9.234  11.308  0.1169  0.2544 -0.0027
 3401W        W19210  17.678   5.336  15.283 -0.4117  0.2997 -0.1398
 3402W        W19211   8.269   2.279   4.592  0.1567 -0.0818 -0.1394
 3403W        W19212   5.256   4.193  10.091 -0.0811 -0.1811  0.0235
 3404W        W19213  16.412  11.363   4.186 -0.2351  0.0858 -0.1504
 3405W        W19214   6.224  10.723  14.366 -0.0216  0.1449  0.1108
 3406W        W19215  12.459   8.946  14.996 -0.0532 -0.1892 -0.3786
 3407W        W19216   0.739  13.124  14.395 -0.0208 -0.1971  0.0528
 3408W        W19217   2.296   4.936  12.088  0.0296  0.2659  0.1920
 3409W        W19218   5.200  17.029  15.273 -0.0070  0.1163  0.3013
 3410W        W19219   4.269  11.260  14.327 -0.1499 -0.1911 -0.1255
 3411W        W19220   9.634   1.429  12.101 -0.1089  0.1539  0.1237
 3412W        W19221  12.902   2.877  11.284  0.2619  0.0068  0.0320
 3413W        W19222   1.542   5.213  15.318  0.1143  0.1302  0.2175
 3414W        W19223  17.290  18.118  13.541  0.0282  0.2178 -0.1338
 3415W        W19224  14.556   7.264  14.149 -0.2124  0.2071 -0.2705
 3416W        W19225  17.019  14.878  10.486 -0.1076 -0.0234  0.0560
 3417W        W19226  15.761   8.683   2.841  0.0397  0.1971  0.0717
 3418W        W19227  15.301   1.406  15.347 -0.1651  0.1878  0.2150
 3419W        W19228  11.501  16.795   0.616 -0.2553  0.1169  0.1706
 3420W        W19229   2.964   3.590   2.181 -0.1314  0.0086  0.2293
 3421W        W19230   0.487  14.282  11.820 -0.0122  0.1431  0.1691
 3422W        W19231   3.091   2.932   1.636 -0.0466  0.0036  0.3324
 3423W        W19232   6.071   2.935   4.528 -0.0763  0.0071  0.0715
 3424W        W19233   0.852  14.591  10.256  0.0133  0.0889 -0.0471
 3425W        W19234   3.477   1.469   2.387 -0.2335 -0.1323  0.0970
 3426W        W19235   1.718  13.955   2.982  0.2927  0.0395 -0.0096
 3427W        W19236  10.502  16.591  12.383 -0.1636  0.0447 -0.2620
 3428W        W19237  13.003   0.316   1.567  0.0089  0.2647 -0.1151
 3429W        W19238   6.780  17.004  12.581 -0.1528  0.1385  0.3517
 3430W        W19239   4.501   3.906   3.066 -0.0016  0.0506 -0.4211
 3431W        W19240   4.849  13.615  10.128 -0.0131 -0.1946 -0.0629
 3432W        W19241  13.966  16.786   4.959  0.0084 -0.2055  0.1638
 3433W        W19242  13.452   3.892  14.063  0.2544  0.1322 -0.0033
 3434W        W19243   8.983   0.452  15.544 -0.1442 -0.2347  0.2174
 3435W        W19244   5.714   1.490  12.489  0.2121 -0.1886 -0.0981
 3436W        W19245   0.730  17.482  12.001  0.0226  0.1529  0.1865
 3437W        W19246  17.979   3.078   3.152  0.1514 -0.2797  0.1086
 3438W        W19247   1.863   6.900  15.244  0.0503 -0.0869 -0.1846
 3439W        W19248   5.536  13.223  13.435  0.1464 -0.0828  0.0845
 3440W        W19249   9.454  13.451   4.593  0.1271 -0.1300  0.3131
 3441W        W19250   2.399  15.834  13.409 -0.1986 -0.0583 -0.2352
 3442W        W19251  12.619  18.390   2.764  0.1129 -0.0215 -0.0447
 3443W        W19252   8.543  10.981   4.636  0.1365 -0.2107  0.1518
 3444W        W19253   7.304   3.360  13.794  0.0696 -0.0239  0.1069
 3445W        W19254   0.642   3.940   4.675 -0.1126  0.0303 -0.0639
 3446W        W19255   9.279  18.314  10.906  0.1254  0.0216 -0.0322
 3447W        W19256  10.851  17.025  11.739 -0.0967  0.2731 -0.3712
 3448W        W19257  17.707  11.002   0.449  0.0184  0.1574  0.1602
 3449W        W19258   7.907   3.324  13.625 -0.0928 -0.2272 -0.1831
 3450W        W19259   1.321   5.894   1.339  0.0762  0.2457 -0.2694
 3451W        W19260  14.723   7.070  15.181 -0.1167 -0.4243  0.2924
 3452W        W19261  17.052   4.635   0.335  0.0524 -0.1301  0.2233
 3453W        W19262   5.096   7.455  14.513 -0.0530  0.0865 -0.1227
 3454W        W19263  18.340   2.344   0.919 -0.0054  0.3540 -0.1711
 3455W        W19264   5.971   4.802  14.056 -0.0626  0.0277  0.1479
 3456W        W19265  15.961   3.464  10.730  0.0157 -0.1975  0.0595
 3457W        W19266   2.282   7.925   2.595  0.1788 -0.0336 -0.0744
 3458W        W19267  14.618  13.688  11.064  0.1710 -0.0145  0.0757
 3459W        W19268  11.240  12.815  15.507  0.1060 -0.3170  0.0045
 3460W        W19269  11.807   6.459   0.320  0.0330 -0.2934  0.3011
 3461W        W19270   9.651  13.007   3.788 -0.0474 -0.0957 -0.1327
 3462W        W19271  10.037  10.787  10.861  0.0788 -0.0654  0.0370
 3463W        W19272   9.676   3.466   1.625 -0.5102 -0.0077 -0.1815
 3464W        W19273   0.506   6.873   5.495 -0.1522 -0.2137 -0.2906
 3465W        W19274   0.989   0.329   1.492 -0.0816  0.0564  0.0267
 3466W        W19275   3.796   6.522   1.630  0.1928  0.0383 -0.0142
 3467W        W19276   4.130  14.948   5.328  0.1909  0.3340 -0.2798
 3468W        W19277   6.711   3.634   0.500 -0.0298 -0.4319  0.1117
 3469W        W19278   0.100   6.838   5.147  0.0811  0.1897 -0.3786
 3470W        W19279   4.643   9.416  10.896 -0.1584 -0.0875  0.2152
 3471W        W19280  12.961   1.776   0.661  0.0014  0.0654  0.1410
 3472W        W19281   0.173   5.663   2.650  0.0513  0.0484  0.1376
 3473W        W19282  10.675  14.297  12.347 -0.2382 -0.1106  0.0507
 3474W        W19283   1.080  16.624  14.656  0.0062  0.1593  0.1322
 3475W        W19284  15.022   5.240  15.007 -0.4130  0.3319  0.2005
 3476W        W19285  15.382  14.934  12.322 -0.2110 -0.1491  0.0842
 3477W        W19286   6.520  15.360  12.395  0.2172 -0.1294 -0.0406
 3478W        W19287  10.026   6.259   1.208  0.0196 -0.2788 -0.0912
 3479W        W19288  13.986   8.025  15.559  0.0320  0.1199  0.0983
 3480W        W19289  11.760  14.342  14.822 -0.2118  0.0842  0.1242
 3481W        W19290   4.375  16.371   9.863  0.1299  0.2609  0.0081
 3482W        W19291  10.158   1.877   0.539 -0.2676 -0.2107 -0.0354
 3483W        W19292   2.307  16.819  13.895 -0.0481  0.4789 -0.2258
 3484W        W19293  12.309   3.651  14.733  0.0689 -0.0156  0.3775
 3485W        W19294   8.194  17.831  12.023  0.0247 -0.1986  0.1172
 3486W        W19295   0.142  16.568  15.168 -0.1172  0.2183 -0.3266
 3487W        W19296   3.572   2.909   2.619 -0.2846  0.1849 -0.1046
 3488W        W19297   2.173  11.182   6.305  0.1636 -0.1761  0.0065
 3489W        W19298   6.490  14.071   0.761  0.1415  0.0869 -0.1505
 3490W        W19299  12.906  17.842  11.934  0.2191 -0.1794  0.1658
 3491W        W19300  10.696   1.768  14.493 -0.0617 -0.1231  0.3042
 3492W        W19301  15.387  15.799  11.780 -0.1691  0.1095 -0.0844
 3493W        W19302  13.785   9.591   2.583 -0.2407 -0.1271 -0.2926
 3494W        W19303   9.436  10.823   1.102 -0.0750 -0.0261  0.0611
 3495W        W19304   8.466  14.247   5.461 -0.2256 -0.1736 -0.0684
 3496W        W19305   4.805  11.198   1.543  0.1371 -0.0029  0.1690
 3497W        W19306  10.095   5.452   0.690 -0.2890  0.1460  0.1087
 3498W        W19307  16.677   2.197   4.205  0.1370  0.0446  0.1384
 3499W        W19308   2.515  17.211  10.856 -0.0778  0.0988 -0.1212
 3500W        W19309  16.744  10.819  11.181  0.0003 -0.1020  0.1208
 3501W        W19310  15.333  10.509   4.127  0.0412 -0.0936 -0.1466
 3502W        W19311   2.005   5.734   1.902  0.3862 -0.2750 -0.3255
 3503W        W19312   6.135   6.100  11.674  0.3199 -0.2989 -0.1821
 3504W        W19313   0.703   0.276  14.212  0.1610 -0.0189  0.0615
 3505W        W19314   6.853  10.722  14.905 -0.0671  0.2193  0.1624
 3506W        W19315  14.065   1.158  15.767  0.0818 -0.1539  0.0825
 3507W        W19316   2.188  13.032   3.680  0.2567 -0.0815 -0.1262
 3508W        W19317  17.579  13.591  13.298 -0.2080 -0.1186  0.0973
 3509W        W19318   9.311   9.049   0.530  0.0350  0.1018 -0.2038
 3510W        W19319   7.121   2.678  11.761  0.1890  0.0575 -0.2980
 3511W        W19320   2.815  14.484   2.134 -0.0775 -0.0077 -0.0480
 3512W        W19321   2.546   7.112   0.622  0.0718 -0.3163 -0.2442
 3513W        W19322   8.049  15.162   3.871  0.0993 -0.1650 -0.1697
 3514W        W19323  14.878  12.818  11.361 -0.2435 -0.1956 -0.4407
 3515W        W19324   2.602   6.790  12.130 -0.2622 -0.1563  0.0498
 3516W        W19325  15.766  12.224   0.743 -0.4212  0.4805 -0.1487
 3517W        W19326  10.715  17.841   3.282 -0.0863  0.2555  0.0321
 3518W        W19327   5.082   0.320  15.687 -0.0168 -0.1743 -0.0331
 3519W        W19328   8.021   0.571  14.715 -0.0433 -0.0622  0.0975
 3520W        W19329   9.688  17.588   5.502  0.0175  0.0718  0.1820
 3521W        W19330   6.977  11.343  13.860 -0.0263  0.0889 -0.1383
 3522W        W19331   7.842  13.594  12.821 -0.0204 -0.1366  0.0226
 3523W        W19332   7.837  16.773  14.474 -0.2549  0.0900  0.2177
 3524W        W19333   3.257  17.900  10.013 -0.0489  0.1494 -0.1805
 3525W        W19334  16.090   4.704  11.696  0.0856 -0.4427  0.2424
 3526W        W19335   4.081   3.238   4.292  0.0958 -0.0117 -0.2699
 3527W        W19336   5.578  10.463   0.174  0.5048 -0.0502 -0.3285
 3528W        W19337   7.340  14.119   3.418  0.0506  0.0362  0.2039
 3529W        W19338   8.100   8.350  12.963 -0.5555  0.0971  0.2250
 3530W        W19339   5.782  11.313   3.984 -0.0636  0.0376 -0.0082
 3531W        W19340   8.836  17.346   5.342 -0.0850 -0.0660 -0.0848
 3532W        W19341   9.688   9.340   5.565 -0.2588 -0.1175  0.0959
 3533W        W19342   1.893   4.294  11.134  0.0118  0.0147  0.0372
 3534W        W19343  16.830   0.946   3.035 -0.1245  0.1649 -0.1971
 3535W        W19344  15.129  12.325   3.864  0.0665  0.0437 -0.2975
 3536W        W19345   9.649  12.808   2.231  0.1459 -0.1201  0.2013
 3537W        W19346  12.309  15.536   3.946 -0.1927 -0.1355 -0.1401
 3538W        W19347  11.630   9.826  14.764 -0.1125  0.2010  0.2591
 3539W        W19348   3.099  17.986  15.045  0.0067  0.1532 -0.1243
 3540W        W19349  10.959  12.008  13.760 -0.0195  0.0457  0.3401
 3541W        W19350   3.706   4.158   3.441  0.1191  0.0731 -0.1041
 3542W        W19351  14.835  14.382  13.622  0.0937 -0.1413  0.3313
 3543W        W19352  13.253  14.121   1.129  0.1356 -0.1017  0.0580
 3544W        W19353   7.145   4.881   0.437  0.0805 -0.1142 -0.0567
 3545W        W19354   7.572   6.770   5.115  0.0692 -0.0659  0.1981
 3546W        W19355   3.896   2.591  10.395  0.0022  0.0660  0.1510
 3547W        W19356  13.043  18.136   0.178 -0.0969  0.0308 -0.3316
 3548W        W19357   8.340   9.175   0.320  0.0490  0.2441 -0.0697
 3549W        W19358   7.396  11.919   2.786  0.0332 -0.0056 -0.3232
 3550W        W19359  18.272  14.912  15.491 -0.3449  0.0017 -0.1989
 3551W        W19360   9.363   5.368   4.833 -0.0937 -0.0259  0.0956
 3552W        W19361  18.278   8.884  13.388  0.4504 -0.1254 -0.1780
 3553W        W19362   0.404  17.394  12.442 -0.0448  0.0868  0.4061
 3554W        W19363   8.643   9.050   1.896 -0.1298 -0.1400 -0.2356
 3555W        W19364  17.786  13.446   4.242 -0.1737 -0.0591 -0.1956
 3556W        W19365  12.641   7.527  14.004 -0.0777 -0.2316 -0.0793
 3557W        W19366   4.438   4.871  14.167  0.1575  0.1001 -0.2066
 3558W        W19367  11.712  11.911   5.177  0.2190  0.3179  0.2263
 3559W        W19368  12.655   4.785   0.066  0.0436  0.2426  0.2280
 3560W        W19369  13.664   2.847   1.343 -0.1655 -0.0323 -0.0009
 3561W        W19370   8.890  13.359   5.751 -0.0176 -0.1083 -0.1170
 3562W        W19371   0.601   3.123   2.536 -0.0048  0.0803  0.1643
 3563W        W19372   5.180   1.954   5.216 -0.3100 -0.3104 -0.1435
 3564W        W19373  17.585  18.434   2.330  0.0048  0.1462  0.0792
 3565W        W19374   3.457  14.057  12.543 -0.3038  0.2772  0.1226
 3566W        W19375   2.401  13.359   2.697 -0.1732  0.2034 -0.1152
 3567W        W19376  14.010   7.458   3.400  0.0389  0.1733 -0.4616
 3568W        W19377   5.773   0.053  14.008 -0.0458 -0.4185 -0.2178
 3569W        W19378  11.159   4.985   9.557 -0.2192  0.0661  0.2363
 3570W        W19379  11.096   6.360  11.779 -0.1206 -0.0784 -0.1226
 3571W        W19380   1.173  14.877  12.155  0.3409  0.1491 -0.2374
 3572W        W19381   3.068  16.782  15.147 -0.2532 -0.0956  0.1281
 3573W        W19382   5.775   4.211  11.199 -0.0585 -0.3308 -0.0185
 3574W        W19383   9.328   8.885  15.853  0.0255  0.0117 -0.2267
 3575W        W19384   2.536   6.604  13.151 -0.0660  0.0816 -0.0364
 3576W        W19385  17.294   6.002  14.089  0.3433 -0.2795  0.1058
 3577W        W19386   1.894   3.052   5.355 -0.0852  0.2174  0.1921
 3578W        W19387   9.501  10.780  11.265  0.1158  0.1581 -0.2513
 3579W        W19388  17.231  11.234   0.977 -0.1361 -0.1278  0.0668
 3580W        W19389   8.035   5.145   5.013  0.2533  0.1922  0.2079
 3581W        W19390  13.481   9.541   5.627  0.1640  0.2316  0.1363
 3582W        W19391  11.779   5.714  15.685 -0.0606 -0.1169  0.1563
 3583W        W19392   3.676  14.572   2.045  0.0144 -0.2001 -0.1339
 3584W        W19393   6.597   1.240  12.023 -0.0562 -0.0849 -0.1389
 3585W        W19394   2.360  15.668   0.838  0.2334 -0.1895  0.3709
 3586W        W19395   3.749   3.772   0.277  0.2908 -0.1439  0.2447
 3587W        W19396  12.181   6.908  13.456  0.0671 -0.2244 -0.1941
 3588W        W19397  16.054   0.614   5.646 -0.2947  0.0742 -0.1407
 3589W        W19398   1.228   1.357  15.796  0.1847  0.0168 -0.0948
 3590W        W19399   6.160   5.366  13.268 -0.0855 -0.0170  0.1826
 3591W        W19400   3.641   9.018   2.948 -0.0628 -0.0312 -0.2537
 3592W        W19401   9.865   9.585  11.582 -0.0185  0.1822  0.1408
 3593W        W19402   1.715   1.246   0.710  0.0835 -0.0340  0.0385
 3594W        W19403   6.361  10.369   2.013  0.2083  0.5587  0.2180
 3595W        W19404   7.184   5.733   4.412  0.0115  0.1723 -0.0356
 3596W        W19405  11.844  16.276   2.989 -0.0618 -0.1305  0.2154
 3597W        W19406  10.841  11.070  14.701 -0.1371  0.0502 -0.2214
 3598W        W19407   8.064  12.567  12.720 -0.2557  0.2098  0.0238
 3599W        W19408  15.433   3.345  15.260  0.1617  0.0051  0.2849
 3600W        W19409   4.877   5.813   4.890 -0.2011 -0.1757  0.0699
 3601W        W19410   8.450  17.674  12.461 -0.0837  0.0130  0.2623
 3602W        W19411   8.876   9.939   3.959  0.2601  0.2672 -0.1059
 3603W        W19412   1.483   1.547  11.607  0.2617  0.0542  0.0881
 3604W        W19413  10.357   8.535  12.731 -0.2347 -0.0094  0.0979
 3605W        W19414   3.688   8.833   0.853 -0.2451 -0.1944 -0.0515
 3606W        W19415  14.998   2.832  10.246  0.0322  0.2902 -0.0691
 3607W        W19416  15.110   6.402   1.612  0.4345 -0.0576  0.2895
 3608W        W19417  18.154   3.388  14.297 -0.1691  0.1231  0.0785
 3609W        W19418  12.084   8.204  12.888  0.1376  0.0662  0.0460
 3610W        W19419  15.348   9.709  12.677 -0.0828 -0.2758 -0.0095
 3611W        W19420   1.053  15.550  11.469  0.0795  0.0295 -0.1211
 3612W        W19421   1.429  14.972   1.797  0.0874 -0.1094  0.1806
 3613W        W19422  17.691   6.992  11.608 -0.0506 -0.3071  0.1112
 3614W        W19423  11.166   6.301  13.413 -0.1257  0.3137 -0.2184
 3615W        W19424  16.810   3.823   3.201  0.2208  0.0011 -0.3275
 3616W        W19425   5.062   3.758   4.970  0.0222  0.2137 -0.2483
 3617W        W19426  11.916  15.532  12.647  0.3449 -0.0034  0.1205
 3618W        W19427  10.493  10.579   5.994  0.2783  0.3678 -0.2351
 3619W        W19428  10.137  17.237  12.037  0.2032 -0.3227  0.0280
 3620W        W19429   0.897   1.721   4.641 -0.0414 -0.2712 -0.0822
 3621W        W19430  18.330  11.211  14.958  0.1479 -0.0036  0.2689
 3622W        W19431  16.668   7.587  13.768  0.0764  0.0485  0.1291
 3623W        W19432   0.949   8.812   4.557  0.1646 -0.1150  0.2868
 3624W        W19433   6.615   7.779  14.929 -0.1951 -0.2017  0.2387
 3625W        W19434   6.989   4.764   3.757  0.2078  0.2918 -0.2987
 3626W        W19435   6.159  15.893   5.879  0.2182 -0.0484 -0.2171
 3627W        W19436   8.494  14.594  13.754 -0.0056  0.0869 -0.1147
 3628W        W19437   1.933   3.506  15.245 -0.0956 -0.0327 -0.1861
 3629W        W19438  14.465  13.172   2.175  0.2316  0.2101 -0.3181
 3630W        W19439  16.551   0.227   4.167 -0.1352  0.1706  0.2084
 3631W        W19440  13.031   5.606  13.292  0.0057  0.0272 -0.1668
 3632W        W19441   7.680   0.216  15.745 -0.0318  0.1762 -0.7184
 3633W        W19442   5.593   6.221   2.695 -0.2585  0.1163  0.0822
 3634W        W19443   5.466  15.953  13.722  0.1203 -0.0621  0.2956
 3635W        W19444  16.044  13.317  10.601 -0.1822  0.1544 -0.0200
 3636W        W19445  16.879   8.234   1.329  0.1854  0.1382 -0.0704
 3637W        W19446  12.065  16.980   1.449 -0.1245 -0.0632 -0.0245
 3638W        W19447  11.535  13.406  11.887  0.1009 -0.2852 -0.1636
 3639W        W19448   9.804   1.530   5.090  0.2983  0.0752 -0.0981
 3640W        W19449   3.416   8.521   3.643  0.0656  0.0046 -0.1326
 3641W        W19450  13.357   2.045   4.301  0.1196  0.0883 -0.0839
 3642W        W19451  10.737   6.161  15.113 -0.0995  0.3400  0.0785
 3643W        W19452  14.977   8.396   5.729  0.1140 -0.0893  0.1075
 3644W        W19453   8.774   0.376  12.854  0.1487 -0.0197 -0.4304
 3645W        W19454   4.465  17.077  14.683  0.2634  0.1584  0.2014
 3646W        W19455   4.286  12.003  10.529  0.1487 -0.0487  0.2136
 3647W        W19456   3.326   9.862   1.888 -0.1159  0.1266  0.1006
 3648W        W19457  18.010   9.417  15.795 -0.1868 -0.2387  0.0784
 3649W        W19458  14.103  11.877   1.656 -0.1426  0.1960 -0.0270
 3650W        W19459  10.034   9.414   2.649  0.1949  0.1576 -0.0535
 3651W        W19460   7.597   7.336  10.863 -0.1318  0.0323 -0.1931
 3652W        W19461  11.463   7.947   3.967  0.1194 -0.1773 -0.0875
 3653W        W19462   4.980  16.944   0.560  0.2504  0.1095  0.1195
 3654W        W19463  10.319   8.729  14.019 -0.1624  0.1267 -0.2137
 3655W        W19464   4.233   1.340  14.796  0.0282 -0.2925 -0.1469
 3656W        W19465  13.214   6.648  15.643 -0.0427 -0.2658 -0.1086
 3657W        W19466  11.636  15.928   5.154 -0.0658  0.2825  0.1870
 3658W        W19467   0.112   6.703  13.678  0.1379 -0.1081  0.2600
 3659W        W19468   6.895  14.822  11.672  0.1098  0.2599 -0.0195
 3660W        W19469   6.364   9.300  10.356 -0.1120  0.0922 -0.0101
 3661W        W19470   5.532   0.847  14.490 -0.0402  0.0673 -0.2909
 3662W        W19471   9.421   6.042  11.528  0.0715  0.0456  0.0391
 3663W        W19472  13.250   4.293  13.306  0.1615  0.0472  0.1831
 3664W        W19473  10.545   8.004   4.763 -0.3470 -0.3138  0.0696
 3665W        W19474  17.808   3.295   2.497  0.1852  0.0987 -0.0096
 3666W        W19475   2.539  12.852  14.109  0.1073 -0.1209  0.1327
 3667W        W19476   8.558  11.853  14.965  0.1059  0.0903 -0.1458
 3668W        W19477   1.627   5.675  15.357  0.1360 -0.0198  0.0769
 3669W        W19478   0.253  10.957  15.156  0.1017 -0.1446  0.1872
 3670W        W19479   1.477  14.274  15.719  0.0157 -0.0522 -0.0544
 3671W        W19480  13.978   7.117  13.642 -0.2273 -0.0423 -0.0702
 3672W        W19481   2.500  11.214   2.734 -0.0174 -0.1731  0.0621
 3673W        W19482  10.937  14.366   1.974 -0.2754 -0.3130 -0.3115
 3674W        W19483   9.247   3.071   5.202 -0.2845 -0.1160 -0.1957
 3675W        W19484   2.600  13.299   1.871  0.3281 -0.2058 -0.0235
 3676W        W19485  10.814   7.955  11.698 -0.2482 -0.2335  0.1788
 3677W        W19486   7.300   0.536   3.411 -0.2389 -0.0883 -0.1642
 3678W        W19487  15.774   2.238  12.934  0.0041 -0.2296 -0.3614
 3679W        W19488  17.725  16.966  12.394  0.0034 -0.1305 -0.1047
 3680W        W19489   5.773  13.733  15.124  0.0401 -0.2446 -0.0913
 3681W        W19490  14.168   1.282   4.241  0.1268  0.2157 -0.3565
 3682W        W19491  10.654  11.581  10.004 -0.2743 -0.0414 -0.0146
 3683W        W19492   1.024   9.701   4.491 -0.2564 -0.2538  0.0394
 3684W        W19493   4.503  12.923  13.504  0.0551 -0.0739  0.0138
 3685W        W19494  15.327   9.116  13.451  0.0741  0.2696  0.2641
 3686W        W19495   9.319   0.095  12.981  0.4202 -0.2191  0.0664
 3687W        W19496  15.693   3.891   4.419  0.1847  0.0128 -0.0265
 3688W        W19497   7.278  18.378   0.220  0.1533 -0.0284 -0.0915
 3689W        W19498   6.922   4.658   2.796  0.1431 -0.4124 -0.2154
 3690W        W19499  14.206   0.108   4.550 -0.1558  0.2242 -0.0416
 3691W        W19500   2.495  11.716   5.622 -0.2128  0.1826  0.1226
 3692W        W19501  18.313   6.203   5.837  0.0109 -0.0659 -0.1894
 3693W        W19502   3.821   0.810   9.826  0.0248  0.0277  0.2691
 3694W        W19503   7.630  14.787  11.054  0.2641  0.2653  0.0420
 3695W        W19504  11.730   0.971   0.207 -0.1148 -0.2932  0.1554
 3696W        W19505   9.007   6.045   4.684  0.0343  0.0520 -0.0528
 3697W        W19506   1.515   3.610   3.368  0.1344 -0.2017  0.1785
 3698W        W19507  11.485  12.856  11.964  0.0262  0.1170 -0.2754
 3699W        W19508   7.175  16.811   2.116 -0.1515  0.0677  0.1876
 3700W        W19509   1.706   2.329  13.722 -0.2653 -0.0021  0.2166
 3701W        W19510  11.827   6.669  11.666 -0.1706  0.0010  0.3602
 3702W        W19511   0.506  11.245   0.566 -0.0262 -0.0158 -0.1667
 3703W        W19512  14.290   2.602   1.605 -0.2091 -0.1804 -0.2006
 3704W        W19513  18.162  13.402   1.403  0.0016 -0.1121  0.1908
 3705W        W19514  16.224   5.254   2.277 -0.2333 -0.0580  0.0427
 3706W        W19515   6.619   7.495  10.763 -0.0426  0.0881 -0.1161
 3707W        W19516   7.344  17.529  14.314 -0.2758  0.1559  0.1360
 3708W        W19517  18.022  15.558  14.237  0.2674 -0.1698  0.2048
 3709W        W19518   5.735   8.818  14.432  0.1286 -0.1316  0.1397
 3710W        W19519   4.445  10.674  13.334 -0.3397  0.1110  0.1375
 3711W        W19520   9.698  15.440   1.328  0.0929 -0.0192 -0.1524
 3712W        W19521   4.899  17.446   0.585  0.0322 -0.0176 -0.1060
 3713W        W19522  16.293   0.315   4.609  0.0049  0.2123  0.1836
 3714W        W19523   9.576  15.800   4.713  0.0575  0.2157  0.1536
 3715W        W19524  12.990  12.761   2.452 -0.0288 -0.0452 -0.3387
 3716W        W19525  10.918   2.101   0.048  0.1812 -0.0447 -0.0860
 3717W        W19526  11.601  10.737  11.315 -0.0671 -0.3981  0.1763
 3718W        W19527   2.307  14.327   0.486 -0.0340  0.0601 -0.0308
 3719W        W19528  16.589   8.255  12.525 -0.0114  0.1215  0.0261
 3720W        W19529   8.011  14.130   0.767  0.2495 -0.0201 -0.0152
 3721W        W19530  14.599  17.018   0.600  0.0275 -0.1361 -0.1039
 3722W        W19531   1.898   5.949   3.259  0.1456 -0.2265  0.0109
 3723W        W19532  13.836  18.283   1.322 -0.0907  0.3033 -0.1178
 3724W        W19533   9.566   6.193  14.450 -0.0816  0.0470 -0.0670
 3725W        W19534   1.971   6.263   0.045  0.1697  0.0301  0.0086
 3726W        W19535   5.102   6.090  14.574  0.2591  0.2350  0.0459
 3727W        W19536   8.290   9.034  10.172  0.1037 -0.1017  0.1659
 3728W        W19537  13.754   8.300   1.107 -0.1370 -0.0174  0.1125
 3729W        W19538  12.670  16.139   0.473 -0.0184 -0.0108 -0.1039
 3730W        W19539   3.031   1.749   3.011  0.0817 -0.1619  0.0936
 3731W        W19540  13.345  14.167  11.309 -0.1375 -0.1423 -0.2293
 3732W        W19541   1.050   6.204  11.762  0.2468  0.1249  0.0634
 3733W        W19542  12.865   3.477   4.129  0.1238  0.0442  0.0666
 3734W        W19543   0.377  10.045  13.585 -0.3855  0.1238  0.1226
 3735W        W19544   2.519  15.793   5.603  0.0250  0.0769  0.1470
 3736W        W19545   5.170  14.147  15.201  0.1417 -0.3305  0.2103
 3737W        W19546   8.597   7.084   1.089  0.0965  0.1926 -0.3038
 3738W        W19547  16.863  11.721   0.350  0.0370  0.0434  0.0138
 3739W        W19548   5.362   2.508   3.997  0.0342 -0.2132 -0.1533
 3740W        W19549   6.800   9.637   4.098  0.0660 -0.0228 -0.0648
 3741W        W19550   4.692   5.191  12.782 -0.0123 -0.2457  0.2037
 3742W        W19551  15.934   5.973  13.173  0.0261  0.1443  0.1322
 3743W        W19552  11.677  15.438   3.194 -0.1307 -0.0694 -0.1786
 3744W        W19553   1.674   9.006   6.025  0.1834 -0.0226 -0.0899
 3745W        W19554  15.750   8.160   3.790 -0.1647 -0.1267 -0.0563
 3746W        W19555   4.064   2.499  14.058 -0.0717  0.3795  0.0229
 3747W        W19556  14.871  15.170   0.288 -0.0321  0.0488  0.1689
 3748W        W19557  11.484  15.731   0.851 -0.0361 -0.0761  0.2453
 3749W        W19558  15.985  11.665   0.049 -0.2979 -0.0812  0.1131
 3750W        W19559   4.581   5.850  15.274  0.0796  0.0999  0.1173
 3751W        W19560  17.642  12.566  14.151  0.2134 -0.0146 -0.1310
 3752W        W19561  13.535   1.815   3.382  0.0296  0.0370 -0.0654
 3753W        W19562  16.762   5.325   3.454 -0.0594 -0.0021 -0.1654
 3754W        W19563  12.708  12.797  13.867 -0.0867  0.2489  0.2642
 3755W        W19564   0.542  10.584   1.837 -0.1533 -0.3235  0.1270
 3756W        W19565   2.312  11.333   3.364  0.1919 -0.1249  0.2203
 3757W        W19566  13.391  15.383  13.010  0.1706 -0.2145 -0.0955
 3758W        W19567   2.432   7.790   1.088  0.0680  0.0077 -0.0947
 3759W        W19568  17.217  10.420  12.062 -0.2165  0.0916  0.1784
 3760W        W19569   4.931   4.737   9.455  0.0075 -0.0849  0.1723
 3761W        W19570  17.970   7.371   5.743 -0.0465 -0.0136 -0.0140
 3762W        W19571   4.982  17.899   0.849 -0.2571 -0.0030  0.0175
 3763W        W19572   3.126   2.148   3.952  0.2209 -0.2064  0.1790
 3764W        W19573   0.399   4.133   2.334  0.1329  0.1024  0.1415
 3765W        W19574  16.368  15.930   4.043 -0.1383  0.0831 -0.0630
 3766W        W19575   5.058  11.491   5.062  0.1072 -0.2737 -0.1843
 3767W        W19576   8.019  13.403   4.843 -0.2739 -0.3167 -0.0934
 3768W        W19577   5.606  10.237  12.817 -0.1579 -0.0573 -0.2275
 3769W        W19578  12.413   1.043  12.734  0.0377 -0.1585  0.0028
 3770W        W19579   2.466   2.252   1.875  0.2954 -0.0454  0.1098
 3771W        W19580   0.931  11.864  12.603 -0.1527  0.0746  0.0272
 3772W        W19581   1.206   6.495   4.837  0.1736  0.0905  0.0572
 3773W        W19582  11.285   6.917   3.559  0.0602  0.0519 -0.1329
 3774W        W19583  11.852   2.693   2.228  0.0570  0.2933  0.0665
 3775W        W19584  10.558  11.194  15.560  0.1600  0.0330  0.0384
 3776W        W19585  11.965  12.729  12.049  0.1164 -0.3530 -0.2840
 3777W        W19586   8.070  10.993  10.861 -0.0781 -0.0350 -0.2711
 3778W        W19587  17.298   6.836   0.312 -0.0499 -0.0156  0.3424
 3779W        W19588  17.300   4.220   0.175  0.0503 -0.0601 -0.2222
 3780W        W19589   4.223  13.442  14.751 -0.1455 -0.0609  0.1688
 3781W        W19590   7.799  17.759   3.888  0.0682  0.0635  0.2402
 3782W        W19591  10.975   4.334   3.106  0.2308  0.0134 -0.0449
 3783W        W19592   4.140   3.812   0.604  0.1344  0.0098  0.0389
 3784W        W19593  15.279   8.523   2.498  0.1213  0.4639  0.0854
 3785W        W19594  15.781  15.333  13.293  0.1761  0.0985  0.0994
 3786W        W19595  16.148   1.188   1.341 -0.2997 -0.1524 -0.0025
 3787W        W19596  12.626   8.027  11.454 -0.1420 -0.0808  0.0868
 3788W        W19597   5.209   6.800   1.903 -0.1636  0.3107 -0.0085
 3789W        W19598   1.938   5.034  12.861  0.0337 -0.2474  0.2296
 3790W        W19599   2.291  13.744   4.976  0.0755  0.0253 -0.0029
 3791W        W19600   9.830   0.688  14.376  0.0088 -0.0261  0.1193
 3792W        W19601  11.953   6.015   1.220  0.2510 -0.0922 -0.1656
 3793W        W19602   2.362  17.136  15.372 -0.0740  0.2161 -0.2724
 3794W        W19603   4.298   5.867   4.074 -0.0791  0.3696  0.0416
 3795W        W19604  10.836  16.612  15.202  0.1635  0.0264 -0.1895
 3796W        W19605  12.831  14.355   0.807 -0.0081 -0.0042  0.0001
 3797W        W19606   5.579   2.442  11.175  0.0915  0.4182 -0.0341
 3798W        W19607  11.309  15.568  11.134 -0.0103 -0.5337  0.1334
 3799W        W19608   9.482   7.927  14.388  0.0283 -0.0129  0.0241
 3800W        W19609  11.379   1.874  15.840 -0.0177 -0.0821 -0.0312
 3801W        W19610  15.359  16.897  11.070 -0.0097  0.2249 -0.0480
 3802W        W19611  17.886  13.808  12.502  0.1672  0.0428 -0.2444
 3803W        W19612  11.771  10.457  12.185 -0.2530 -0.0857  0.0033
 3804W        W19613  13.563  15.114   0.380 -0.1723  0.1348 -0.0522
 3805W        W19614   0.099  16.448  14.032 -0.0632  0.0205 -0.0435
 3806W        W19615  17.504  13.048  10.659 -0.0938 -0.2370  0.2207
 3807W        W19616   6.117   2.775  14.846 -0.2122  0.0465 -0.1104
 3808W        W19617  10.677  13.070   0.112 -0.0086 -0.1193 -0.2106
 3809W        W19618   3.310  14.230  11.675  0.1554  0.1416 -0.2184
 3810W        W19619  11.336   3.264   2.272  0.1425  0.2849 -0.2042
 3811W        W19620   7.419   7.628  10.315  0.0033 -0.0505  0.2931
 3812W        W19621   3.986  15.321   3.634  0.0328 -0.3429 -0.0928
 3813W        W19622  12.776   3.069   3.017  0.0878  0.0268  0.0472
 3814W        W19623  17.857   8.733  15.231 -0.0565 -0.1026 -0.0140
 3815W        W19624  11.639   2.340   0.773 -0.1274 -0.1258 -0.0452
 3816W        W19625  17.863  16.876   2.382 -0.0226  0.0849  0.3119
 3817W        W19626  14.895   1.371  14.621  0.2106 -0.2556 -0.0355
 3818W        W19627   1.114   8.666  11.120  0.0429 -0.2342 -0.5073
 3819W        W19628   6.125  12.007  11.723  0.1614  0.0840  0.2675
 3820W        W19629  14.150   4.807  13.604 -0.1002  0.1689  0.0698
 3821W        W19630   2.303   7.770  13.617  0.3489  0.0937 -0.0441
 3822W        W19631   8.527   4.014  10.890 -0.2838 -0.0829 -0.2558
 3823W        W19632   2.721  13.512   1.046 -0.1072  0.2280 -0.3804
 3824W        W19633  15.773   6.011   4.989  0.1011 -0.2080  0.0359
 3825W        W19634  11.007   0.871   0.653 -0.3458  0.0229  0.2722
 3826W        W19635   2.808   3.385   9.895 -0.2315  0.0607 -0.1357
 3827W        W19636   3.923   7.174  11.119  0.0187 -0.1468 -0.2217
 3828W        W19637  17.471   4.535  12.403  0.0923  0.1139  0.0703
 3829W        W19638  13.273  13.153   5.030 -0.0702  0.0281  0.1366
 3830W        W19639   8.105   1.976   3.394 -0.1268  0.1948 -0.0224
 3831W        W19640  11.257   8.527  15.325  0.0301 -0.0312  0.0388
 3832W        W19641  11.877  10.845   0.739 -0.3297  0.0839 -0.1227
 3833W        W19642   3.997   8.594   1.613  0.2324  0.0178 -0.3108
 3834W        W19643   9.365   2.080   2.784 -0.0120 -0.0230 -0.0116
 3835W        W19644   5.553  12.808  11.592 -0.0829  0.1974  0.3734
 3836W        W19645  10.291  17.236   1.530  0.1802 -0.0619  0.0089
 3837W        W19646   1.745  12.932  13.337  0.0684  0.0399  0.0104
 3838W        W19647   1.509  18.462   0.845  0.0117  0.0645  0.0368
 3839W        W19648   9.196   9.280   5.537 -0.0690  0.0758 -0.2877
 3840W        W19649  13.592  15.823  11.891  0.1059 -0.0695  0.0953
 3841W        W19650   0.353   2.222   5.159 -0.0054 -0.0266  0.0383
 3842W        W19651   5.498   0.334  15.401 -0.0195  0.0802  0.2478
 3843W        W19652   3.988  15.429  15.613  0.1437 -0.3067  0.2121
 3844W        W19653  15.047  16.734  13.350 -0.3182  0.4140 -0.0855
 3845W        W19654  12.566  18.279   4.166  0.0869 -0.0064 -0.3085
 3846W        W19655  13.637  12.475   0.639 -0.0198  0.0231 -0.1704
 3847W        W19656  14.675   6.589   4.307 -0.0981 -0.2299  0.0017
 3848W        W19657  17.356  17.103  14.309 -0.0103  0.0317  0.0343
 3849W        W19658  18.186   0.431   0.680  0.0008  0.2316 -0.2124
 3850W        W19659  10.096   5.726  15.116 -0.1458  0.1738  0.3955
 3851W        W19660   5.166   0.013  12.775  0.0768  0.2596 -0.2108
 3852W        W19661   1.691   7.346  15.475 -0.2487  0.3485  0.4813
 3853W        W19662   5.694  12.271   4.886 -0.1300  0.0518  0.3180
 3854W        W19663   4.322  15.067  11.110 -0.1011  0.0109  0.2673
 3855W        W19664  15.174   8.240  11.196  0.0493 -0.1129 -0.0051
 3856W        W19665  12.531  16.062  11.527  0.0235  0.2392 -0.0113
 3857W        W19666  15.894   7.505  12.217 -0.0305 -0.1416  0.4345
 3858W        W19667   6.061  16.312   0.645  0.0828  0.0938  0.2958
 3859W        W19668  13.519  11.291   9.992 -0.2262 -0.4404  0.0725
 3860W        W19669   3.213   2.836  14.018  0.0140 -0.0690 -0.0979
 3861W        W19670  11.900  12.139  10.076 -0.0646 -0.0805  0.0605
 3862W        W19671   3.963   3.279  15.713 -0.0747  0.2369 -0.0303
 3863W        W19672  14.764   6.177   1.890 -0.4593 -0.1689 -0.3763
 3864W        W19673   0.391  15.795   5.001 -0.0152  0.0468  0.0155
 3865W        W19674  16.139  14.901  12.360  0.0637 -0.0791  0.1054
 3866W        W19675  10.587  13.510   2.509  0.0968 -0.0995  0.0158
 3867W        W19676  17.435   2.892  13.064  0.3141  0.2016 -0.2123
 3868W        W19677   2.187   5.797  12.206  0.0905 -0.2055 -0.0768
 3869W        W19678  13.726  12.887   1.694  0.3040 -0.0963  0.1683
 3870W        W19679   8.114   7.957   3.120 -0.0743 -0.0677  0.2878
 3871W        W19680   3.910   8.409  11.962  0.3108  0.3077 -0.1109
 3872W        W19681  12.472  15.857   3.656  0.0361 -0.1061  0.1566
 3873W        W19682  12.865  13.112  11.887  0.1509  0.0763  0.0601
 3874W        W19683  16.654  17.372   5.664 -0.0946 -0.0054  0.0008
 3875W        W19684  12.076  12.137   0.055  0.1079  0.1711  0.2479
 3876W        W19685  13.224  11.947  14.429  0.3010 -0.0078 -0.0160
 3877W        W19686  18.095  15.377  11.260 -0.2097 -0.0079 -0.2195
 3878W        W19687  15.074  10.884  12.974 -0.0110 -0.0483 -0.0777
 3879W        W19688   7.100  17.919  13.508 -0.3380 -0.0897  0.1578
 3880W        W19689  10.881  11.379  12.139  0.0982 -0.5227  0.0634
 3881W        W19690   1.988   9.296   1.054  0.0817 -0.4292 -0.1488
 3882W        W19691  18.408  16.280  11.049  0.0561 -0.2827 -0.0772
 3883W        W19692   0.019  12.322   1.392  0.1325  0.1309 -0.1332
 3884W        W19693   4.911  14.355   1.401  0.0889 -0.2144  0.0719
 3885W        W19694  17.106  10.075  12.791 -0.2621  0.1460  0.2351
 3886W        W19695   9.842  13.299  11.069  0.0749 -0.2955  0.0188
 3887W        W19696   2.141  15.672   4.758 -0.2620  0.0682 -0.0861
 3888W        W19697   9.247  17.974   3.436 -0.0702 -0.0829  0.0186
 3889W        W19698   2.781   4.117   0.248  0.0002  0.2538  0.2134
 3890W        W19699   8.953   8.611  15.755 -0.3577  0.2621 -0.2306
 3891W        W19700   3.356   2.517  11.321  0.1852 -0.0923  0.1365
 3892W        W19701   0.884  14.302  14.918 -0.1508  0.0799  0.0199
 3893W        W19702   0.082   2.680   3.545 -0.1486 -0.0241  0.0475
 3894W        W19703  11.247   7.499  12.653 -0.1990  0.1867  0.0319
 3895W        W19704   5.713   3.470   0.232  0.1176 -0.1900  0.2648
 3896W        W19705  12.749   0.017  11.455 -0.0682  0.1579  0.2227
 3897W        W19706  13.229  14.513  15.660 -0.2706  0.1339 -0.3416
 3898W        W19707  13.216  14.892   2.895  0.0329  0.0229 -0.0658
 3899W        W19708  10.336   7.956  11.708  0.1214  0.0813 -0.1686
 3900W        W19709   8.724   9.724  15.820 -0.1915  0.1504 -0.2271
 3901W        W19710   2.214   3.493   0.492 -0.2686  0.0665 -0.0991
 3902W        W19711   1.354  12.339   0.860 -0.3322 -0.1765  0.0781
 3903W        W19712   7.936   4.406  11.344  0.0572  0.2482  0.0287
 3904W        W19713  15.601   8.368  15.831  0.1222  0.0927  0.1476
 3905W        W19714  16.495   8.188   5.790  0.3366  0.2943 -0.1740
 3906W        W19715  15.281   3.564  13.070 -0.1721  0.2508 -0.1660
 3907W        W19716  17.563  17.051   3.143  0.0112 -0.0431  0.0300
 3908W        W19717   2.817  16.487  12.764 -0.1258  0.1294 -0.0269
 3909W        W19718   5.992   1.845   4.394  0.0227  0.2743  0.0097
 3910W        W19719  16.969   8.004   0.775  0.1258  0.0930 -0.0944
 3911W        W19720  12.353  14.212   2.732  0.0729 -0.1527 -0.0298
 3912W        W19721   9.821   9.434  13.610  0.1251  0.0162  0.1052
 3913W        W19722   3.980   2.652   1.368  0.0450  0.1789  0.0426
 3914W        W19723  15.015   6.570  15.058  0.3210 -0.2751 -0.0074
 3915W        W19724   2.051   5.394   3.969 -0.0991  0.3032 -0.0960
 3916W        W19725  13.679  11.849   2.892  0.1709  0.1813 -0.1322
 3917W        W19726  15.704   4.153   0.771 -0.1861 -0.1657 -0.2250
 3918W        W19727   3.883  17.957  15.461  0.0571 -0.2370  0.1374
 3919W        W19728  10.315  11.872   0.056  0.3604  0.1386  0.0620
 3920W        W19729   3.061   2.416  11.717  0.1978  0.2882 -0.1244
 3921W        W19730  14.636  14.304   3.051 -0.2856 -0.1254  0.0862
 3922W        W19731   9.974   0.134   3.359 -0.2352  0.1018  0.0490
 3923W        W19732  13.941  17.874  14.998  0.1498  0.0858 -0.0800
 3924W        W19733   2.337   3.555  12.649  0.0747 -0.0056 -0.1717
 3925W        W19734   9.535  17.689   0.392  0.2625 -0.1621 -0.0399
 3926W        W19735   9.785  16.898  11.771 -0.1975  0.1266 -0.0332
 3927W        W19736   4.930   1.483  14.098  0.0697 -0.1210 -0.1032
 3928W        W19737   8.761   9.095   3.532  0.1281 -0.1435  0.0300
 3929W        W19738   0.884  14.730  11.197 -0.2145  0.0653 -0.1115
 3930W        W19739  11.939  16.761  11.208  0.1938 -0.2340 -0.2492
 3931W        W19740  10.087  15.503  14.281  0.4099 -0.0498  0.0950
 3932W        W19741   0.676   2.195   1.405 -0.0900  0.0911 -0.0945
 3933W        W19742   8.143   0.549   2.427 -0.0080 -0.1791 -0.1854
 3934W        W19743  10.287   0.051  11.482 -0.1044  0.0734 -0.1032
 3935W        W19744  17.067  18.289   4.356  0.1950 -0.0033  0.0805
 3936W        W19745   2.930  16.991   2.274 -0.3101  0.2837 -0.0295
 3937W        W19746   0.854  15.742  13.009 -0.0861  0.2542 -0.2009
 3938W        W19747  18.091  18.040   0.972  0.0609 -0.1670  0.4670
 3939W        W19748   5.591   2.123   0.566 -0.0701 -0.2291 -0.0539
 3940W        W19749   5.859   3.889  15.314  0.1974 -0.0591 -0.0366
 3941W        W19750  15.016  11.066   0.215 -0.2097  0.3428 -0.0509
 3942W        W19751  15.854  12.510  10.817  0.2164  0.2129 -0.1475
 3943W        W19752  17.735   0.367  11.880  0.2479 -0.1559 -0.0481
 3944W        W19753  14.696   4.280  12.211 -0.0070  0.1253  0.0349
 3945W        W19754  17.646  16.418  13.632  0.0380  0.2306 -0.0486
 3946W        W19755  14.763   3.098  12.195 -0.1669  0.0921 -0.0601
 3947W        W19756   6.140  12.314   0.353 -0.0761  0.1105 -0.1356
 3948W        W19757  10.850   2.849  14.411  0.4188 -0.3849 -0.0430
 3949W        W19758   7.974   6.399   0.888 -0.0069  0.2354 -0.0611
 3950W        W19759   4.437   9.105   4.576 -0.2191  0.0472 -0.1013
 3951W        W19760  13.193  11.093   5.163  0.0007  0.0461  0.0092
 3952W        W19761   9.443  12.771  14.570  0.0845  0.2548 -0.3224
 3953W        W19762  11.961  13.819  14.627 -0.0828 -0.1945 -0.0221
 3954W        W19763   4.137  10.494   1.604  0.2075 -0.0482  0.0092
 3955W        W19764  16.672   0.108  15.433  0.2623  0.0468 -0.1676
 3956W        W19765   0.744   3.128   0.500  0.3773 -0.0758  0.1493
 3957W        W19766  15.020   2.225  11.043 -0.0611 -0.0064  0.3021
 3958W        W19767  14.577  14.665  14.283  0.0713 -0.2297  0.0044
 3959W        W19768   7.691  17.272  13.942 -0.1800 -0.0764 -0.0611
 3960W        W19769   3.189   0.975   5.905 -0.2483 -0.2875 -0.0299
 3961W        W19770  12.643   4.425   2.629 -0.1618 -0.3143 -0.0888
 3962W        W19771   7.910  11.081   2.988 -0.0282  0.0182  0.0146
 3963W        W19772  16.204   4.126   0.554 -0.1929  0.1875 -0.0324
 3964W        W19773  11.677   2.135   3.499 -0.0524 -0.0499  0.1107
 3965W        W19774  12.205  17.066   0.410 -0.0019  0.2207 -0.0250
 3966W        W19775   1.569   3.435  14.664  0.0198  0.2282  0.2304
 3967W        W19776   8.283   4.253  14.005  0.1600  0.0859  0.3037
 3968W        W19777   6.603  12.173  11.767 -0.1976 -0.3269 -0.0999
 3969W        W19778  14.554  16.382   1.371 -0.3120  0.4282  0.1670
 3970W        W19779  11.829   7.728   0.481 -0.1708 -0.0560 -0.0558
 3971W        W19780   2.038   2.943  12.056  0.0452 -0.0821  0.0951
 3972W        W19781   5.360  16.064  12.508  0.1782 -0.0913  0.0545
 3973W        W19782   1.455   2.512   0.360 -0.0854  0.0406 -0.1376
 3974W        W19783  14.968   6.558  15.608  0.3569 -0.1649 -0.1725
 3975W        W19784  15.321   6.368  12.151 -0.1805  0.1591 -0.1347
 3976W        W19785  16.376   9.589  11.173  0.3177  0.1098  0.2675
 3977W        W19786  10.453   8.086   1.087 -0.1349 -0.2619  0.0406
 3978W        W19787   3.871  16.447  11.149 -0.2234  0.1942  0.0823
 3979W        W19788  10.886  10.324  12.452 -0.1100  0.0277  0.1645
 3980W        W19789   3.135  13.143   4.405 -0.1819  0.0890 -0.1436
 3981W        W19790   1.557   7.545   1.374 -0.1915 -0.1829  0.2817
 3982W        W19791   6.919  17.671   4.210 -0.0381  0.1159 -0.0798
 3983W        W19792   7.669   5.449   4.926  0.1746  0.0685 -0.1176
 3984W        W19793   5.820  16.450   2.450 -0.1752  0.1284 -0.0543
 3985W        W19794  13.454   4.951  15.576 -0.1461 -0.1401 -0.2236
 3986W        W19795  16.920   4.191  13.548 -0.0677 -0.1307  0.1376
 3987W        W19796   4.640   0.741  12.912 -0.1288  0.0394 -0.1783
 3988W        W19797  10.197  11.005   0.027  0.3715 -0.0555 -0.2878
 3989W        W19798   4.799   5.554   1.729 -0.4115  0.3162 -0.0318
 3990W        W19799   6.408   6.955   0.991  0.5433 -0.0884  0.0649
 3991W        W19800  17.599   3.219  12.723  0.1937  0.1690  0.3925
 3992W        W19801   8.243  17.126  13.215 -0.0028  0.1933 -0.2181
 3993W        W19802  12.192   6.076   0.682  0.0156 -0.0459  0.0497
 3994W        W19803   0.047   3.870   2.708 -0.0578 -0.0547  0.2600
 3995W        W19804   6.980  11.276  15.751 -0.0865 -0.3251  0.2238
 3996W        W19805  15.633   2.923  11.227  0.1521 -0.1122 -0.0131
 3997W        W19806  12.326   6.721  14.817  0.0491  0.0584 -0.0613
 3998W        W19807   6.470   7.936  10.908  0.2041 -0.4086 -0.1086
 3999W        W19808   0.538   5.705   6.011 -0.2281  0.0677 -0.2571
 4000W        W19809   2.798  14.112   5.875  0.1902 -0.2109  0.1174
 4001W        W19810   2.117  16.161   1.726 -0.2043  0.0660  0.0944
 4002W        W19811   8.741   1.472   3.119 -0.1020 -0.1781 -0.1087
 4003W        W19812   4.014  16.654   0.252 -0.0198  0.2816 -0.2404
 4004W        W19813  17.518  14.956  10.684  0.1013 -0.1260  0.2054
 4005W        W19814   0.838   4.879   0.192  0.0444  0.1597 -0.0334
 4006W        W19815   7.783   1.134  15.815 -0.2328  0.0914  0.1049
 4007W        W19816   7.690  12.467  12.008 -0.0985 -0.1873 -0.1232
 4008W        W19817   9.045   2.660   4.403 -0.1475 -0.0329  0.0527
 4009W        W19818  12.960   8.164  13.466 -0.2135  0.0407  0.1174
 4010W        W19819  18.315   7.743  10.027  0.0049  0.0162  0.2349
 4011W        W19820   3.925   8.676   0.383  0.2140 -0.1089  0.2572
 4012W        W19821   8.186   9.013  13.688 -0.1209  0.0726 -0.1041
 4013W        W19822   0.447   2.976   3.897  0.3541  0.1543  0.2332
 4014W        W19823  17.883  18.371  15.404  0.0276 -0.0607 -0.1453
 4015W        W19824   9.739  13.732  14.802 -0.1312  0.1994  0.1525
 4016W        W19825   0.766   0.565   0.679 -0.2336  0.0741  0.2391
 4017W        W19826   6.817   7.654   0.050  0.0743  0.0533  0.0087
 4018W        W19827   6.330  11.264  15.104  0.3168  0.1310  0.1786
 4019W        W19828  16.986  15.416   1.707 -0.1703 -0.0793 -0.0664
 4020W        W19829  10.059  13.677  11.995  0.1888 -0.0132  0.2388
 4021W        W19830  17.818  13.798   1.329  0.0664 -0.0869 -0.2028
 4022W        W19831   0.613  12.271  13.327  0.0130 -0.1276  0.1823
 4023W        W19832   3.046  11.614  12.836  0.1323  0.1488 -0.0080
 4024W        W19833  17.676  11.688   2.711 -0.2334  0.1346 -0.2818
 4025W        W19834   3.172   7.860   2.485  0.0372  0.1903 -0.0854
 4026W        W19835   3.628  17.061   1.785 -0.0560 -0.2246 -0.1178
 4027W        W19836  17.530   3.911   0.551  0.0255 -0.1454 -0.1192
 4028W        W19837  14.566   2.087  10.791 -0.2608  0.0628 -0.1959
 4029W        W19838   2.446   7.423   2.010  0.0313 -0.2696 -0.1108
 4030W        W19839   8.686   1.428   4.457 -0.2814 -0.0326 -0.0432
 4031W        W19840  15.074   1.116  13.057  0.1174  0.2707 -0.1969
 4032W        W19841   7.720   0.123   1.418 -0.3047 -0.2539 -0.1698
 4033W        W19842  14.976  13.988   3.391 -0.1884  0.0083  0.0578
 4034W        W19843   4.757   0.720  12.161  0.0022 -0.1425  0.1151
 4035W        W19844  11.556  10.373   3.492  0.1240  0.1589 -0.0645
 4036W        W19845  14.271   2.985   5.232  0.0398 -0.2746 -0.0505
 4037W        W19846  15.007   6.194   4.447 -0.2643 -0.0984 -0.0740
 4038W        W19847   9.114  15.483   2.540  0.0130 -0.0853  0.0749
 4039W        W19848  16.839   8.113  13.564 -0.0146 -0.1812 -0.1671
 4040W        W19849  12.129   9.139  13.275  0.2803 -0.2764  0.1937
 4041W        W19850  15.371  10.953  11.520  0.0225 -0.1201  0.0192
 4042W        W19851   1.331   7.395   4.533 -0.1833 -0.0268  0.1403
 4043W        W19852  17.421   9.620  15.792  0.2260  0.0866  0.3301
 4044W        W19853   5.878   5.696  11.500  0.0557 -0.0451 -0.1556
 4045W        W19854   3.533  14.618   1.000  0.1146  0.0304  0.3609
 4046W        W19855  16.747   4.528  13.251  0.1532  0.1264  0.2311
 4047W        W19856  15.933  18.067   0.790  0.2494 -0.1968  0.2166
 4048W        W19857   6.569  12.095  13.427  0.2564  0.0280 -0.4474
 4049W        W19858  16.691   4.217   1.067  0.1784  0.2825  0.1928
 4050W        W19859   5.431   2.882  12.063 -0.0905 -0.0198  0.1135
 4051W        W19860  13.067   7.794   5.270  0.2325 -0.1307  0.1847
 4052W        W19861   9.774  17.461  10.876  0.0235  0.0054  0.1476
 4053W        W19862   6.058   4.980   4.284 -0.1764  0.0394 -0.0542
 4054W        W19863  14.017  16.980  13.151  0.0638 -0.1084  0.2883
 4055W        W19864   0.319   6.399  11.232  0.2734  0.0603  0.1477
 4056W        W19865  14.754   6.193  10.605  0.1052 -0.1742 -0.0187
 4057W        W19866   3.905   8.557  12.992  0.1016  0.2022  0.1453
 4058W        W19867   5.133   7.938   2.152 -0.0202  0.1632 -0.1798
 4059W        W19868   5.287   2.164  15.431  0.1307 -0.0368  0.2392
 4060W        W19869  18.183   5.893   3.224 -0.0072 -0.0551  0.0771
 4061W        W19870   8.153   2.679  14.698 -0.0881  0.0206 -0.3246
 4062W        W19871  17.111  14.292   0.432  0.1909 -0.1205  0.0887
 4063W        W19872   1.203  17.530   0.902  0.1874 -0.1624  0.0124
 4064W        W19873  14.481   9.582   9.907 -0.1361  0.1976 -0.1093
 4065W        W19874   7.965  14.039  13.095  0.1538  0.4041  0.0783
 4066W        W19875  11.696   6.649   2.269 -0.0623 -0.0050  0.0285
 4067W        W19876   2.536  16.898   4.554 -0.2194  0.0048  0.3881
 4068W        W19877  16.163  14.516   1.897 -0.3239  0.1189  0.0941
 4069W        W19878   0.674   5.745  10.661 -0.1048  0.3032  0.0749
 4070W        W19879   9.987  15.265  11.082 -0.0837  0.0037  0.1889
 4071W        W19880   4.105   1.597   0.592 -0.2617  0.0091 -0.2132
 4072W        W19881  11.911   8.252   9.993 -0.4024 -0.0743  0.1315
 4073W        W19882  10.376   3.768  13.710  0.1111  0.1182  0.0114
 4074W        W19883  17.847   8.979   4.464  0.0203  0.1348  0.0083
 4075W        W19884   7.656  16.326  14.754 -0.0114 -0.0625 -0.0267
 4076W        W19885   5.525   3.522  13.638  0.0614 -0.1014  0.0673
 4077W        W19886   0.536   5.943  11.649 -0.0987  0.0924  0.1351
 4078W        W19887  15.783   7.517   2.655  0.3353 -0.0495  0.0030
 4079W        W19888  12.837   0.320   3.085 -0.0975  0.1211  0.2204
 4080W        W19889   7.764   2.588  14.911 -0.2286 -0.0396 -0.0155
 4081W        W19890  10.034  10.548   5.391 -0.0337 -0.3109  0.0798
 4082W        W19891   4.941   9.826  14.905 -0.2841 -0.0430  0.3091
 4083W        W19892  11.207   2.877   3.120  0.2883 -0.0557  0.3777
 4084W        W19893   4.672   4.962   0.458  0.0959 -0.0102  0.2754
 4085W        W19894  12.797  16.181   3.841  0.0592 -0.1227  0.2111
 4086W        W19895  13.287   1.822   0.249  0.0544 -0.1989  0.0936
 4087W        W19896   0.131   7.904   1.295 -0.0320  0.0217 -0.0097
 4088W        W19897   9.877  15.324   0.732 -0.1765 -0.0684 -0.0548
 4089W        W19898  10.855   1.241  15.258 -0.0491  0.0663  0.0003
 4090W        W19899   6.666  16.700   4.785 -0.1900 -0.3242 -0.0656
 4091W        W19900  12.727  12.802   0.220 -0.1534  0.2777 -0.0981
 4092W        W19901  12.063  13.178   3.578 -0.0215 -0.1603 -0.3389
 4093W        W19902  13.546  12.175   1.146 -0.0515  0.1498 -0.1783
 4094W        W19903   3.993   0.612  11.141  0.3035 -0.2208 -0.2093
 4095W        W19904   8.217   2.230   2.903 -0.1610 -0.1570  0.0633
 4096W        W19905  18.022  13.643  12.961  0.0667 -0.0585 -0.0737
 4097W        W19906   1.984   1.235  12.722  0.2365 -0.1066  0.1654
 4098W        W19907   3.774   9.251   3.670  0.1221 -0.2459 -0.1049
 4099W        W19908   6.292   4.118  15.762 -0.3193  0.0705 -0.1166
 4100W        W19909   6.129  12.215  14.981  0.1501 -0.3262  0.2743
 4101W        W19910  14.732   7.990  10.821  0.0500  0.1013  0.2678
 4102W        W19911   1.925   6.160  14.554 -0.1471 -0.1637 -0.2305
 4103W        W19912   6.175  10.148  12.417  0.1354  0.0887  0.0936
 4104W        W19913   8.280   9.694  11.717 -0.0619  0.1065 -0.1631
 4105W        W19914   2.357   4.372  13.323  0.0001 -0.0731 -0.2051
 4106W        W19915   1.136   1.347   3.706 -0.0140 -0.1849 -0.0840
 4107W        W19916  10.660   1.302  11.317  0.0288 -0.0215  0.0058
 4108W        W19917   5.643  11.291   3.457 -0.0033 -0.0649  0.1504
 4109W        W19918   2.961   1.111  11.514 -0.0520  0.1339  0.2793
 4110W        W19919  15.357   5.421   3.422 -0.2370 -0.0257  0.2593
 4111W        W19920   2.165  15.699  10.861  0.1196  0.0756  0.1017
 4112W        W19921  16.438   9.238  14.644 -0.0419 -0.1505 -0.1320
 4113W        W19922  12.118  13.653   5.586 -0.1511 -0.3384  0.1835
 4114W        W19923   7.496  16.088  11.633 -0.1655  0.0782  0.0746
 4115W        W19924   5.144  17.956   1.420  0.3056 -0.0477  0.2259
 4116W        W19925   7.675   5.112  15.414 -0.1400 -0.0654  0.1364
 4117W        W19926   0.139  16.425  12.139  0.1533  0.3008 -0.2363
 4118W        W19927   1.382   0.227  11.186 -0.4579 -0.1627  0.1529
 4119W        W19928   5.337   4.915   4.313  0.1978  0.2378 -0.1931
 4120W        W19929  17.395   1.730   2.936 -0.1813  0.1763 -0.2317
 4121W        W19930   4.029   9.526  11.543 -0.1117  0.4531 -0.0224
 4122W        W19931   0.431  14.566  12.220  0.0764  0.0843  0.1128
 4123W        W19932  14.083  15.607   4.109 -0.5878 -0.0370  0.0137
 4124W        W19933   8.888   3.665  14.278  0.0369 -0.2118 -0.1739
 4125W        W19934   2.793  11.988  10.707  0.0087 -0.0343  0.2707
 4126W        W19935   7.776   3.631   4.220 -0.1620 -0.2464  0.0254
 4127W        W19936   0.937   2.961  13.595 -0.0743  0.2486  0.1138
 4128W        W19937   3.791  17.546   1.899  0.1263  0.4125  0.1226
 4129W        W19938  18.381  10.220  13.728 -0.1957 -0.0427 -0.1488
 4130W        W19939   5.104   3.663  10.836  0.1321  0.2120  0.0680
 4131W        W19940   1.232   6.778   1.665 -0.1701 -0.1859 -0.2525
 4132W        W19941   8.664  15.125  13.514 -0.0573  0.0794 -0.2253
 4133W        W19942   5.671  14.590   0.533 -0.1091  0.0998  0.0885
 4134W        W19943   9.575  18.142   0.091  0.1672  0.3728  0.2237
 4135W        W19944   0.636   5.893   5.501  0.1518  0.0593 -0.0852
 4136W        W19945  10.776  16.264   0.293 -0.2647 -0.1566  0.0107
 4137W        W19946   0.553   3.162   3.432 -0.0182 -0.0791  0.0672
 4138W        W19947  11.795  14.017  12.408  0.0548  0.0626  0.1119
 4139W        W19948   7.545   1.715   5.967 -0.2621 -0.1086 -0.1859
 4140W        W19949  14.183  17.072   1.071  0.1037  0.2139  0.1344
 4141W        W19950  11.924  18.311  12.482 -0.3238 -0.1545 -0.0811
 4142W        W19951  10.097  10.600  15.022 -0.1298  0.1754  0.0406
 4143W        W19952   1.172  13.460  12.165 -0.1361 -0.1176 -0.3370
 4144W        W19953   2.189   7.951  11.583 -0.0565  0.1082 -0.0811
 4145W        W19954  12.661  10.166  11.708 -0.0543  0.0630 -0.0791
 4146W        W19955   6.589   4.352   2.473 -0.4171 -0.1640  0.1711
 4147W        W19956   0.095  13.477   3.922 -0.0127 -0.3490  0.0336
 4148W        W19957  12.755  15.825  13.740  0.2120 -0.2042 -0.0082
 4149W        W19958   1.367  13.739  14.010 -0.1994 -0.1206 -0.1580
 4150W        W19959   8.482   4.719   0.640 -0.1549  0.2657 -0.1589
 4151W        W19960  13.848   2.376  11.831 -0.1133 -0.3618  0.1375
 4152W        W19961  15.615   6.324   3.571  0.2078  0.4337  0.0536
 4153W        W19962  11.171  13.756  11.253  0.0928  0.1499 -0.0547
 4154W        W19963  12.025  10.153   4.611 -0.1141  0.3607  0.0344
 4155W        W19964   6.728  12.254   4.060 -0.0447 -0.0231  0.3809
 4156W        W19965  18.076  15.071   4.266 -0.0321  0.0037 -0.2489
 4157W        W19966  17.653  16.087  14.192  0.1875  0.2264  0.1327
 4158W        W19967   2.598  12.705  11.007  0.2520  0.0004  0.5087
 4159W        W19968  14.826   1.535  15.113 -0.3082 -0.1121 -0.1516
 4160W        W19969   5.441   6.848   2.955  0.2632  0.1020  0.2004
 4161W        W19970   8.723   1.634  12.320  0.1811 -0.0317 -0.2368
 4162W        W19971   8.158   3.823   4.935  0.0297 -0.0814 -0.1190
 4163W        W19972   0.195  11.724   2.575 -0.0652  0.1473  0.1617
 4164W        W19973   1.471   5.287  12.658  0.1641 -0.0186  0.0280
 4165W        W19974  11.936  12.347  14.209  0.1570  0.1165  0.0389
 4166W        W19975   3.087   5.940   0.977 -0.1063 -0.0627  0.2337
 4167W        W19976  14.506   4.304  10.970  0.1217 -0.1069 -0.0546
 4168W        W19977  17.837   6.348  14.090  0.0820 -0.1156 -0.1174
 4169W        W19978   4.650  17.623  14.017 -0.0191 -0.0815  0.0598
 4170W        W19979  14.789   4.501  11.790  0.2334 -0.0701  0.1769
 4171W        W19980   5.987   2.610   3.692 -0.2435  0.3697  0.0157
 4172W        W19981  15.649   7.004  11.340 -0.0571  0.1821  0.1285
 4173W        W19982   8.268   4.685  12.311  0.0778 -0.2649  0.2105
 4174W        W19983  12.780  15.222  11.991  0.0250 -0.0694 -0.2039
 4175W        W19984   1.118  16.625   3.050  0.1548 -0.0369  0.3151
 4176W        W19985  10.379   8.669   4.013  0.2122 -0.1175 -0.1075
 4177W        W19986  16.839  14.373   2.025  0.2272 -0.0519 -0.2780
 4178W        W19987   7.190   1.223   3.352  0.2167  0.3047  0.0446
 4179W        W19988  18.228   9.032  13.916  0.0924  0.1569 -0.1308
 4180W        W19989  17.512  15.087  11.677 -0.0095  0.1703  0.0083
 4181W        W19990  14.198   4.831  11.173 -0.1819 -0.0564 -0.1361
 4182W        W19991   1.773  14.827  12.359  0.0615  0.0025 -0.0358
 4183W        W19992   8.799   4.051  11.629 -0.1337  0.1639 -0.2446
 4184W        W19993   0.441  16.443  11.116  0.0122 -0.0625 -0.1715
 4185W        W19994   8.193   9.310   2.804  0.3249  0.0091  0.0211
 4186W        W19995   9.378  16.104  11.925  0.2539 -0.1110 -0.3152
 4187W        W19996  11.330  17.231  11.786 -0.2485  0.0175  0.1095
 4188W        W19997   4.697  15.825   4.196  0.0491 -0.2260 -0.4023
 4189W        W19998  13.211  12.956  14.853 -0.0576  0.0053 -0.0801
 4190W        W19999   2.673   7.384   4.043 -0.0617 -0.1740  0.0641
 4191W        W20000  12.536   6.755   5.417  0.2323 -0.0957 -0.0488
 4192W        W20001  15.595   3.420  13.891 -0.0876 -0.2785 -0.1657
 4193W        W20002  10.479  14.493   1.549 -0.1303 -0.0265  0.0522
 4194W        W20003  10.365   4.167  10.470  0.3995  0.2719  0.3855
 4195W        W20004   1.108   8.493   2.311  0.2525 -0.1148  0.1488
 4196W        W20005  14.815  11.849  13.408  0.1122  0.3515 -0.2195
 4197W        W20006   5.273   5.364   3.993 -0.0320 -0.1104 -0.6210
 4198W        W20007   1.319  16.318   4.039 -0.2438 -0.1466 -0.2769
 4199W        W20008   1.192   5.623   0.006 -0.0010 -0.0138  0.4785
 4200W        W20009  15.725   2.704  12.149 -0.1396 -0.0531  0.4416
 4201W        W20010   9.199  11.981  15.816 -0.0114 -0.0955 -0.0872
 4202W        W20011   3.649  16.186   3.897  0.5312  0.1848  0.1232
 4203W        W20012  14.757   1.412   3.662 -0.0352  0.0296  0.1336
 4204W        W20013   8.409  16.948   0.953 -0.2278 -0.0702  0.0008
 4205W        W20014   6.649   2.620   0.559 -0.5514 -0.3823  0.0049
 4206W        W20015  11.981   9.498  12.361 -0.1353  0.2175  0.3112
 4207W        W20016   3.285  13.301  11.058 -0.1475 -0.2319  0.0976
 4208W        W20017   1.501   7.195   4.967  0.1299  0.1199 -0.1564
 4209W        W20018   1.023  11.722   4.603  0.2236 -0.0511 -0.1621
 4210W        W20019  14.165   2.960  15.353 -0.2071  0.0267  0.2094
 4211W        W20020   9.341  14.960   2.716  0.1177 -0.0652  0.0162
 4212W        W20021   2.999  16.195  14.252 -0.0249 -0.5389  0.1213
 4213W        W20022   2.772   8.380  14.866 -0.0086 -0.2775 -0.0114
 4214W        W20023   9.497   1.434  13.418  0.0423  0.1507  0.2317
 4215W        W20024   7.529  16.414  15.245 -0.1659  0.0893 -0.1503
 4216W        W20025  15.677  17.767  14.726  0.1714 -0.1248 -0.3371
 4217W        W20026  11.809   7.918  15.756  0.1391  0.0198  0.1381
 4218W        W20027  15.171   6.374  14.252 -0.3868 -0.3760  0.0844
 4219W        W20028   2.565  12.761  15.414 -0.0131  0.2280 -0.3048
 4220W        W20029  16.140   6.719   6.058  0.0221 -0.0862  0.0461
 4221W        W20030  10.051   9.458   0.945  0.1490  0.4397 -0.0896
 4222W        W20031   0.587   3.316   1.203  0.0738  0.1692 -0.1661
 4223W        W20032   3.399   3.436   3.510  0.1430  0.0526  0.0291
 4224W        W20033  14.458   4.820   2.625 -0.0359  0.0863 -0.1363
 4225W        W20034  13.972   3.403  12.985 -0.0923 -0.0251 -0.2333
 4226W        W20035  12.318   7.673   4.197  0.0098  0.4858 -0.0204
 4227W        W20036   4.216  10.887  14.973 -0.0305  0.1459 -0.3565
 4228W        W20037   3.283   5.211  13.893  0.0785 -0.1467 -0.0770
 4229W        W20038   9.131   3.975   0.969 -0.1573  0.1304 -0.1495
 4230W        W20039   2.019   3.786  14.037  0.1425  0.3780  0.2291
 4231W        W20040   0.789   6.403  14.096 -0.3281  0.1711  0.4852
 4232W        W20041   0.851  13.130  12.955 -0.4926 -0.1010 -0.0637
 4233W        W20042  10.467  12.616  14.214 -0.1338  0.0664 -0.1353
 4234W        W20043   5.218   3.721   3.473 -0.0444  0.0950 -0.0188
 4235W        W20044  17.635  16.218   0.204 -0.0441 -0.3424 -0.2100
 4236W        W20045   8.412   8.133  11.702 -0.2460  0.3081  0.3026
 4237W        W20046  16.575  17.261   5.112 -0.1039 -0.1305  0.0573
 4238W        W20047   8.776  12.843   3.412 -0.0862 -0.0801 -0.1561
 4239W        W20048  13.212  12.881   0.912 -0.1872  0.0581  0.0279
 4240W        W20049  11.864   7.699  10.738  0.1106 -0.2373  0.0453
 4241W        W20050   3.524  10.707   1.274  0.1301 -0.2248  0.0640
 4242W        W20051   7.014  11.685  14.222 -0.0343 -0.4106 -0.2585
 4243W        W20052  14.800   7.394  13.597 -0.0629 -0.0573  0.3631
 4244W        W20053   5.978   0.408   5.527 -0.1903  0.0812  0.1823
 4245W        W20054  13.196   4.813  14.534  0.2836 -0.1355  0.3170
 4246W        W20055   0.371   0.707  10.037 -0.0398 -0.0067 -0.1696
 4247W        W20056   9.794   5.329  14.877  0.1335 -0.1098  0.3150
 4248W        W20057   0.803   4.617   5.262 -0.0718  0.2551 -0.3317
 4249W        W20058  15.815   9.401   0.423  0.0422 -0.2181  0.0087
 4250W        W20059  11.075  17.203   3.885  0.1044 -0.0710 -0.1700
 4251W        W20060   5.578   5.381  10.578  0.0399  0.1263  0.1051
 4252W        W20061   7.010   5.855  13.244 -0.3694  0.0969  0.3140
 4253W        W20062   1.071   6.719   2.643  0.2475 -0.1726  0.2496
 4254W        W20063  16.592   7.021   0.797  0.0858  0.1650  0.1072
 4255W        W20064  17.509   8.405   3.268  0.0552  0.1311  0.0373
 4256W        W20065  15.798   0.882   5.135  0.1264  0.0441  0.0008
 4257W        W20066  13.687   9.586  13.497 -0.2573 -0.3082  0.3434
 4258W        W20067  11.943   3.267  11.983  0.1643  0.2045 -0.2090
 4259W        W20068  15.626  13.988   2.669 -0.1281  0.3523 -0.1005
 4260W        W20069   4.043   7.540   5.459 -0.0063  0.1167 -0.1551
 4261W        W20070   7.410  11.886   2.265 -0.1273 -0.1828  0.0204
 4262W        W20071  18.099   5.163   3.872  0.2241  0.3682  0.0352
 4263W        W20072  18.110  12.184  12.802 -0.0362 -0.2668 -0.3990
 4264W        W20073   9.573   0.811   4.727  0.1538  0.2997  0.1314
 4265W        W20074   3.568  11.124   1.655 -0.1219  0.0934  0.0119
 4266W        W20075  15.837   8.904   0.399  0.2663 -0.0716  0.0558
 4267W        W20076   4.673  12.995  11.798 -0.1267 -0.1713 -0.1133
 4268W        W20077  17.551   7.778  13.599  0.0352  0.2496 -0.1321
 4269W        W20078   9.365   8.649  15.430 -0.1874 -0.0041 -0.0921
 4270W        W20079   1.706   5.475   3.373 -0.3795 -0.0800 -0.1082
 4271W        W20080   9.093  15.882   4.947 -0.1463 -0.1813 -0.1165
 4272W        W20081  17.742   7.740   1.794  0.1047  0.2131 -0.2886
 4273W        W20082   9.556  13.148  10.685  0.2494 -0.2067  0.2361
 4274W        W20083   1.584   8.903  11.819  0.1179 -0.1730 -0.2406
 4275W        W20084   1.146  14.372  15.310 -0.0414  0.2224 -0.0486
 4276W        W20085  16.749  13.552   5.213  0.3957 -0.0163 -0.1624
 4277W        W20086  16.989  10.732   1.457  0.1849 -0.4759  0.1169
 4278W        W20087  18.250  15.578   0.461  0.1170  0.0741  0.1241
 4279W        W20088   6.934  12.821  15.183 -0.2246 -0.2645  0.0591
 4280W        W20089   6.892  10.276  11.212 -0.0205 -0.0967 -0.1739
 4281W        W20090   5.367   1.344  13.709 -0.1595  0.1029 -0.2801
 4282W        W20091  17.638   3.406  15.412 -0.3155 -0.0894  0.2930
 4283W        W20092   3.642   0.892   0.217 -0.0230 -0.5503  0.1336
 4284W        W20093   7.021  11.165  12.425  0.0181 -0.2091  0.1185
 4285W        W20094   8.085  10.364   4.213 -0.4515  0.1970  0.0448
 4286W        W20095   3.490   5.990  10.834  0.0027  0.0192 -0.3679
 4287W        W20096   7.396   6.662  14.243  0.0811  0.1090 -0.1920
 4288W        W20097  10.190   3.772  11.402  0.1201 -0.0485 -0.2529
 4289W        W20098  13.214  16.264   1.721 -0.1835  0.2491  0.1691
 4290W        W20099  14.695   0.991   2.143  0.1083  0.2129  0.2042
 4291W        W20100   7.319   0.826   2.464 -0.1150 -0.0424 -0.1511
 4292W        W20101   9.282  11.875   5.431  0.0650  0.4860 -0.1814
 4293W        W20102   8.142  11.936   3.028 -0.2896  0.1202 -0.0550
 4294W        W20103  12.910  16.281   2.196  0.0775 -0.2707  0.2535
 4295W        W20104  13.254  11.142  13.079  0.2013 -0.4982 -0.1161
 4296W        W20105   0.565   9.648  15.654  0.0046  0.0673  0.1564
 4297W        W20106   1.930  18.147   4.187 -0.0009 -0.0540  0.2082
 4298W        W20107  14.205   0.336  13.791 -0.2092  0.0385 -0.1165
 4299W        W20108  10.496   5.311  14.449  0.0374  0.3911 -0.1946
 4300W        W20109   1.214   5.246   0.313 -0.0705  0.1015  0.1961
 4301W        W20110   8.882   0.456   5.691 -0.1161 -0.1544 -0.1420
 4302W        W20111   1.894   0.148  15.828 -0.0346  0.0550  0.0960
 4303W        W20112  13.199   7.151  15.594  0.1331  0.0387  0.1441
 4304W        W20113   5.072   8.901  12.294  0.1811  0.1211 -0.0263
 4305W        W20114   3.495  15.363   2.096 -0.1865 -0.2029  0.1757
 4306W        W20115  11.095   9.527   2.441  0.3949  0.5397 -0.0799
 4307W        W20116   8.230   6.982  13.300 -0.2781  0.0016  0.1586
 4308W        W20117  11.017  12.503  13.639 -0.0855 -0.0076 -0.1135
 4309W        W20118  15.532   8.793  13.112 -0.0477  0.1978 -0.2791
 4310W        W20119   8.455  13.608  14.861 -0.0583 -0.2727 -0.1528
 4311W        W20120  13.265  14.423  10.872 -0.2142 -0.2569 -0.1589
 4312W        W20121  17.472  16.981   1.678  0.1063 -0.0781 -0.0040
 4313W        W20122   3.158   8.333  15.280  0.0653  0.0607  0.2101
 4314W        W20123   9.667  14.620   1.468  0.0367 -0.0585 -0.0845
 4315W        W20124   5.172  10.114  13.053  0.3031  0.1922 -0.0287
 4316W        W20125   3.619   7.201  13.807 -0.1592 -0.3928 -0.0740
 4317W        W20126  10.772  12.614  15.569 -0.1728  0.0422  0.1102
 4318W        W20127   2.712  13.301   0.549 -0.3430  0.3339 -0.1043
 4319W        W20128   7.922  16.663  13.175  0.0510  0.2161  0.1254
 4320W        W20129   0.307  11.186  15.598 -0.1863  0.3523 -0.0996
 4321W        W20130   1.957  13.674  15.103 -0.1250  0.2800  0.1235
 4322W        W20131   9.230   3.194   2.804 -0.1423 -0.0278  0.1746
 4323W        W20132   2.253  16.712   4.175 -0.0887  0.0605 -0.2262
 4324W        W20133   7.999  15.429  10.000 -0.1759  0.1776 -0.1734
 4325W        W20134  14.442  11.687   3.592  0.1770  0.1771  0.0102
 4326W        W20135   7.464  15.842  13.022 -0.0650  0.3053  0.1959
 4327W        W20136   6.640   6.551   3.623  0.1695  0.0739 -0.1334
 4328W        W20137  14.213   4.147   5.199  0.1173  0.1667 -0.2451
 4329W        W20138   8.858  13.484   4.480 -0.1435  0.1660 -0.2904
 4330W        W20139   1.833   2.844  14.693 -0.2201  0.2063  0.0429
 4331W        W20140   6.130   9.961   0.998  0.2797  0.3347  0.2338
 4332W        W20141   7.387   9.619  11.693  0.0316 -0.2161  0.2420
 4333W        W20142   4.357   4.952  12.394 -0.1807  0.3634 -0.0370
 4334W        W20143  17.518  10.042  11.948 -0.0183 -0.2279  0.1368
 4335W        W20144  18.303   2.399  15.377 -0.1875  0.0260  0.1124
 4336W        W20145   6.612   0.838  14.490  0.3295 -0.3134  0.1677
 4337W        W20146   6.389   2.470   4.705 -0.0233  0.1307  0.0453
 4338W        W20147   1.226   9.036  12.186  0.0658  0.4166  0.1770
 4339W        W20148  14.603   6.791  11.807  0.3399 -0.2365 -0.0329
 4340W        W20149  16.160   9.170  12.648  0.1722  0.0644 -0.6555
 4341W        W20150  14.611  10.063   5.713 -0.0177 -0.1792  0.1334
 4342W        W20151   8.185  16.699  12.333 -0.0911 -0.1144 -0.0559
 4343W        W20152  16.806  14.025  10.952  0.4491  0.1188  0.0151
 4344W        W20153   1.304  12.918   3.852  0.1524  0.1239 -0.1419
 4345W        W20154   5.716  12.372  12.369  0.1646  0.2178 -0.1447
 4346W        W20155  13.867  16.107   4.878  0.1725  0.1721 -0.2175
 4347W        W20156   4.326   3.347  13.975  0.1593  0.0177  0.2359
 4348W        W20157  10.210   4.133   2.403 -0.2872 -0.0188 -0.1398
 4349W        W20158   0.098  10.111   3.317  0.1908 -0.1300  0.0738
 4350W        W20159   0.838   4.683   4.012 -0.3483 -0.3182  0.0497
 4351W        W20160   8.128  14.311   5.887  0.1012  0.1789  0.3534
 4352W        W20161  18.039   3.594  15.716  0.1186 -0.0752  0.1529
 4353W        W20162   9.169  10.606   3.186  0.5946  0.0392  0.1413
 4354W        W20163  12.807  17.300  12.997 -0.0889 -0.0325 -0.1310
 4355W        W20164   6.615   9.480   1.927  0.0840  0.1163 -0.0871
 4356W        W20165   9.499   9.674   2.701 -0.0570  0.2999  0.1771
 4357W        W20166   6.079  13.695  12.231 -0.0721  0.0874  0.0203
 4358W        W20167   6.411   7.929  14.439 -0.0631 -0.0365 -0.1799
 4359W        W20168  14.245   5.927  11.574  0.0832  0.1202 -0.1987
 4360W        W20169   0.898   8.687   5.110  0.2172  0.2471 -0.2670
 4361W        W20170   2.809   0.946  11.018  0.1032 -0.0797 -0.0178
 4362W        W20171   6.409  18.001  11.562 -0.0166 -0.0243  0.0957
 4363W        W20172  16.343   8.698  11.950  0.1763  0.2081  0.4319
 4364W        W20173   7.194  12.062   1.143 -0.2231 -0.4954  0.0260
 4365W        W20174   8.449  15.497  11.939 -0.3103  0.1756  0.1982
 4366W        W20175  13.567   6.135  11.898  0.2164  0.0377 -0.2556
 4367W        W20176  12.070  13.117   5.709 -0.0561  0.1742  0.0707
 4368W        W20177  11.988   3.946   3.031  0.0981  0.1295 -0.1821
 4369W        W20178  16.360   0.677   3.662 -0.1900  0.1431  0.1894
 4370W        W20179  15.075   3.340  15.811 -0.4335 -0.3841 -0.2472
 4371W        W20180   5.559  16.576   1.594 -0.2879 -0.2355  0.2743
 4372W        W20181  11.016   2.315   2.362  0.1529  0.0124  0.2257
 4373W        W20182   2.316  16.157   5.104  0.0955  0.0937  0.2480
 4374W        W20183   0.340  15.141  15.557 -0.1920 -0.1092  0.1647
 4375W        W20184  16.541  12.642  12.175  0.0557 -0.3137 -0.3028
 4376W        W20185  12.527   1.868  15.100  0.3004 -0.2846  0.1749
 4377W        W20186   6.217  16.186  15.694  0.0811  0.0396  0.1171
 4378W        W20187   7.622  18.153  10.626 -0.0152  0.1520 -0.2476
 4379W        W20188   7.330   6.606  11.459  0.0320 -0.3553 -0.1526
 4380W        W20189  12.138   7.297   2.145  0.1186 -0.1053 -0.0051
 4381W        W20190  11.952  12.016  14.579  0.0656  0.1000 -0.1418
 4382W        W20191  11.601   2.441  12.379  0.3145  0.0158  0.0203
 4383W        W20192  18.002   5.662  10.672  0.0171  0.0450  0.2703
 4384W        W20193  15.661  15.765   2.346 -0.0219 -0.1373  0.2037
 4385W        W20194  18.089   9.907   3.065  0.0627 -0.3462  0.0129
 4386W        W20195  15.736  16.364   0.532  0.1566 -0.2323 -0.1213
 4387W        W20196   2.441  13.690  14.261 -0.0669  0.0000  0.0241
 4388W        W20197   4.012   5.075  14.314  0.1422  0.2130 -0.1056
 4389W        W20198   4.642   7.338   2.635 -0.1116  0.1451  0.1138
 4390W        W20199   0.197  17.383  14.877 -0.2073  0.1027  0.3555
 4391W        W20200  17.200  15.933   4.278 -0.2434 -0.0709  0.0288
 4392W        W20201  16.722  17.343  12.288 -0.1664 -0.0881 -0.1914
 4393W        W20202   2.614  11.771   2.795 -0.1214 -0.4290  0.0438
 4394W        W20203  11.396  16.324   6.052 -0.0814  0.2772  0.1137
 4395W        W20204   3.194   9.641   4.237 -0.3006  0.2390 -0.0128
 4396W        W20205  10.267  10.433  11.778  0.1586 -0.1569 -0.2740
 4397W        W20206   9.331  15.356   4.423  0.2132  0.2728  0.1403
 4398W        W20207  13.327   9.032   3.773  0.0999  0.1613  0.3742
 4399W        W20208  12.763   5.503  14.973  0.1565  0.2230 -0.0745
 4400W        W20209  13.070  15.613  13.355  0.0623 -0.1725 -0.1818
 4401W        W20210  17.299   9.469   2.241 -0.3743  0.3778 -0.1601
 4402W        W20211   2.106  15.403   5.376  0.0537  0.1063 -0.0343
 4403W        W20212   0.233   9.897   0.173  0.2734  0.1725 -0.1041
 4404W        W20213   1.502   1.354   4.173 -0.0280  0.2207 -0.1001
 4405W        W20214   2.368   3.779   3.522 -0.4266 -0.1336  0.1796
 4406W        W20215  11.696  17.036  12.096 -0.0881 -0.0860  0.1435
 4407W        W20216   9.113   6.780   3.273 -0.2794  0.1535  0.1312
 4408W        W20217  12.427   0.095   4.722  0.1854  0.1023 -0.0113
 4409W        W20218  17.497   3.124  11.637 -0.0488  0.2112 -0.0089
 4410W        W20219  15.224   5.724   5.144  0.0484 -0.0543 -0.2275
 4411W        W20220  13.054  10.206   4.771  0.0052  0.0156  0.0791
 4412W        W20221   4.695   2.261   0.825  0.2643 -0.0784  0.0038
 4413W        W20222   2.362   1.098  13.504 -0.0008  0.0672 -0.1578
 4414W        W20223   6.986   6.598   3.960 -0.4064 -0.1976 -0.1323
 4415W        W20224   6.839   0.358  13.424 -0.0629  0.0373 -0.0313
 4416W        W20225  13.936  10.394  15.628 -0.0408  0.1585  0.2070
 4417W        W20226  10.766   7.749  12.838  0.3175  0.0453 -0.0033
 4418W        W20227  12.424   2.561   2.289  0.1663 -0.0016  0.2158
 4419W        W20228   2.605   7.944   5.731  0.0957 -0.1144  0.2663
 4420W        W20229  12.686  11.850   1.669 -0.0943 -0.2531  0.1379
 4421W        W20230  10.582  14.441   4.577  0.0438 -0.4527  0.1583
 4422W        W20231   6.005   9.836   0.524 -0.4084 -0.0542 -0.4131
 4423W        W20232  14.644  17.866  13.996  0.2250 -0.3657  0.2071
 4424W        W20233  12.067   4.879  12.891  0.4267  0.1891  0.0838
 4425W        W20234  12.733   1.485  12.090 -0.1132 -0.0429  0.1407
 4426W        W20235   9.065   9.335   1.166  0.2171 -0.0163  0.1759
 4427W        W20236  15.071  16.654   4.080 -0.1833 -0.2173 -0.2983
 4428W        W20237  10.276   8.794  14.657 -0.1159 -0.3935 -0.1039
 4429W        W20238  14.504   7.046   4.524  0.1916 -0.0971 -0.2136
 4430W        W20239   7.031   1.433  12.351 -0.0658  0.0802 -0.2845
 4431W        W20240   1.454   3.443  12.466 -0.0362  0.1226  0.1177
 4432W        W20241  16.035   6.492   1.778  0.0426  0.0650  0.0088
 4433W        W20242   8.564   5.826  12.979 -0.0998  0.0160  0.2525
 4434W        W20243   8.451  18.360  11.612 -0.2504 -0.0567  0.1372
 4435W        W20244   4.906  14.054   5.034  0.1062  0.1915  0.0487
 4436W        W20245  16.268  10.564  11.005  0.0340  0.0344  0.0265
 4437W        W20246   2.000   7.546   1.722 -0.0180  0.2459  0.0340
 4438W        W20247  14.304  10.148  13.126 -0.3029  0.2530  0.1909
 4439W        W20248   1.784   7.215   2.183  0.0309 -0.0296  0.2603
 4440W        W20249   4.923   2.559   3.390  0.3516  0.1055 -0.1739
 4441W        W20250   9.707  11.546  15.067  0.0635  0.0552  0.0060
 4442W        W20251   1.144   6.390   5.774  0.2053  0.1485 -0.2957
 4443W        W20252  15.958  15.852   1.412  0.2632 -0.1465 -0.0545
 4444W        W20253  17.501   7.336   5.695 -0.0374 -0.2055 -0.0426
 4445W        W20254  10.134  14.906   1.436 -0.0415  0.0532 -0.0259
 4446W        W20255   8.424  10.481  12.916 -0.1077 -0.0514  0.0194
 4447W        W20256   1.782   3.860   4.686 -0.0858  0.0219  0.2133
 4448W        W20257   3.390  11.334   0.462  0.2039  0.0668 -0.0540
 4449W        W20258   7.620  11.257   4.028 -0.2086 -0.0557  0.0158
 4450W        W20259   8.994  14.833  15.562  0.1918 -0.1772 -0.0849
 4451W        W20260   1.913  14.752   4.183  0.6078 -0.1996  0.2584
 4452W        W20261   8.440  14.348   1.789  0.1437  0.1492 -0.3946
 4453W        W20262  12.141   5.862   3.244 -0.2213 -0.0078  0.2566
 4454W        W20263  17.846   0.029  12.177  0.3497  0.1894 -0.0312
 4455W        W20264   3.839  16.470  14.644  0.1516  0.0860 -0.0926
 4456W        W20265  14.303   6.822  13.340  0.2497 -0.2465 -0.1010
 4457W        W20266  14.168  17.184  11.724  0.1670 -0.0924  0.3111
 4458W        W20267  15.388  10.458  11.121  0.1896 -0.0746 -0.4145
 4459W        W20268   4.815   1.013   1.488  0.1026 -0.0049 -0.2817
 4460W        W20269  11.135  13.612   1.161  0.1895  0.3966 -0.0550
 4461W        W20270   1.437   0.494   4.197 -0.1708 -0.3546 -0.3787
 4462W        W20271  15.582   6.106  11.234  0.2595  0.0532 -0.4635
 4463W        W20272   7.092  10.941  14.156  0.1196  0.1388 -0.0403
 4464W        W20273  13.185  12.838   1.950 -0.1182  0.1804 -0.1832
 4465W        W20274   3.980   3.249  12.952  0.1750  0.4839  0.2019
 4466W        W20275   8.938   3.131   4.215  0.1869 -0.0652  0.1238
 4467W        W20276   3.375  12.983   1.850  0.1715 -0.1320  0.0666
 4468W        W20277   2.606   1.728   4.702  0.0876 -0.1352  0.0371
 4469W        W20278   7.136  15.799  11.811  0.0880 -0.2025 -0.2096
 4470W        W20279   3.241  17.183   1.361  0.3630 -0.1108  0.2200
 4471W        W20280   6.309   5.088  15.479 -0.4507 -0.0722  0.1217
 4472W        W20281   3.701   6.404  14.324 -0.1227 -0.2517  0.1247
 4473W        W20282  16.872   9.812  15.623  0.2230 -0.1703 -0.1205
 4474W        W20283  12.590  12.326   0.108  0.2179  0.0779  0.1112
 4475W        W20284  12.787   5.259   3.337 -0.1029  0.2511 -0.0777
 4476W        W20285  17.731   1.508  14.418  0.0721  0.1822  0.1156
 4477W        W20286  10.754   9.665  15.213 -0.3360 -0.0267 -0.3281
 4478W        W20287   2.520   9.664  12.694  0.0817 -0.2418  0.1855
 4479W        W20288   4.728  11.710  14.154 -0.0007 -0.0645 -0.0856
 4480W        W20289  13.784  18.286  14.694  0.2697  0.1218 -0.0867
 4481W        W20290  10.118  14.341  13.568  0.2051 -0.2542  0.0665
 4482W        W20291   0.504   8.947   1.569 -0.0196 -0.1877 -0.3132
 4483W        W20292   3.734   0.459  14.702 -0.1095 -0.2104 -0.0425
 4484W        W20293   5.183   2.035   1.657 -0.0886  0.1542  0.1499
 4485W        W20294  12.448  12.783  12.144  0.3334 -0.1444 -0.0440
 4486W        W20295  17.835  10.384  14.340  0.1089 -0.0149  0.1894
 4487W        W20296   6.849  14.649   0.926 -0.3870  0.0600  0.2535
 4488W        W20297   6.024   0.258   2.772 -0.0153  0.0692  0.1922
 4489W        W20298   8.973  11.910   3.327  0.3876 -0.1202  0.0159
 4490W        W20299   2.330   0.502   2.091  0.2216  0.2286  0.0327
 4491W        W20300  13.050  17.084  10.719 -0.2052 -0.2410 -0.0013
 4492W        W20301   4.418   9.050  11.833  0.0211 -0.1278  0.0484
 4493W        W20302  13.302   9.197   3.244 -0.1277 -0.0431 -0.1545
 4494W        W20303   1.813  11.322  11.012 -0.1456  0.1505  0.0427
 4495W        W20304  13.041   9.789   2.448  0.1393 -0.0717 -0.1999
 4496W        W20305  12.199   7.318  13.810  0.0974 -0.0474  0.2270
 4497W        W20306   1.347   4.497   3.915  0.1496  0.1395 -0.2105
 4498W        W20307   2.688  13.298  14.391 -0.3334 -0.0138 -0.1331
 4499W        W20308   7.350  12.852   5.840  0.0554  0.0520  0.0056
 4500W        W20309  15.457  12.721  12.857 -0.0907 -0.0851 -0.3260
 4501W        W20310  10.248  11.728   0.528  0.1330 -0.0662  0.1819
 4502W        W20311   4.083  11.327   5.006  0.0454 -0.0020 -0.2362
 4503W        W20312  10.921   4.618  15.785 -0.0584  0.0270 -0.0729
 4504W        W20313   9.356  10.211  13.874 -0.0085  0.0792 -0.3151
 4505W        W20314   2.999   2.743   0.665  0.1774 -0.0908  0.3992
 4506W        W20315  11.148   0.142   1.687 -0.0940 -0.3056 -0.0138
 4507W        W20316  15.568  16.994   3.482  0.1081 -0.1334  0.2293
 4508W        W20317   0.554   7.377   2.289 -0.0370 -0.2745 -0.2972
 4509W        W20318  16.173  11.859  15.490  0.0720 -0.0449 -0.0653
 4510W        W20319  18.375   1.249   1.979 -0.1197  0.1729  0.1079
 4511W        W20320  17.515   7.453   4.178 -0.1679  0.0432  0.0788
 4512W        W20321   6.425   5.798  11.973  0.3741  0.0640  0.1846
 4513W        W20322   0.819   5.778   4.244  0.1763 -0.0224  0.2545
 4514W        W20323   0.545   2.313  15.180 -0.1577  0.1454  0.1543
 4515W        W20324   7.370  15.544  12.149 -0.1229 -0.2352  0.0951
 4516W        W20325  15.275  17.379  15.037 -0.0879 -0.4785 -0.0326
 4517W        W20326   7.791  17.718  14.286  0.0050 -0.0542 -0.0352
 4518W        W20327  14.936  13.956   4.577 -0.0035  0.0774  0.3088
 4519W        W20328  12.988   2.786  12.139 -0.1915 -0.1660 -0.1931
 4520W        W20329   1.177  11.058  12.293  0.1575 -0.0193  0.0064
 4521W        W20330   5.696  15.326  14.601 -0.1714 -0.3383  0.0299
 4522W        W20331   3.550   1.858   3.615 -0.0096  0.0641 -0.2645
 4523W        W20332   5.600  13.662  11.350 -0.1007 -0.0698  0.0460
 4524W        W20333   4.034   7.208  12.450  0.1914  0.0100  0.2616
 4525W        W20334   0.752  16.874  13.448  0.1611  0.3077  0.0637
 4526W        W20335  14.156  14.029  10.705  0.1450  0.2111 -0.1840
 4527W        W20336  17.914   5.303   0.429 -0.1087  0.0804  0.1157
 4528W        W20337  18.292  14.770   0.154  0.0641 -0.3096 -0.0473
 4529W        W20338   7.190  17.776   1.636 -0.0796 -0.0571 -0.1262
 4530W        W20339   1.030  15.279   3.077  0.0578 -0.1092  0.1266
 4531W        W20340  18.358  14.732  10.127  0.1981  0.0334 -0.1481
 4532W        W20341   5.417   0.554   3.384  0.0959  0.0681 -0.0074
 4533W        W20342  13.202   7.857   2.965  0.0421  0.0699  0.0891
 4534W        W20343  16.943   8.101   0.022 -0.0622 -0.0402  0.1012
 4535W        W20344  16.323  12.355  15.179 -0.0237  0.0902 -0.0909
 4536W        W20345   6.710  12.968  12.193 -0.3026  0.0003  0.1234
 4537W        W20346  13.413  10.359   3.610  0.2761  0.1623  0.1004
 4538W        W20347   6.107   2.286  15.537 -0.0837  0.1501 -0.0398
 4539W        W20348   5.155   2.389  14.567 -0.1977  0.0011 -0.1256
 4540W        W20349   7.767   0.917  12.830 -0.1124  0.1310  0.0385
 4541W        W20350   8.953  14.159   5.045 -0.0633  0.0425  0.2761
 4542W        W20351   5.749  16.218   1.349 -0.0453  0.1117 -0.0165
 4543W        W20352  15.437   4.345   2.068  0.0011 -0.1960 -0.0945
 4544W        W20353  11.808  12.662   0.805 -0.1010 -0.0655 -0.2209
 4545W        W20354   8.284  15.777  12.597  0.1933  0.2210 -0.0436
 4546W        W20355  15.275  10.751   0.781  0.0026  0.0334 -0.1006
 4547W        W20356   9.900  12.630  11.849  0.0674 -0.1950 -0.2785
 4548W        W20357   1.888  16.636  14.891  0.0298 -0.1626  0.1069
 4549W        W20358  14.267  14.387  13.822  0.0621  0.0756 -0.0046
 4550W        W20359  13.913  11.503  12.431 -0.0790 -0.1611  0.2562
 4551W        W20360  12.862  16.289   5.557 -0.1757 -0.0339  0.1957
 4552W        W20361  11.042  13.433   0.116  0.2772  0.0982 -0.1907
 4553W        W20362   7.953   1.830  11.923 -0.0579 -0.2145 -0.1197
 4554W        W20363   7.001   8.179  14.965  0.2569 -0.0179  0.1359
 4555W        W20364   2.141   6.667   0.253  0.0835 -0.0895  0.2381
 4556W        W20365  13.627   2.221  12.756 -0.1985  0.5858 -0.0557
 4557W        W20366   1.518  16.184   3.287  0.0218 -0.0570  0.1237
 4558W        W20367   9.314  16.650  14.330  0.1029  0.2944 -0.0999
 4559W        W20368   9.143   6.655  11.684 -0.0911 -0.1370  0.3297
 4560W        W20369  16.599  14.615  14.655  0.2051  0.1189  0.1427
 4561W        W20370   0.423   5.257  10.721  0.0734 -0.1278  0.0313
 4562W        W20371   8.409  16.870   0.074 -0.2940  0.0388  0.3513
 4563W        W20372   3.538   2.009  11.099  0.1806 -0.0621  0.1011
 4564W        W20373  10.611  18.151  14.322  0.1900 -0.1079  0.0977
 4565W        W20374  12.965   9.194  10.990  0.1627  0.1225  0.0219
 4566W        W20375   5.454  12.424   0.735  0.1207 -0.0828  0.0336
 4567W        W20376  15.036  14.271   0.426  0.1235 -0.1290  0.2323
 4568W        W20377  18.037   8.063  15.323 -0.0974  0.1599 -0.1951
 4569W        W20378   2.720   7.197  11.800  0.0401  0.1014 -0.1626
 4570W        W20379  14.668   9.448  11.965 -0.0554  0.0871 -0.1836
 4571W        W20380   8.894  18.074  13.531  0.1067 -0.4123 -0.2722
 4572W        W20381  16.824   2.288  14.869 -0.0137  0.2814 -0.3055
 4573W        W20382  15.096   7.043  15.564 -0.0322  0.2000  0.0168
 4574W        W20383  17.353   7.926   3.409  0.1537  0.1291  0.0100
 4575W        W20384   1.545   4.712  13.078 -0.0988 -0.2217  0.2731
 4576W        W20385   0.974   3.349  12.665 -0.0485 -0.1627 -0.3476
 4577W        W20386  15.074   4.164  15.418  0.1271 -0.0201 -0.1983
 4578W        W20387  13.028   1.794  13.713  0.0563 -0.1948 -0.0635
 4579W        W20388   8.477   3.678   1.246 -0.1219 -0.0097  0.1818
 4580W        W20389   8.184   4.394  14.888  0.1041 -0.0952  0.2994
 4581W        W20390  12.006   3.962   1.708 -0.0622 -0.5731  0.1204
 4582W        W20391   2.323   1.247   0.091 -0.0844 -0.2111  0.1010
 4583W        W20392   8.144   3.832  12.488 -0.2550 -0.0549 -0.0867
 4584W        W20393   6.532   1.408  10.647  0.0655  0.1048  0.0013
 4585W        W20394   9.330   3.381  14.217  0.0994 -0.4423 -0.0052
 4586W        W20395   3.240  15.585  13.490  0.0968 -0.3255  0.1171
 4587W        W20396   7.309   9.242   3.257  0.3042  0.0443  0.0360
 4588W        W20397   8.512   4.006   5.240  0.3712 -0.1656 -0.0222
 4589W        W20398  15.177   6.454   2.112 -0.2874 -0.2187 -0.2849
 4590W        W20399  14.956  16.743  12.086 -0.0946 -0.2743  0.0006
 4591W        W20400   0.227   7.389  14.435  0.3113 -0.0411  0.1499
 4592W        W20401  10.322  14.923  14.633  0.1516 -0.0007 -0.0588
 4593W        W20402   4.699  18.144   2.682  0.2161 -0.0955  0.2703
 4594W        W20403  15.088  18.081   1.505 -0.1604 -0.2939 -0.1669
 4595W        W20404   3.824   2.709  12.771 -0.1227 -0.1328  0.1468
 4596W        W20405   6.957   3.208  14.734  0.0877 -0.4293  0.3226
 4597W        W20406  11.580  12.231   1.082  0.1161 -0.0074 -0.2935
 4598W        W20407  12.361   8.390   0.891 -0.2072  0.3326  0.0716
 4599W        W20408  16.895  15.286   1.102 -0.0254 -0.1464 -0.1414
 4600W        W20409  10.983  10.695   0.837 -0.0618  0.1360  0.1959
 4601W        W20410   7.036  14.287  15.668 -0.2388 -0.2953  0.0336
 4602W        W20411   9.608  15.437  15.132 -0.2430 -0.0205  0.2292
 4603W        W20412  16.367   3.983   3.469  0.0738  0.0996  0.1188
 4604W        W20413  17.197  14.217  12.415 -0.0754 -0.0106 -0.4275
 4605W        W20414  17.191   5.701   4.334 -0.1082  0.0622  0.0213
 4606W        W20415  14.436   6.225  13.296 -0.1046 -0.1855 -0.0661
 4607W        W20416   0.885   1.908  13.608 -0.0875 -0.1843  0.0084
 4608W        W20417  12.747   7.597   4.942  0.2326  0.2734  0.0521
 4609W        W20418  16.034   4.286  11.949  0.1142 -0.3449  0.1063
 4610W        W20419   3.509  13.869  14.225  0.0131  0.0731  0.0178
 4611W        W20420  12.640  10.567  15.336  0.3415  0.2345  0.1873
 4612W        W20421   2.951  16.974   1.696 -0.0116 -0.3104 -0.1946
 4613W        W20422   9.247  18.217   3.913 -0.1225 -0.4609 -0.1090
 4614W        W20423   7.189   5.382   3.174  0.2639 -0.0339  0.1504
 4615W        W20424   2.768   3.765  10.737  0.1161 -0.0131  0.1014
 4616W        W20425  15.811  16.745   1.475 -0.2477 -0.2447  0.4494
 4617W        W20426  17.396   8.912   2.496 -0.1133 -0.2929 -0.0723
 4618W        W20427  13.346   8.625   0.777  0.2497 -0.0287  0.0401
 4619W        W20428  14.532   0.700  15.338  0.1769  0.2138  0.0594
 4620W        W20429   8.119   0.082  13.862  0.0944  0.1321  0.1860
 4621W        W20430   7.352   6.283   3.009 -0.0555  0.2284 -0.1977
 4622W        W20431  13.033   0.483  11.356  0.0773  0.1349 -0.1487
 4623W        W20432  13.403  17.245  13.662  0.2874  0.2713 -0.0411
 4624W        W20433  12.142  15.810   5.153  0.1479  0.0867  0.1660
 4625W        W20434   8.203  10.338   1.634 -0.1326  0.2231 -0.0476
 4626W        W20435   0.906  10.172  14.744  0.2543 -0.1294  0.2934
 4627W        W20436  13.466  11.552   2.079  0.0909 -0.2194  0.0018
 4628W        W20437   5.741   8.596  11.079 -0.0833  0.1325  0.1327
 4629W        W20438  13.286   8.849   0.111  0.3465 -0.1261  0.2801
 4630W        W20439   7.959   8.275  14.335  0.2741  0.1270  0.0906
 4631W        W20440  15.729  10.134   3.984  0.2254 -0.0524 -0.0212
 4632W        W20441   4.253   9.475   1.761  0.3430 -0.0311 -0.2201
 4633W        W20442   3.484  10.231   1.061  0.0641 -0.0706  0.2969
 4634W        W20443   3.763   6.992   4.469  0.2381  0.0546  0.0526
 4635W        W20444   1.132  13.692   3.657  0.0722 -0.3048 -0.0337
 4636W        W20445   2.940   3.056  14.363  0.0164 -0.0416  0.3718
 4637W        W20446   9.108   5.431  10.585  0.1615  0.0650  0.2375
 4638W        W20447  15.032   5.719  13.482  0.3560 -0.1526 -0.4326
 4639W        W20448  12.222  13.569   0.984 -0.3074 -0.0562  0.0902
 4640W        W20449  13.991   3.298   2.193  0.3359 -0.2909  0.1296
 4641W        W20450  10.854   1.050  10.827  0.1027 -0.1347 -0.0803
 4642W        W20451   4.469  11.931  13.789 -0.1796  0.2735 -0.0241
 4643W        W20452  10.273  15.413   1.178  0.2442  0.0120 -0.0047
 4644W        W20453   2.818  17.416   1.507  0.0161  0.1933 -0.0061
 4645W        W20454   1.702   0.660  11.316 -0.1895 -0.0676  0.2304
 4646W        W20455   9.750  10.961   0.221 -0.0772  0.0492 -0.0505
 4647W        W20456  15.892   4.784   2.343  0.0908 -0.4359 -0.0586
 4648W        W20457   0.893  15.728  13.513  0.0529 -0.0291 -0.3650
 4649W        W20458   2.952  14.011  10.702 -0.2135 -0.0933  0.0579
 4650W        W20459   1.542  14.486   3.821  0.2930 -0.0947 -0.2233
 4651W        W20460  14.822   9.968  13.969  0.2872 -0.0174  0.2011
 4652W        W20461   0.677   9.560  10.582  0.0512 -0.0286 -0.0122
 4653W        W20462   0.752   7.253   1.839 -0.1011  0.4320  0.1556
 4654W        W20463   7.347   7.110  13.108  0.2161 -0.1736  0.2500
 4655W        W20464   4.560   1.213   4.174 -0.0315 -0.0399 -0.2566
 4656W        W20465  16.175   1.300   0.403  0.2198 -0.0976 -0.0748
 4657W        W20466   9.342   6.696   0.682  0.0077  0.1374  0.2203
 4658W        W20467  15.464   9.242  14.302  0.0755 -0.0043 -0.0486
 4659W        W20468   7.693   1.592  12.334  0.1768 -0.2171  0.0217
 4660W        W20469  17.750   5.391  13.522  0.0895 -0.0934 -0.2321
 4661W        W20470   0.005   1.661   1.548 -0.0736 -0.4530  0.0700
 4662W        W20471  10.401   0.459  13.209  0.1808  0.4576 -0.0700
 4663W        W20472   7.609   9.745  10.073 -0.0067 -0.1858 -0.0136
 4664W        W20473  11.811  16.252   4.725  0.0015  0.2481 -0.0483
 4665W        W20474  10.091   0.065  12.432 -0.2314  0.1124  0.2332
 4666W        W20475  17.766  17.561   4.315  0.0065  0.2328  0.1709
 4667W        W20476  13.314   5.529  11.357 -0.1022 -0.0838  0.0624
 4668W        W20477   9.114   8.714   3.604  0.0696  0.3156  0.0848
 4669W        W20478   5.411   6.672  15.794  0.2207 -0.3999 -0.1648
 4670W        W20479   6.576   1.564   1.768  0.0932 -0.0829  0.2614
 4671W        W20480   8.737   9.644  12.656  0.0667  0.2497  0.1177
 4672W        W20481   7.473  14.197  14.947 -0.2875  0.0147  0.0444
 4673W        W20482   0.608  13.039  15.347 -0.0524 -0.0673  0.0542
 4674W        W20483   7.620  12.163  14.996  0.0070 -0.0727  0.3305
 4675W        W20484   7.799  16.721   2.829  0.1179  0.0585 -0.0479
 4676W        W20485   3.378  15.454   5.383 -0.1987  0.2846 -0.1412
 4677W        W20486  13.992  11.567   3.745 -0.1049 -0.0721 -0.4022
 4678W        W20487  14.685   4.714  12.817  0.1285 -0.0042 -0.1203
 4679W        W20488   3.147   7.241  12.158 -0.0170 -0.2674 -0.0135
 4680W        W20489   4.510  11.376   3.650 -0.0608 -0.1865  0.1333
 4681W        W20490   5.831   2.391  12.048 -0.0426  0.0077 -0.2908
 4682W        W20491  12.454  15.458  14.460  0.0990 -0.0871 -0.3012
 4683W        W20492   3.168  16.020   1.458 -0.0885  0.2885  0.1205
 4684W        W20493  10.747   7.542  14.860  0.0086  0.1263  0.3673
 4685W        W20494  17.355   6.627   3.263 -0.3012 -0.1358 -0.1365
 4686W        W20495  15.728   9.276  15.822  0.4113  0.1525  0.2121
 4687W        W20496   3.512   9.455  14.549 -0.0352  0.2695 -0.0642
 4688W        W20497   8.406  13.723  11.534  0.0513 -0.1774 -0.0742
 4689W        W20498   6.786   1.618   2.244 -0.3081 -0.2642 -0.0198
 4690W        W20499   9.742   2.824   2.257 -0.2286  0.3996 -0.0296
 4691W        W20500  12.299   1.708  12.181 -0.1622  0.0114  0.1062
 4692W        W20501   4.583  14.717   1.487  0.3666 -0.1553 -0.2269
 4693W        W20502   9.297  14.387  14.531  0.0287  0.1643 -0.2042
 4694W        W20503  16.829   1.319   5.028  0.0215 -0.4235 -0.2508
 4695W        W20504   3.005   2.477   1.336  0.2350 -0.0872  0.0037
 4696W        W20505   0.944   7.103  14.801 -0.0382 -0.2225  0.1265
 4697W        W20506   4.102  10.225  13.418 -0.3881 -0.0638 -0.1327
 4698W        W20507   0.277  10.356   1.415 -0.2594 -0.0753  0.3074
 4699W        W20508  15.570   9.443  13.797 -0.1238 -0.1557 -0.3255
 4700W        W20509   8.113  17.946   4.574 -0.2848 -0.3528 -0.1255
 4701W        W20510  13.623   3.103   1.904 -0.1649  0.2296 -0.1808
 4702W        W20511   8.703  15.436  14.090  0.1257  0.2235 -0.1077
 4703W        W20512   7.151  18.030   4.488  0.1114 -0.0152 -0.0458
 4704W        W20513   0.503   4.569   2.518  0.1533 -0.0286 -0.0919
 4705W        W20514  12.171  16.862   4.193  0.0835  0.0102 -0.1248
 4706W        W20515   7.558  11.094   1.844  0.1418  0.0268  0.1131
 4707W        W20516   5.683   9.142  14.831 -0.0301 -0.0014 -0.2188
 4708W        W20517   7.364  14.046   2.325 -0.0067  0.0838  0.2089
 4709W        W20518  17.075  15.250   0.607  0.1928 -0.2904  0.0993
 4710W        W20519   0.595   7.581   1.380  0.0414  0.1496 -0.1155
 4711W        W20520   7.685   8.082  12.598 -0.2220  0.1246  0.0457
 4712W        W20521   6.712   9.301  11.150  0.1505 -0.0897  0.0235
 4713W        W20522   2.122   5.410  15.399 -0.0496 -0.0549 -0.0847
 4714W        W20523  13.370   3.267   1.486 -0.1859  0.1926  0.2589
 4715W        W20524  15.346   5.505   2.481  0.1054 -0.0295 -0.1378
 4716W        W20525  15.340   1.212  11.335 -0.1747  0.2267  0.0354
 4717W        W20526  17.175   8.227   3.750  0.0454 -0.0374  0.2187
 4718W        W20527  18.000  15.218   0.149 -0.1787 -0.2680  0.1064
 4719W        W20528  13.080  17.214   3.861 -0.2881 -0.0554  0.2529
 4720W        W20529   6.919   4.443  11.290 -0.1609  0.0994  0.1716
 4721W        W20530   0.975   5.278  11.805  0.0066  0.0921 -0.0991
 4722W        W20531   3.919   9.937   4.888  0.2287 -0.0022 -0.1041
 4723W        W20532   8.380   1.463   4.084 -0.1644  0.1453 -0.3985
 4724W        W20533  12.378   4.429   1.106  0.0430 -0.1204 -0.1311
 4725W        W20534  15.466   1.595   5.741 -0.0294 -0.1338  0.2503
 4726W        W20535   8.919   5.370   0.081 -0.0762  0.1620  0.0637
 4727W        W20536   5.997   4.936  13.035 -0.3024  0.0219 -0.0896
 4728W        W20537   3.328  18.152   2.926 -0.0413  0.0743  0.2746
 4729W        W20538   0.236   1.195  13.383 -0.0142  0.1754  0.2280
 4730W        W20539  16.118   5.653   5.099 -0.1926  0.0335  0.1224
 4731W        W20540   8.757   0.206  12.366  0.3154  0.3636 -0.3709
 4732W        W20541  14.250  16.707  11.754  0.1605 -0.3110  0.2958
 4733W        W20542  14.791   3.034   5.102 -0.0491 -0.0549 -0.0634
 4734W        W20543  15.309  13.155  14.186 -0.2526  0.1343 -0.0758
 4735W        W20544   3.271  16.864   3.099 -0.1353 -0.1629  0.0333
 4736W        W20545   7.410  18.202  15.544  0.0843 -0.0274 -0.1377
 4737W        W20546   1.943  18.074  14.546 -0.2833 -0.1950 -0.1039
 4738W        W20547   6.876   6.317  15.194  0.1588 -0.2499 -0.0937
 4739W        W20548   5.034  17.188  13.327  0.2122  0.1453  0.0518
 4740W        W20549  15.166  11.552  15.139  0.3680 -0.0163  0.0124
 4741W        W20550   9.515  17.870  11.112  0.1245  0.1899 -0.3852
 4742W        W20551  16.489  15.473   4.004 -0.2895  0.0764  0.0425
 4743W        W20552   9.125  11.346   3.597 -0.1051 -0.0145 -0.1648
 4744W        W20553  10.349  11.941   3.906 -0.0839  0.1968 -0.1927
 4745W        W20554   5.501   3.241   0.590  0.0095  0.3286 -0.0528
 4746W        W20555   0.062  15.091  11.193 -0.1232  0.1300  0.0441
 4747W        W20556   7.578   4.019   5.717  0.0252 -0.0611 -0.0130
 4748W        W20557  17.310  11.414   4.472  0.1214 -0.0341 -0.0221
 4749W        W20558   5.531   3.038   0.042 -0.0792 -0.1012  0.2295
 4750W        W20559  14.161  18.043  12.124  0.1084 -0.0738 -0.2036
 4751W        W20560   3.427   1.827   2.774 -0.1012  0.0360 -0.1776
 4752W        W20561  10.938   2.689  13.439 -0.0237  0.0754 -0.0854
 4753W        W20562  15.711   0.152  14.639 -0.1871 -0.1491 -0.0919
 4754W        W20563   2.068   9.714  13.023  0.1051  0.0540  0.1793
 4755W        W20564   1.505   2.801  11.357  0.1219  0.1220  0.2625
 4756W        W20565  18.289   8.474   2.923  0.3064 -0.0919 -0.0436
 4757W        W20566   4.375  15.891   6.078  0.0317  0.1854  0.2219
 4758W        W20567  18.314  10.054   1.520 -0.0942  0.0373 -0.3673
 4759W        W20568   0.222  14.810   3.054 -0.1439  0.0156 -0.4868
 4760W        W20569  13.338   0.745  13.282  0.1793  0.2664 -0.0050
 4761W        W20570   7.584   3.798   0.638  0.2157  0.1841 -0.0479
 4762W        W20571   1.180   9.990  13.149 -0.0395 -0.3528  0.0603
 4763W        W20572  17.801  14.836   0.369  0.2273 -0.2083 -0.1660
 4764W        W20573   9.666  15.635  11.175  0.0106 -0.0235 -0.0568
 4765W        W20574  13.956  13.381   0.764 -0.0550 -0.0635  0.4765
 4766W        W20575  15.676  10.483  13.792 -0.1773  0.0862  0.1937
 4767W        W20576  10.397   0.067  12.869 -0.1580 -0.2831 -0.0742
 4768W        W20577   5.347  10.022   5.186  0.1766  0.1790  0.2889
 4769W        W20578  14.805   0.097  11.899 -0.2517  0.0950  0.3029
 4770W        W20579  15.071  14.542   2.955  0.3474  0.1962  0.2947
 4771W        W20580   7.423   0.088   3.216 -0.0598  0.1075 -0.2080
 4772W        W20581  11.362   7.375  14.764 -0.0974  0.0271  0.0071
 4773W        W20582   4.153  10.431  13.864  0.0964  0.3693  0.0384
 4774W        W20583  17.115  10.124  11.513  0.2369 -0.2169  0.1864
 4775W        W20584  17.114   4.217  15.544 -0.1631  0.0538  0.0886
 4776W        W20585   0.386   1.748  12.486 -0.4056  0.1256 -0.2491
 4777W        W20586  15.023  10.310   3.560 -0.3350 -0.3404 -0.0957
 4778W        W20587   1.817  12.518   1.819  0.2614  0.0460 -0.2333
 4779W        W20588  13.605  18.094  11.378  0.4143  0.1471  0.0960
 4780W        W20589   8.759   1.466  14.104  0.1345  0.1009  0.3562
 4781W        W20590   7.518  16.361  12.985 -0.1698 -0.1237  0.2502
 4782W        W20591   2.775   0.569  13.750  0.0988  0.3600  0.0213
 4783W        W20592   1.418   0.138   1.861 -0.1514 -0.0474  0.1526
 4784W        W20593  13.208   5.423  13.772  0.3116 -0.2035 -0.0084
 4785W        W20594  10.162   7.053   5.307  0.0395 -0.0384 -0.3951
 4786W        W20595   5.766  17.423   3.247  0.1639 -0.2451  0.2701
 4787W        W20596   0.605   2.378  12.227 -0.0427 -0.4237 -0.0100
 4788W        W20597  18.424   7.331   4.033 -0.0813  0.1063  0.4246
 4789W        W20598  13.963  12.725  13.676  0.3895 -0.1629  0.3365
 4790W        W20599   9.893   0.405   1.538 -0.0562 -0.1382 -0.0758
 4791W        W20600  16.149   9.084  15.548 -0.1851  0.2604 -0.1815
 4792W        W20601   3.372   4.272   0.936  0.1171  0.1446  0.3787
 4793W        W20602   1.731  14.669  10.136  0.1944 -0.1066 -0.1212
 4794W        W20603  11.682  10.800   3.287 -0.0566 -0.1753  0.1369
 4795W        W20604   7.817   5.550  11.037 -0.1892 -0.0036  0.2213
 4796W        W20605  16.348   2.294  14.757 -0.1144 -0.1051  0.0816
 4797W        W20606   1.348  16.332   1.946  0.2607  0.1245 -0.2530
 4798W        W20607   6.089  13.862  13.631  0.2303 -0.0368 -0.1834
 4799W        W20608   1.716  18.411  13.625 -0.2159 -0.0620 -0.1172
 4800W        W20609   5.733  13.828   3.358 -0.2348 -0.0688  0.1564
 4801W        W20610   6.060  10.431   2.765  0.0463 -0.0473 -0.2582
 4802W        W20611   9.225   9.234   4.741 -0.0038 -0.0746 -0.0698
 4803W        W20612   1.116   6.398   3.588  0.1828 -0.1631  0.0618
 4804W        W20613  11.936  12.134   1.523  0.0937  0.0616 -0.1208
 4805W        W20614  14.040  13.908  14.023  0.0289 -0.0746 -0.1704
 4806W        W20615  12.264  16.876  14.404  0.0896  0.4324 -0.2091
 4807W        W20616  17.000   6.285   0.280 -0.0460  0.1864  0.0374
 4808W        W20617  15.954   4.351   1.936 -0.2058  0.1534 -0.4141
 4809W        W20618   5.310   3.779  12.457  0.0700  0.2382 -0.0182
 4810W        W20619  13.408   3.619  15.009 -0.3473 -0.0738  0.3129
 4811W        W20620  16.450   3.536   1.704  0.1361 -0.0475  0.0256
 4812W        W20621  16.718  12.865  15.108  0.3085 -0.1141  0.0240
 4813W        W20622  16.651  10.551   2.864  0.1927 -0.0644 -0.0004
 4814W        W20623  10.814   0.034   5.280  0.1505  0.1788 -0.1595
 4815W        W20624  15.870  12.181   3.226 -0.1880  0.0044  0.1892
 4816W        W20625   0.458   2.267   2.846  0.1488 -0.2071 -0.2047
 4817W        W20626  13.938  14.698  12.762  0.0326  0.4864  0.0988
 4818W        W20627   3.206  13.330  11.560  0.0700 -0.3136  0.4157
 4819W        W20628   1.255   8.948   1.128  0.1403  0.0329 -0.1618
 4820W        W20629   4.170   3.736   0.008  0.0173 -0.4007  0.1143
 4821W        W20630   9.655   5.537  11.626  0.0596 -0.0308  0.1108
 4822W        W20631  14.133   4.701  14.746  0.4464 -0.0919  0.1363
 4823W        W20632  14.311   4.803  15.378 -0.2619  0.0521  0.0976
 4824W        W20633  13.964   6.342   0.921  0.0328  0.0488  0.1246
 4825W        W20634  12.655  11.270  11.016 -0.1732 -0.0978 -0.1426
 4826W        W20635   5.126   5.732   4.400 -0.2622  0.2020 -0.2604
 4827W        W20636   0.558   4.912   0.848  0.1690  0.2906  0.1438
 4828W        W20637  17.019   1.856  13.035 -0.0639 -0.3451 -0.1535
 4829W        W20638   1.015  17.912  13.119  0.1721 -0.1046  0.1371
 4830W        W20639   2.098   8.473  11.537  0.1551  0.3977 -0.0956
 4831W        W20640   3.980   2.889   0.689 -0.1968 -0.1165 -0.3402
 4832W        W20641  11.845  17.874  15.552 -0.1295  0.0096  0.2514
 4833W        W20642   6.586   9.931   2.927  0.2607  0.1424 -0.2896
 4834W        W20643  10.498   6.372   3.111 -0.0549  0.0942  0.1305
 4835W        W20644  14.656  16.555   0.167  0.3548  0.1971 -0.2349
 4836W        W20645  11.879   1.115   3.598  0.2234 -0.1080  0.0980
 4837W        W20646  17.511   4.411  15.372 -0.2296 -0.0366 -0.0821
 4838W        W20647   3.348   6.602  15.167  0.1420 -0.3160 -0.0888
 4839W        W20648  12.402   5.629  14.010  0.0930 -0.1487 -0.0608
 4840W        W20649  13.964   8.375   1.976 -0.0955  0.2300  0.3478
 4841W        W20650  17.263   3.905  11.368 -0.0577 -0.0438  0.0611
 4842W        W20651   6.562  17.814  12.762  0.1235 -0.2489  0.0959
 4843W        W20652   5.645  10.133  10.333  0.1374  0.0765 -0.2274
 4844W        W20653  17.521   3.304   3.373  0.0076 -0.0621 -0.0529
 4845W        W20654   3.965   5.629  13.635 -0.1699  0.2361  0.0825
 4846W        W20655   4.447   5.118   4.199 -0.0921 -0.0527  0.0851
 4847W        W20656  15.562   4.711  11.700  0.1893  0.0744 -0.5169
 4848W        W20657   0.010  13.879   3.696 -0.1433  0.0229  0.2182
 4849W        W20658  17.682   4.799  15.119 -0.4231  0.0211  0.3414
 4850W        W20659  17.178   6.580   4.529 -0.4459  0.1975  0.4381
 4851W        W20660  14.104   3.048   1.644 -0.0686 -0.1461  0.1507
 4852W        W20661  15.585  12.682   0.818  0.0453  0.2142 -0.3289
 4853W        W20662  10.108   7.092  12.332 -0.0552  0.2009  0.3446
 4854W        W20663  11.539   3.193   3.349  0.0756  0.3380 -0.0726
 4855W        W20664   2.720   1.838   5.184  0.4951  0.0821  0.0224
 4856W        W20665   3.879   9.230  11.899  0.0015 -0.1053  0.0642
 4857W        W20666   7.935   1.824   0.362  0.1684  0.0078  0.0526
 4858W        W20667   7.836  13.282   2.011  0.1500  0.0591  0.1209
 4859W        W20668   5.179   6.738  15.248  0.1783 -0.0519 -0.1266
 4860W        W20669  16.470   4.065  11.623 -0.3554  0.0440 -0.0553
 4861W        W20670  15.787  10.875   0.875 -0.1181  0.2914 -0.1580
 4862W        W20671  11.868   8.673   4.270  0.0152 -0.0098  0.0226
 4863W        W20672   0.225  11.446  13.431 -0.0987  0.1496  0.0040
 4864W        W20673   6.665   5.276  11.194 -0.0121  0.3984 -0.0047
 4865W        W20674   3.224  16.153  12.454 -0.1577  0.0785 -0.0259
 4866W        W20675  12.600   7.393   0.495 -0.0678 -0.2633 -0.4360
 4867W        W20676  11.051  11.610  13.446 -0.1045  0.2696 -0.1857
 4868W        W20677  15.896  14.636   2.911  0.2317  0.0008  0.1091
 4869W        W20678   5.138   5.896  13.197  0.0476 -0.1668 -0.3159
 4870W        W20679  16.051  10.224  13.571 -0.0551 -0.0896  0.2984
 4871W        W20680   7.208   2.446   1.769  0.0546  0.2259 -0.0620
 4872W        W20681   7.140   2.878   4.237 -0.0574  0.2279  0.3061
 4873W        W20682   2.372  16.328  14.762 -0.0642  0.1950  0.1130
 4874W        W20683  11.153  14.662  12.240 -0.1050  0.0410 -0.0763
 4875W        W20684  12.968  10.684   1.083  0.1959 -0.1219 -0.1235
 4876W        W20685  11.247   4.151   5.010 -0.1086 -0.0526  0.0083
 4877W        W20686  15.954   3.775  11.771  0.1729  0.1572  0.0955
 4878W        W20687  11.828   3.379  12.602  0.1741  0.2603 -0.5058
 4879W        W20688  11.054   7.423   2.422 -0.0717  0.0703 -0.1046
 4880W        W20689  12.747  16.729  10.890  0.1383 -0.0257 -0.1520
 4881W        W20690   8.664   2.594   0.077 -0.1016 -0.2433 -0.3010
 4882W        W20691   0.957  18.200  15.664  0.2687  0.1534 -0.2684
 4883W        W20692   3.633   2.609  13.768 -0.2632  0.2032  0.1343
 4884W        W20693   6.638  17.222   3.919 -0.0072 -0.0012  0.1168
 4885W        W20694   6.143   8.305   4.077  0.1972  0.0102  0.0313
 4886W        W20695   2.821  12.466  13.912 -0.1627 -0.0894  0.0643
 4887W        W20696  14.205   9.653   1.302  0.0852 -0.1797 -0.3432
 4888W        W20697   5.942   0.538  15.504 -0.3617  0.3379 -0.3389
 4889W        W20698   0.069   5.968  13.812 -0.1208  0.2519 -0.1606
 4890W        W20699   6.275   7.071   2.617  0.0234  0.1061 -0.1703
 4891W        W20700  17.883  13.752  15.773  0.1860  0.4020  0.0736
 4892W        W20701   0.091  16.381  11.634 -0.1083  0.0913 -0.1477
 4893W        W20702   0.014   1.774   5.259  0.0734 -0.4284  0.0950
 4894W        W20703  16.343   9.173   5.982 -0.0472  0.3038 -0.1855
 4895W        W20704  11.663  12.989  14.741 -0.0720  0.2081  0.1113
 4896W        W20705   5.204  17.655  12.366  0.0720  0.0479  0.2489
 4897W        W20706   2.743   8.190   0.949  0.3910  0.0117 -0.0820
 4898W        W20707  16.918   6.256  12.542  0.0853 -0.1089 -0.0320
 4899W        W20708  13.353  14.986   3.831  0.0701  0.0671  0.0092
 4900W        W20709  14.927   4.427   5.438  0.2103 -0.2063 -0.3880
 4901W        W20710  13.140   7.154  14.612 -0.3081 -0.5057 -0.1716
 4902W        W20711  12.544   6.735   2.310  0.0627 -0.4274  0.0841
 4903W        W20712   8.105   5.757  15.600  0.3688 -0.1084  0.0262
 4904W        W20713  13.664   6.353   3.779  0.4474  0.1819 -0.0726
 4905W        W20714   7.608  16.258   3.674 -0.2586  0.1158  0.2632
 4906W        W20715   5.563  15.750  15.173  0.0384 -0.0552 -0.1630
 4907W        W20716  16.423  16.947  12.069 -0.1711  0.0721 -0.1565
 4908W        W20717   5.585   0.384  13.567  0.1976 -0.0455 -0.1610
 4909W        W20718   3.937   9.843   3.532  0.1101 -0.2925 -0.1045
 4910W        W20719   8.995  14.093   4.062 -0.2170  0.1881  0.2800
 4911W        W20720  13.707   4.022   0.644 -0.0143 -0.0420  0.0462
 4912W        W20721   0.304   8.532   5.368 -0.0482  0.1990 -0.1086
 4913W        W20722  15.517   1.132   3.777  0.0515 -0.0283  0.1114
 4914W        W20723   6.659   1.108  11.068 -0.1033  0.1329 -0.3004
 4915W        W20724  11.016   1.983   1.336  0.2606 -0.1882  0.1897
 4916W        W20725  15.964  17.268  10.369  0.2104 -0.1774 -0.0934
 4917W        W20726  15.812  12.639  15.348 -0.0086  0.1235  0.1525
 4918W        W20727   3.730   0.031   4.027 -0.3266 -0.2279 -0.2862
 4919W        W20728  15.831  11.842  10.784  0.4419 -0.1552  0.0867
 4920W        W20729  13.824  10.661   5.067 -0.0870 -0.0777  0.1723
 4921W        W20730  13.805   2.438   0.930 -0.0554 -0.1329  0.0667
 4922W        W20731  15.467  14.093   3.141 -0.1350 -0.2320 -0.1239
 4923W        W20732   4.739   6.374   5.787 -0.1934 -0.0873 -0.3530
 4924W        W20733  16.714   9.013   0.082 -0.0845  0.0793  0.0970
 4925W        W20734  12.877  17.592  14.320 -0.1186 -0.0737 -0.3575
 4926W        W20735   2.773   7.967   2.873 -0.2402  0.1000 -0.0560
 4927W        W20736  10.624  12.493   2.667  0.0381 -0.0008 -0.1183
 4928W        W20737  15.205   5.732   0.247 -0.3268  0.2779 -0.3529
 4929W        W20738   7.074   5.049  10.594 -0.1225 -0.0499  0.0255
 4930W        W20739   8.587   5.490   3.562  0.0837 -0.2691 -0.2470
 4931W        W20740   4.286  16.690  13.722 -0.1905  0.1549  0.1360
 4932W        W20741   9.187   2.555   1.985 -0.0514  0.0032  0.0159
 4933W        W20742   2.604   9.732  13.915  0.1720 -0.2303 -0.2798
 4934W        W20743   0.810   6.698   5.103 -0.1528 -0.1142  0.2744
 4935W        W20744  15.548   1.682  11.640 -0.1038 -0.0294  0.1158
 4936W        W20745   5.602   2.579   0.344  0.0615  0.4495  0.2085
 4937W        W20746   9.807   6.989  14.286  0.2700 -0.1258  0.1868
 4938W        W20747  12.849  18.329   4.837  0.0419  0.1001  0.2580
 4939W        W20748   2.977  16.532  13.295  0.0510  0.0706 -0.2011
 4940W        W20749  13.785   5.765  14.229  0.0804 -0.0555 -0.1925
 4941W        W20750   1.713  15.177   1.441 -0.3092  0.0262  0.2145
 4942W        W20751   2.173   0.314  11.855  0.1186 -0.0665  0.0164
 4943W        W20752   9.548  12.252   9.734  0.0618 -0.0799 -0.0583
 4944W        W20753  15.114   2.431  15.546  0.2221  0.1352  0.0277
 4945W        W20754   6.722  17.588  11.663  0.0049  0.0150  0.0018
 4946W        W20755  10.290  14.746  11.025  0.4740  0.1394  0.2624
 4947W        W20756   9.166   2.066  12.447 -0.2608  0.0851 -0.4480
 4948W        W20757  18.170  13.301  15.696  0.0378  0.1338  0.1463
 4949W        W20758  13.060  13.950  13.202 -0.2922 -0.1169  0.0078
 4950W        W20759  14.511   3.493   5.490 -0.0579  0.0754  0.2905
 4951W        W20760   4.252   3.888  10.571 -0.2299  0.3348  0.6589
 4952W        W20761  10.670   8.021   2.994  0.3154  0.0097  0.0688
 4953W        W20762  18.083   1.482  11.735  0.0041  0.3413  0.0850
 4954W        W20763  14.914   2.286   4.339  0.0667  0.3110 -0.0790
 4955W        W20764   7.689   8.864   4.627  0.3341 -0.0095  0.0090
 4956W        W20765  17.688   2.460   4.379  0.0946  0.2593  0.4125
 4957W        W20766   2.786   8.799  14.136 -0.0705 -0.0540  0.3449
 4958W        W20767   5.221   2.700  14.154 -0.1033  0.1219 -0.1078
 4959W        W20768   7.596  13.925  10.361 -0.0424 -0.2389  0.0148
 4960W        W20769  13.505  15.121   4.849  0.2677 -0.3067  0.0678
 4961W        W20770  16.449   2.122   0.737  0.0966 -0.1361  0.1636
 4962W        W20771  12.646  18.371  15.307  0.2464 -0.2064 -0.1627
 4963W        W20772   6.723   6.148  11.607  0.0670  0.0773 -0.1100
 4964W        W20773   2.311   9.056  14.735 -0.1769  0.2061  0.0481
 4965W        W20774  18.423  13.839  13.308  0.2627 -0.0685 -0.0240
 4966W        W20775   6.451   5.115   0.200 -0.0079 -0.0241 -0.0801
 4967W        W20776  18.326   2.660  12.663 -0.0666 -0.0101 -0.2759
 4968W        W20777   3.027   8.166   4.240  0.0688 -0.0717 -0.2090
 4969W        W20778  16.421  14.071  11.737 -0.1310 -0.4431  0.3672
 4970W        W20779   2.888   0.960  13.493 -0.2382  0.0131  0.0064
 4971W        W20780  13.259  16.231  10.935  0.1436 -0.0895 -0.2843
 4972W        W20781  17.040   0.191   1.366 -0.4591  0.1680 -0.0351
 4973W        W20782  16.721   8.969  14.356 -0.0496 -0.1309  0.0717
 4974W        W20783  11.628   8.971  12.476  0.1619 -0.1440 -0.2772
 4975W        W20784   8.123   9.004  12.756 -0.3231 -0.1532 -0.0825
 4976W        W20785  11.330   1.346  15.676 -0.3548 -0.1455 -0.0537
 4977W        W20786   2.258   1.375   2.450  0.0768  0.0703 -0.1867
 4978W        W20787   8.553   6.582   1.069  0.1357  0.0351  0.2467
 4979W        W20788  13.277  14.999  12.090  0.0410  0.0747  0.0626
 4980W        W20789  17.972   9.299   1.581  0.1421 -0.1122  0.1028
 4981W        W20790  17.752  16.384  14.826  0.1287 -0.2045 -0.0587
 4982W        W20791  12.313  11.842   1.325  0.0916  0.0547  0.5032
 4983W        W20792  16.599  13.538   3.010  0.4087  0.0925  0.1465
 4984W        W20793   6.370   1.865   3.997 -0.0974  0.0740 -0.2050
 4985W        W20794  11.819   2.321   2.579  0.0727 -0.0228 -0.1469
 4986W        W20795   0.643  12.704  14.192 -0.3558  0.3381  0.3209
 4987W        W20796  16.292   7.803  14.649 -0.2232  0.4813 -0.1101
 4988W        W20797   3.076   8.659   3.300  0.1524 -0.1181 -0.2672
 4989W        W20798  12.572   3.990   2.175  0.2425 -0.0585 -0.2124
 4990W        W20799  12.255  17.740  10.761 -0.0008  0.1423  0.2964
 4991W        W20800   5.750   4.162   1.263 -0.0979  0.2632  0.1176
 4992W        W20801  14.073   9.326   0.952 -0.2086 -0.0562 -0.0618
 4993W        W20802  18.269   1.817   2.194 -0.1972 -0.2911  0.0775
 4994W        W20803   0.659  10.526   3.277  0.1446 -0.2193  0.1357
 4995W        W20804   9.296   8.159  11.840 -0.0930  0.1443 -0.0533
 4996W        W20805  17.179  10.627   3.660 -0.3496 -0.3294 -0.1549
 4997W        W20806   6.845   0.310   3.423 -0.1024  0.0336 -0.2299
 4998W        W20807   3.502   4.153   0.007  0.1681  0.2928 -0.3301
 4999W        W20808   6.754   8.107  11.397  0.2597  0.0806 -0.0060
 5000W        W20809   7.244   2.945  15.777 -0.0232  0.4359  0.0159
 5001W        W20810  15.014   6.495  11.740  0.0450  0.2580  0.3523
 5002W        W20811  12.759  10.194   4.293  0.0483  0.0844 -0.1285
 5003W        W20812  12.520   2.034   0.728 -0.3137 -0.2987  0.1410
 5004W        W20813  18.367  15.320  15.744  0.0710  0.2762  0.0390
 5005W        W20814  13.332   8.708  11.046 -0.0746  0.1079 -0.0825
 5006W        W20815   7.138   8.752   1.962  0.2580 -0.1865  0.0996
 5007W        W20816  12.706   8.059   2.315 -0.2963 -0.4418 -0.1865
 5008W        W20817  12.514  15.367  15.021 -0.1002 -0.3963  0.1669
 5009W        W20818  12.581   0.244   1.774  0.1935 -0.2059  0.1445
 5010W        W20819   5.792  12.049   0.143 -0.2286 -0.1512 -0.1801
 5011W        W20820   7.850   4.747  12.089 -0.1020  0.0212 -0.2559
 5012W        W20821   8.010   5.066  13.152 -0.0318  0.0607  0.0557
 5013W        W20822   7.003  17.130   0.514 -0.0619 -0.0432 -0.1762
 5014W        W20823   4.846   5.845  10.712 -0.0205 -0.1338  0.1716
 5015W        W20824  14.972   0.026  15.612 -0.1483  0.1755 -0.3021
 5016W        W20825   5.061  11.624  15.587  0.0698 -0.1332  0.1795
 5017W        W20826   0.201  10.844   1.521  0.0842 -0.4079 -0.0397
 5018W        W20827  11.906   9.100  12.846 -0.3506 -0.1310  0.0541
 5019W        W20828  14.593  18.257  12.791 -0.4266  0.1257  0.0628
 5020W        W20829   8.926   4.109   4.968 -0.1627 -0.0282 -0.1480
 5021W        W20830   1.659   7.171  13.837 -0.1110  0.1727  0.1473
 5022W        W20831  17.682  10.786   1.845 -0.2549  0.3379 -0.0775
 5023W        W20832   4.738  11.197   5.459 -0.0047 -0.0825 -0.2301
 5024W        W20833   7.781  11.048   0.449  0.0470 -0.0286 -0.1269
 5025W        W20834  17.532   7.763   4.567 -0.3916  0.0698  0.0093
 5026W        W20835  17.695   1.197   4.008  0.0148  0.1778 -0.0496
 5027W        W20836   6.573   5.349  13.490 -0.1163  0.0758  0.0766
 5028W        W20837   9.232  15.333  14.658 -0.2450  0.0393  0.0118
 5029W        W20838   1.030  14.730   3.906 -0.0914  0.2011 -0.0318
 5030W        W20839   6.279  16.578   5.458  0.0063  0.0347 -0.1734
 5031W        W20840  17.044   2.881   1.604 -0.0606 -0.2405  0.4097
 5032W        W20841   1.725   3.252   2.770 -0.0942 -0.0048 -0.0035
 5033W        W20842   5.011  10.712   3.762 -0.1027 -0.2887  0.0869
 5034W        W20843   9.392   4.598  13.399 -0.2367 -0.0750 -0.2744
 5035W        W20844  13.098   5.163  11.587  0.1943  0.0931  0.1378
 5036W        W20845  13.202   2.342  15.457 -0.1697  0.2162 -0.0439
 5037W        W20846   6.884   1.919  13.116 -0.2978 -0.1407 -0.2449
 5038W        W20847  18.041  18.165  11.025 -0.2970 -0.0076 -0.1676
 5039W        W20848   0.805   9.687  12.366  0.0615 -0.0519  0.0207
 5040W        W20849  12.917   8.508  13.848  0.1639 -0.0076 -0.1198
 5041W        W20850  13.810   2.210   2.680  0.1494  0.0228  0.3093
 5042W        W20851   0.238   1.515  15.658 -0.3147 -0.0028  0.1607
 5043W        W20852  12.314  18.003  12.680  0.1430 -0.1295 -0.4529
 5044W        W20853  16.199   7.337  10.572 -0.0404  0.4355  0.1447
 5045W        W20854   6.044  10.647   2.286 -0.0716  0.4285  0.1862
 5046W        W20855   0.077   0.240   5.464  0.3109  0.0508 -0.0139
 5047W        W20856   6.359  12.530  14.163 -0.0386 -0.0311  0.3784
 5048W        W20857  13.449   8.547   3.819 -0.0847 -0.1922 -0.1502
 5049W        W20858  10.774   1.824   3.716  0.0435  0.0203  0.0954
 5050W        W20859  16.807   9.732   2.367 -0.0897 -0.1395 -0.0539
 5051W        W20860   1.850  10.213  13.180  0.0835  0.2960 -0.3040
 5052W        W20861   3.971  17.111   2.111 -0.0896  0.3183 -0.0996
 5053W        W20862  18.203   9.400   4.548 -0.2668 -0.0638  0.2704
 5054W        W20863   7.054   4.156   1.641  0.4266 -0.1030 -0.3403
 5055W        W20864  13.142   1.711  11.966  0.2374  0.2647  0.0990
 5056W        W20865   7.941  16.561   3.394  0.2036  0.2303 -0.0461
 5057W        W20866   9.756   3.995   1.572  0.2217  0.0060  0.0589
 5058W        W20867   2.038   0.199  12.749 -0.1165  0.0411 -0.2127
 5059W        W20868   4.312   9.853   2.343 -0.0826 -0.0469  0.3006
 5060W        W20869   3.646  12.379   5.422  0.0807 -0.0523  0.1407
 5061W        W20870   4.354  15.713   3.483  0.1241 -0.1067 -0.0128
 5062W        W20871  15.629   7.922  15.511 -0.1304  0.2008  0.2840
 5063W        W20872   6.855   4.444   4.653  0.0402  0.1434  0.0511
 5064W        W20873  18.012   0.972  15.849  0.0225  0.1634  0.4045
 5065W        W20874   8.134  10.742  15.018  0.3320  0.1084  0.0240
 5066W        W20875  10.735  13.961  11.444 -0.2449  0.0241 -0.1725
 5067W        W20876  15.937   1.701   4.430  0.0179  0.0412  0.1143
 5068W        W20877   3.712  14.582  11.606 -0.1395  0.0282 -0.0655
 5069W        W20878  16.901   9.391   1.962 -0.1010 -0.1494  0.2140
 5070W        W20879   3.013   0.011  15.581  0.0464 -0.1432  0.0510
 5071W        W20880   8.340  14.147   1.143  0.0866 -0.0613  0.1455
 5072W        W20881  14.825   5.757  15.175 -0.3167  0.2180  0.0754
 5073W        W20882   4.470  14.038   4.112 -0.2209  0.0495 -0.0914
 5074W        W20883   3.718   5.056   2.523  0.1480 -0.4217 -0.0281
 5075W        W20884  18.327   4.020  12.540  0.0243 -0.1721  0.0344
 5076W        W20885  17.537   0.235  14.492  0.0908  0.0112  0.0405
 5077W        W20886  12.810   7.425   5.537 -0.2216 -0.1900 -0.2057
 5078W        W20887   1.208   1.505  12.531  0.0873 -0.0779  0.3925
 5079W        W20888   1.197   0.537  12.347 -0.2068  0.2157 -0.1745
 5080W        W20889   4.178   5.113   2.740 -0.0676 -0.1756  0.0427
 5081W        W20890   8.339  14.556   0.662 -0.1179 -0.0331  0.0636
 5082W        W20891   8.519   1.873   3.814  0.1919  0.2126  0.3975
 5083W        W20892  16.708   6.845  14.920  0.1229  0.2296 -0.4470
 5084W        W20893  12.604   8.088   1.723 -0.0369 -0.1537  0.0961
 5085W        W20894   4.471   9.229   5.056  0.0221 -0.3506  0.3444
 5086W        W20895  16.413   3.426   5.009  0.1864 -0.2975  0.0406
 5087W        W20896  17.670   2.291  14.197 -0.2774  0.0249  0.1889
 5088W        W20897   3.222   6.014  15.101  0.0281 -0.3725 -0.0100
 5089W        W20898  10.466  10.988  15.065 -0.1979  0.0679  0.2246
 5090W        W20899  11.950   8.982  12.049  0.3037 -0.3677 -0.0355
 5091W        W20900  12.391  14.912  12.131  0.0093  0.2626  0.1351
 5092W        W20901  11.450   9.069  14.960  0.0682 -0.0109  0.0580
 5093W        W20902   8.060   7.092  13.785  0.1841  0.0438 -0.1843
 5094W        W20903   4.920   4.142  10.635  0.0620 -0.3824  0.2083
 5095W        W20904   0.844  14.753  15.160  0.1226 -0.0111 -0.0448
 5096W        W20905  12.181   6.608  12.933  0.0724 -0.4259  0.0510
 5097W        W20906   5.021  15.664   0.229  0.0541 -0.1871  0.3001
 5098W        W20907   1.622  15.467   1.841  0.2584  0.0607  0.1987
 5099W        W20908   1.818   2.589  15.720 -0.3771 -0.0205  0.2752
 5100W        W20909  14.063   8.049  11.281  0.2056 -0.4126 -0.0055
 5101W        W20910  11.268   7.688  11.076 -0.1981 -0.1575  0.2370
 5102W        W20911  12.485   0.639   4.584  0.0897 -0.0030  0.0880
 5103W        W20912   7.834   0.030  13.418  0.1062 -0.1013  0.1557
 5104W        W20913   3.424  11.834   2.587  0.1451 -0.2057  0.1702
 5105W        W20914  17.504  15.577   1.914 -0.2275 -0.1778 -0.0937
 5106W        W20915  18.002  13.155   3.384 -0.1619  0.1778  0.0868
 5107W        W20916  11.072   5.277   5.438 -0.0392  0.0764 -0.0262
 5108W        W20917  13.880   1.212   0.392  0.0814 -0.3343  0.0905
 5109W        W20918  13.719   0.891  12.051 -0.1338 -0.1651 -0.0473
 5110W        W20919  11.095   0.013   3.333  0.1231 -0.0982  0.1418
 5111W        W20920  15.859  13.781  14.771 -0.0128  0.2115  0.0847
 5112W        W20921   1.998   7.173   2.749  0.0602 -0.2817  0.1917
 5113W        W20922   7.554  16.004  12.116  0.0428 -0.1099  0.2742
 5114W        W20923  17.295  17.587  12.278 -0.1671  0.0862  0.3829
 5115W        W20924   2.783   6.291   0.803 -0.0441 -0.1361 -0.2549
 5116W        W20925   5.413  18.342   4.721  0.3013  0.0276 -0.0906
 5117W        W20926   4.463   4.833  11.927  0.3123 -0.1722  0.1540
 5118W        W20927   7.004  14.292   5.710 -0.1337  0.0533 -0.0204
 5119W        W20928  12.009   8.534  11.793 -0.1470 -0.4616 -0.2149
 5120W        W20929   7.396  15.394  13.852 -0.0964 -0.1539  0.0434
 5121W        W20930   4.194  18.090  14.936 -0.2512 -0.1132 -0.0724
 5122W        W20931   3.867  12.454  11.868  0.0295  0.2212  0.2318
 5123W        W20932  15.654  17.995   3.542  0.3100 -0.1329  0.4775
 5124W        W20933   0.827  14.465   0.773  0.1872 -0.0459 -0.2122
 5125W        W20934   7.117  13.351  14.470 -0.2104  0.0955  0.0777
 5126W        W20935  13.097   1.673   4.120  0.1218  0.0748 -0.1081
 5127W        W20936  13.213  10.213   2.114  0.0081 -0.2198 -0.1901
 5128W        W20937  16.064   3.450  14.196 -0.1386  0.0595 -0.0610
 5129W        W20938  17.546   0.272  15.819 -0.1139  0.0468  0.2283
 5130W        W20939   0.937   5.061  13.658 -0.1202 -0.0128  0.2959
 5131W        W20940   5.834  13.184  13.938 -0.1201 -0.0733 -0.1806
 5132W        W20941  15.469  15.985  15.432 -0.2016  0.3915  0.3383
 5133W        W20942   5.970   8.809  13.559 -0.1831 -0.2640 -0.0545
 5134W        W20943   8.363   8.787   5.561  0.2442  0.1039  0.0216
 5135W        W20944   2.287   6.510  14.682 -0.1456 -0.1824 -0.0323
 5136W        W20945   9.006   0.047   0.717  0.1228  0.0262  0.1965
 5137W        W20946  10.566   2.021  12.708 -0.1116  0.3297  0.0056
 5138W        W20947   1.849   8.879   4.826 -0.3330 -0.0260 -0.0841
 5139W        W20948  17.548  17.264  11.520 -0.2525  0.1434  0.0583
 5140W        W20949  17.282  14.935  15.676  0.0512 -0.1328  0.1433
 5141W        W20950   5.819   3.238  13.175 -0.0695 -0.1282 -0.0075
 5142W        W20951   6.198   6.247   4.309  0.3700  0.2543 -0.1171
 5143W        W20952  12.918   5.568  15.436  0.0838 -0.0854  0.1519
 5144W        W20953  10.658  14.700   1.140  0.0118  0.5523 -0.0614
 5145W        W20954  16.143   6.374  12.302  0.2024  0.0346 -0.1558
 5146W        W20955  12.094  18.349  13.949  0.2915 -0.3784  0.1547
 5147W        W20956  14.674  13.454   0.267 -0.1005  0.0880  0.0404
 5148W        W20957   6.186  10.136  11.829 -0.2499  0.0434 -0.0917
 5149W        W20958   9.751   2.707  10.370  0.2330  0.0176  0.3119
 5150W        W20959   1.225   8.852   5.813 -0.0003 -0.0164 -0.0381
 5151W        W20960  13.671  15.073  11.361 -0.0094 -0.2053 -0.2556
 5152W        W20961   2.412   6.758  10.408  0.0501  0.3114  0.5150
 5153W        W20962  15.537  10.091   3.492  0.1234 -0.4280  0.0181
 5154W        W20963  12.640  13.107  15.671 -0.0532  0.3238 -0.0395
 5155W        W20964   5.503  10.942  15.077 -0.1448  0.1267 -0.1193
 5156W        W20965   6.537   3.758  13.394  0.2686 -0.1574 -0.1800
 5157W        W20966  16.929  16.257   4.759  0.3536  0.3512  0.1686
 5158W        W20967  17.967   4.581   4.538  0.0411  0.1475  0.0827
 5159W        W20968   8.539   0.373  15.379 -0.0284 -0.3407  0.1218
 5160W        W20969  12.925   8.193  11.823 -0.0201  0.1702  0.0814
 5161W        W20970  11.270  12.364  12.732 -0.0773  0.0409  0.1476
 5162W        W20971   8.738   4.546   3.926  0.1585  0.0398  0.1813
 5163W        W20972   9.487   3.068  11.706 -0.0326  0.3803  0.0750
 5164W        W20973   6.596   7.048  14.227  0.1123 -0.1506  0.2668
 5165W        W20974  10.544   2.520   2.574 -0.2042 -0.0133 -0.1661
 5166W        W20975   4.616   0.757   2.588  0.0610  0.1198  0.0615
 5167W        W20976   7.733   3.225  11.857  0.0513 -0.1174 -0.1766
 5168W        W20977  15.154   9.707   2.395 -0.2149  0.1516  0.0936
 5169W        W20978  10.593  11.698  15.531 -0.4226  0.0518  0.1769
 5170W        W20979   1.760   5.174   4.414 -0.1308  0.2665 -0.1919
 5171W        W20980  10.182  13.967  14.087  0.1463 -0.1785  0.1254
 5172W        W20981  13.836   1.252  13.775 -0.1122  0.2169  0.1397
 5173W        W20982  18.253  12.684  12.883 -0.3803  0.1606 -0.1863
 5174W        W20983   5.077  15.799   2.474  0.1417 -0.0295 -0.0081
 5175W        W20984  15.891   4.240   1.282 -0.0199 -0.2638 -0.1322
 5176W        W20985   8.847  14.600   4.838  0.0440  0.2219 -0.2543
 5177W        W20986  14.861  10.959   4.070 -0.1037  0.1026 -0.2216
 5178W        W20987   1.813   0.936  12.212  0.0906 -0.1577 -0.0367
 5179W        W20988  15.450  11.394   2.598  0.0178 -0.1435  0.1164
 5180W        W20989   6.837  15.437   2.221 -0.0964 -0.0396 -0.0336
 5181W        W20990  16.305   3.550   3.234  0.0152 -0.0082 -0.0399
 5182W        W20991  12.340  16.100   4.170 -0.0422  0.3063  0.0212
 5183W        W20992  17.029   4.731  12.844 -0.0949  0.0851 -0.2353
 5184W        W20993  14.265  13.737   4.843  0.2730  0.1951  0.0069
 5185W        W20994   1.483  18.159   2.743 -0.0832  0.0551  0.1592
 5186W        W20995  10.880   2.622   1.269 -0.2059 -0.0259 -0.2250
 5187W        W20996  14.698   8.600  12.887 -0.0555  0.0900  0.1341
 5188W        W20997  11.904  11.950   3.210  0.2236  0.3650 -0.1431
 5189W        W20998   5.710  10.265  12.066 -0.0199  0.4051 -0.0468
 5190W        W20999  17.525  10.492   3.142 -0.0797 -0.2148 -0.2314
 5191W        W21000  13.076   5.685   0.038 -0.1022 -0.1840  0.1960
 5192W        W21001  12.204   9.788   0.721 -0.3078 -0.3132 -0.4013
 5193W        W21002  13.291   0.931   3.658  0.0293 -0.1569 -0.0216
 5194W        W21003   8.742   5.840  15.745 -0.1034  0.0466  0.1255
 5195W        W21004   2.424   1.715  10.749  0.0003 -0.2719  0.1387
 5196W        W21005   1.356   9.134  15.169  0.2008  0.1482 -0.2644
 5197W        W21006  12.983  10.574  11.427 -0.1601 -0.0928 -0.0950
 5198W        W21007  17.075  16.483   5.199  0.0183 -0.0281  0.1113
 5199W        W21008  13.119  16.604  10.578  0.1328  0.0545  0.0601
 5200W        W21009   0.869   8.975  15.262 -0.0674  0.2408  0.0664
 5201W        W21010   7.169  14.399  13.175  0.0508  0.1198  0.0579
 5202W        W21011   5.644   8.022  12.106 -0.2297  0.1108  0.2605
 5203W        W21012   3.035  13.499  10.651 -0.2175  0.0196  0.3166
 5204W        W21013  16.930  15.124   0.149  0.2412  0.2348 -0.0566
 5205W        W21014  15.916   8.065   2.165  0.1957  0.0464 -0.0451
 5206W        W21015   1.588   6.278   0.976 -0.2157  0.2014 -0.0104
 5207W        W21016  11.715   6.252   0.834  0.0605  0.0272 -0.4353
 5208W        W21017   5.175   0.779   3.003 -0.1474 -0.3990  0.3080
 5209W        W21018   8.990  16.942   4.203 -0.2999 -0.1615 -0.2177
 5210W        W21019  13.896   1.893   0.911  0.2354  0.0383 -0.0269
 5211W        W21020   0.485   9.571   4.025  0.3608  0.2841  0.1487
 5212W        W21021   2.811   2.432  13.265 -0.0592 -0.0629  0.1161
 5213W        W21022  15.774   9.752   4.380 -0.2292 -0.0028  0.1601
 5214W        W21023   6.522   6.853   4.002 -0.0058  0.4236 -0.2864
 5215W        W21024  14.204  12.317  12.402 -0.0435  0.0069 -0.0649
 5216W        W21025   6.335   8.111   3.610 -0.4453 -0.0986 -0.0277
 5217W        W21026  12.791  10.822  13.184  0.0081  0.0927  0.0988
 5218W        W21027  12.975   8.401   0.264  0.2530 -0.2399 -0.2132
 5219W        W21028  12.847   9.063  13.806 -0.0078 -0.0662  0.0028
 5220W        W21029   7.112   2.047  14.235  0.0988 -0.0190 -0.0553
 5221W        W21030  17.968  13.880   5.218 -0.1991 -0.1181  0.3041
 5222W        W21031   2.373   6.588  13.999 -0.0951 -0.0184 -0.0604
 5223W        W21032   1.821   7.318  15.012 -0.2011 -0.1655 -0.0074
 5224W        W21033  15.886   9.375   4.810  0.0369  0.0084  0.4864
 5225W        W21034  17.598   8.475   5.114  0.0489 -0.0491 -0.1608
 5226W        W21035  16.217  15.057   1.837  0.0862 -0.0302 -0.0748
 5227W        W21036  17.510  14.257   1.643  0.2105 -0.1919  0.2255
 5228W        W21037  18.325  13.064  11.749  0.1531  0.2594 -0.1888
 5229W        W21038  11.949   7.929   1.857 -0.2327 -0.2974  0.4073
 5230W        W21039   2.394  11.278   5.333  0.0521 -0.0009  0.1040
 5231W        W21040  11.583  17.170  11.162 -0.0186 -0.0759 -0.4655
 5232W        W21041   8.764   2.751  14.426 -0.0396 -0.0365  0.2141
 5233W        W21042   1.451  10.733   0.948  0.1480  0.1631  0.2041
 5234W        W21043   3.319  15.211   1.688  0.2318  0.2388  0.1682
 5235W        W21044   1.564   3.254  13.000 -0.2604 -0.0873  0.3026
 5236W        W21045   9.055  15.792  14.503 -0.1055 -0.4105  0.3098
 5237W        W21046   6.560  17.553  10.781 -0.1409 -0.1834  0.1100
 5238W        W21047  10.010  10.427   4.844  0.0217  0.1753  0.1619
 5239W        W21048   9.328   7.162  13.170  0.1591  0.0176 -0.2184
 5240W        W21049  10.865  14.294  15.264 -0.0467  0.0930  0.0401
 5241W        W21050  10.204   5.140   5.020  0.0147 -0.2946 -0.2177
 5242W        W21051   4.262   4.880  11.473  0.1362 -0.0153  0.0520
 5243W        W21052  16.563  10.334  11.748  0.1358 -0.0247 -0.0236
 5244W        W21053  12.867  15.559  14.176  0.3725  0.4342  0.1252
 5245W        W21054  14.099   4.331   3.511 -0.0159  0.1246  0.1252
 5246W        W21055   8.991   1.286  12.122  0.3362 -0.0450  0.0565
 5247W        W21056  12.119   3.341   2.781  0.0853 -0.4038 -0.1185
 5248W        W21057  14.092   1.619   3.880  0.0351  0.1833 -0.2270
 5249W        W21058   0.715   9.918   3.654  0.0868 -0.1609  0.1244
 5250W        W21059  13.071   2.008  14.616  0.1139 -0.0076  0.0438
 5251W        W21060  18.344   8.015   2.553  0.0624  0.2534 -0.2122
 5252W        W21061   2.498  15.275   2.335 -0.1479  0.1461  0.2066
 5253W        W21062   3.643   2.961   5.116 -0.0558  0.1160  0.0468
 5254W        W21063   3.096  15.256   4.742  0.1040 -0.0187  0.2186
 5255W        W21064  17.469   3.087  13.818  0.2145  0.0945 -0.1380
 5256W        W21065   5.025   1.146   4.548 -0.0944  0.3497  0.1615
 5257W        W21066  14.162  17.863  13.029 -0.1677  0.0754 -0.2143
 5258W        W21067   6.021   6.167   0.396 -0.0674  0.1179 -0.0916
 5259W        W21068  15.055  11.885   4.388  0.0060  0.0550  0.1044
 5260W        W21069   3.297  17.588  15.350  0.1016  0.1166  0.0185
 5261W        W21070   3.312  15.473   6.016  0.1674  0.2075  0.0025
 5262W        W21071  10.010   5.911   2.483 -0.1805  0.2477  0.0786
 5263W        W21072  12.605  10.158  12.199  0.1520 -0.2952 -0.3292
 5264W        W21073  15.731  11.480  13.572 -0.0928  0.1198 -0.2791
 5265W        W21074  15.882   2.676   4.700 -0.0273 -0.0835 -0.0174
 5266W        W21075   5.397   4.415  10.886 -0.2083  0.2997  0.0601
 5267W        W21076   0.573   1.469   1.046 -0.0957  0.0823 -0.0283
 5268W        W21077   4.941   5.301   0.227  0.0699 -0.4641 -0.1538
 5269W        W21078   5.966   7.451   2.364 -0.1025 -0.1586 -0.0705
 5270W        W21079  11.499   2.332   2.228 -0.0749  0.0292  0.2581
 5271W        W21080   7.841  10.003   5.591  0.2440  0.0668  0.2144
 5272W        W21081  11.694  16.944  15.627 -0.1429  0.2351  0.1629
 5273W        W21082  11.744   8.759   9.997  0.1243  0.2368 -0.1515
 5274W        W21083  12.817  14.235  15.017 -0.1041  0.0064  0.0979
 5275W        W21084  12.729  16.507   5.107  0.1230 -0.0233  0.3729
 5276W        W21085   3.154   4.925   2.202 -0.4689  0.0639  0.1503
 5277W        W21086   5.919   6.780   2.974 -0.0621  0.0850  0.1966
 5278W        W21087  13.765   4.589   4.315  0.2572 -0.3220  0.0434
 5279W        W21088  12.301  18.441   3.752 -0.0265 -0.2517  0.1064
 5280W        W21089   6.269  18.339  14.012  0.1985  0.3640  0.3336
 5281W        W21090  17.607  15.640   3.264  0.1411 -0.0355  0.0327
 5282W        W21091  17.080  18.188   2.230 -0.1980 -0.3801 -0.2368
 5283W        W21092   4.540  16.678   0.562 -0.0896  0.1947  0.0913
 5284W        W21093   5.370   8.912   4.294  0.1948 -0.0557 -0.0860
 5285W        W21094  18.364   2.132  12.571  0.3702 -0.2570  0.4200
 5286W        W21095   8.928  10.681   1.155 -0.0147 -0.1157 -0.2760
 5287W        W21096  12.323   2.485   0.948  0.1616 -0.2007 -0.0204
 5288W        W21097   6.660  15.955   3.374 -0.2168 -0.0123  0.0074
 5289W        W21098  12.265   6.860   1.940 -0.3381 -0.2267  0.2207
 5290W        W21099   9.480  15.171  11.313  0.0717 -0.0073  0.0943
 5291W        W21100  11.629   8.502  13.805  0.0640  0.1220 -0.2104
 5292W        W21101   5.801   5.835  11.991  0.2413  0.3534  0.1866
 5293W        W21102   0.019   9.522   0.365  0.3986 -0.1309  0.1539
 5294W        W21103   0.450  12.554  10.427 -0.0056  0.0961  0.0445
 5295W        W21104   0.052   4.444   1.409  0.1682  0.0390 -0.1127
 5296W        W21105  14.312  13.669  13.218 -0.0577  0.0234  0.0226
 5297W        W21106  14.178   5.392   0.305 -0.1227 -0.4675  0.3875
 5298W        W21107   1.376  14.240  12.344 -0.0168  0.3084  0.3486
 5299W        W21108   6.365  15.650   2.475 -0.1593  0.1839  0.1089
 5300W        W21109  10.842   0.190   2.075 -0.0836  0.1595  0.0620
 5301W        W21110  12.538  11.007   3.853  0.0798 -0.0960  0.0084
 5302W        W21111   0.264   0.299  11.827 -0.0322  0.3206 -0.0766
 5303W        W21112   0.900  14.828  13.153  0.0868  0.1438 -0.0459
 5304W        W21113  17.725  16.739  10.809  0.1806 -0.1573  0.0643
 5305W        W21114  16.067  11.853   2.284 -0.0964  0.1466  0.1063
 5306W        W21115  17.409   4.066  13.560 -0.2588 -0.1455  0.0328
 5307W        W21116  12.623   9.068  13.074 -0.0006  0.1002 -0.0718
 5308W        W21117   4.089   3.896  11.842 -0.1005 -0.0647 -0.1153
 5309W        W21118  13.365   6.069  11.481  0.1597 -0.0320  0.2971
 5310W        W21119  10.064   7.241   3.610 -0.0195 -0.0780  0.2942
 5311W        W21120  18.086  12.574  13.865 -0.3043 -0.1196 -0.0622
 5312W        W21121   1.842  18.214  12.725  0.2510 -0.0863 -0.1873
 5313W        W21122   5.249   4.751  15.258 -0.2486 -0.0997  0.2287
 5314W        W21123  16.163   6.315  14.228 -0.0758  0.2969  0.0303
 5315W        W21124  13.753  14.550  11.360 -0.0316  0.2078 -0.2863
 5316W        W21125  16.149   4.636   4.027 -0.0678 -0.2849  0.1796
 5317W        W21126   6.859  17.936  10.997  0.2433  0.0025  0.0542
 5318W        W21127  17.375  10.439   2.618 -0.0509 -0.2067  0.3557
 5319W        W21128   7.948   4.540   4.356 -0.1343  0.1298  0.0420
 5320W        W21129  12.731  10.878  14.868  0.0109  0.0405  0.1452
 5321W        W21130   1.110  12.916   0.022 -0.0672  0.0790  0.1256
 5322W        W21131   3.159   6.655  14.539  0.0691  0.1292  0.3050
 5323W        W21132  12.066   4.253  14.100  0.0943 -0.0980  0.0553
 5324W        W21133   4.192  17.139   1.669 -0.1576  0.1266 -0.0564
 5325W        W21134  14.995   0.672   0.944 -0.1105 -0.0418 -0.0591
 5326W        W21135  10.567  12.763   1.629  0.0013  0.1526  0.0227
 5327W        W21136   9.544  12.860  13.667 -0.0087  0.1055  0.0923
 5328W        W21137   4.165  10.258  15.181 -0.3312 -0.0803  0.1403
 5329W        W21138   8.061   1.037   4.234  0.2427 -0.1508 -0.0923
 5330W        W21139  14.547   2.575   4.975 -0.3630  0.0086  0.0913
 5331W        W21140   9.730   0.054  13.790 -0.2748  0.3003 -0.0770
 5332W        W21141   4.881  16.529   3.963  0.0863 -0.1263 -0.0143
 5333W        W21142   4.287  17.598  15.273  0.2605 -0.1164  0.0549
 5334W        W21143   4.051   9.751   4.038 -0.2112 -0.0656  0.0235
 5335W        W21144  12.405  12.910  15.257  0.3152  0.0099  0.1932
 5336W        W21145  11.192  17.729   4.064 -0.2722  0.0396 -0.2681
 5337W        W21146   4.574  11.905   0.894  0.0499  0.0301 -0.3128
 5338W        W21147   8.314  17.196  12.226  0.1137  0.0092 -0.0502
 5339W        W21148   8.980  15.145  11.689  0.0288  0.1224 -0.0162
 5340W        W21149   1.676   2.404  12.357  0.1365 -0.0935 -0.0958
 5341W        W21150  11.274   9.857   4.318 -0.2239 -0.0672  0.1710
 5342W        W21151  16.910  12.645   1.229  0.2314 -0.0963  0.0205
 5343W        W21152  13.006   5.198   0.985  0.2982 -0.1764  0.2352
 5344W        W21153  13.735   0.534  12.368  0.1099 -0.1049  0.1849
 5345W        W21154   9.782  16.188  12.240  0.0993  0.2674  0.0819
 5346W        W21155  11.430   5.316   0.563  0.1870 -0.0375  0.2467
 5347W        W21156   3.298   9.310  15.300 -0.0903  0.0802  0.1352
 5348W        W21157   2.589   6.252  12.785 -0.0717 -0.2769 -0.2305
 5349W        W21158  12.855   9.215   3.444  0.0188 -0.0643  0.2333
 5350W        W21159   1.516   0.932   2.925 -0.1914 -0.0839 -0.1925
 5351W        W21160  13.056   3.882  15.772 -0.1900 -0.1628  0.0237
 5352W        W21161  14.062   9.050  11.916  0.2248  0.3526  0.2267
 5353W        W21162   3.815  12.661  11.390 -0.0976  0.0251  0.1505
 5354W        W21163   9.109  17.274   0.617  0.0358 -0.3569  0.1271
 5355W        W21164   5.186   3.853  13.426 -0.1555 -0.0874 -0.0676
 5356W        W21165   5.165   8.084   4.156 -0.0834 -0.0134  0.1020
 5357W        W21166   4.324  10.113   3.331 -0.1508  0.1878  0.1147
 5358W        W21167   6.885  12.707   3.710 -0.3189 -0.3181  0.0058
 5359W        W21168   7.865   8.302   2.758  0.4534 -0.0306 -0.1244
 5360W        W21169   9.487   3.174  12.938 -0.0350  0.0512 -0.1119
 5361W        W21170   0.835   7.193  13.508 -0.2582  0.0445 -0.1779
 5362W        W21171  17.867   7.974   0.869  0.1884  0.0479 -0.0389
 5363W        W21172  15.190  11.567   1.288 -0.2110  0.1314 -0.4840
 5364W        W21173   2.087   3.550   5.419  0.2258  0.0952  0.0638
 5365W        W21174   6.952  14.326   4.383 -0.3471 -0.2868 -0.1880
 5366W        W21175  14.779   2.471  15.179 -0.3300  0.1936  0.0816
 5367W        W21176   9.588   6.703  15.292  0.0416  0.0336  0.1786
 5368W        W21177   2.936   6.439  12.429  0.3705  0.1082  0.1581
 5369W        W21178  14.006   5.688   5.279 -0.0869  0.2264 -0.2078
 5370W        W21179   4.807   0.885  11.664  0.2910  0.2544 -0.1131
 5371W        W21180  11.564  16.576   5.670  0.3346 -0.3544 -0.4082
 5372W        W21181  11.915   5.486   5.493 -0.3963 -0.0118 -0.1657
 5373W        W21182  12.492  12.370  11.364  0.1606 -0.0188  0.0184
 5374W        W21183   6.855   5.942  10.345 -0.0721 -0.2404 -0.0295
 5375W        W21184  12.808   0.249  13.818 -0.0484  0.2583  0.0856
 5376W        W21185   3.836  16.951   3.135  0.1510  0.2388 -0.1961
 5377W        W21186  13.877   3.755   2.687 -0.1950 -0.1319 -0.1532
 5378W        W21187   8.166   0.346   1.103  0.2275 -0.2431  0.2261
 5379W        W21188   8.146  15.555  14.000 -0.1503  0.0822 -0.1791
 5380W        W21189  12.949   3.611   2.231 -0.1020 -0.2685 -0.0172
 5381W        W21190   7.201   7.730   1.596 -0.1235  0.0161  0.1646
 5382W        W21191  17.437  17.084  11.021 -0.1716  0.0551  0.1098
 5383W        W21192   1.901   8.921  14.485 -0.1449  0.1203  0.0056
 5384W        W21193  13.839  16.526   5.951  0.3181  0.0828 -0.0770
 5385W        W21194   3.221   2.287  13.949  0.3299 -0.1044 -0.0580
 5386W        W21195   1.134  13.129  15.404 -0.1581  0.0330  0.0770
 5387W        W21196   2.878   7.428   2.995 -0.0049  0.0365  0.2501
 5388W        W21197   2.203   7.895   5.300  0.0671 -0.1743  0.1020
 5389W        W21198   2.611  10.098   4.965 -0.1953 -0.0368  0.1590
 5390W        W21199   8.182   5.771   0.658 -0.0337  0.3467 -0.2556
 5391W        W21200   6.561  10.514   4.561  0.0687 -0.3078  0.1362
 5392W        W21201   2.956   6.568   1.924  0.0875 -0.0289  0.1482
 5393W        W21202  10.560   9.082  11.991  0.2249  0.1386 -0.0927
 5394W        W21203  15.212   6.176  15.355  0.0909 -0.1149  0.2799
 5395W        W21204   2.156   6.070   4.136 -0.2650  0.3094 -0.1134
 5396W        W21205  13.691   6.444  15.465  0.0846 -0.1171 -0.0716
 5397W        W21206  12.447  18.162   1.861 -0.1590 -0.0422 -0.0038
 5398W        W21207  12.059  14.931   4.360 -0.1113 -0.1747 -0.0716
 5399W        W21208  15.705  17.315  12.182  0.2469 -0.1980 -0.1278
 5400W        W21209   5.615  11.222   5.160  0.1475  0.2143 -0.0297
 5401W        W21210  12.158  10.794  15.150 -0.2365  0.2070  0.1650
 5402W        W21211   3.225   7.150   6.330  0.1681 -0.2137 -0.1748
 5403W        W21212   9.236  15.767  15.431  0.1510 -0.1862 -0.1381
 5404W        W21213   4.235   8.978   3.960  0.0773 -0.0628 -0.0757
 5405W        W21214   2.812  14.052  13.375  0.1681 -0.2017 -0.1417
 5406W        W21215   0.921   4.833   3.016  0.1426  0.0399 -0.0075
 5407W        W21216   7.978   8.324   0.042  0.0522  0.1477 -0.2391
 5408W        W21217  18.109  11.134  10.084 -0.0049  0.2034 -0.1554
 5409W        W21218   6.526  10.049   0.284  0.2785  0.3819  0.0127
 5410W        W21219  13.420  15.433   5.725  0.0349  0.0508 -0.0442
 5411W        W21220  13.743   3.094  15.120  0.2954 -0.1013  0.1365
 5412W        W21221  15.874   6.552  11.462 -0.1275 -0.1125 -0.0406
 5413W        W21222  16.984   4.421   3.785 -0.3345 -0.0261 -0.1044
 5414W        W21223   6.349  11.913   1.449  0.0880 -0.2900  0.1268
 5415W        W21224   0.396  13.984  12.991 -0.1474  0.1425  0.3301
 5416W        W21225   1.374   1.453   0.391  0.3473 -0.1836 -0.2060
 5417W        W21226   4.721   9.881  11.325  0.0606  0.0135 -0.0049
 5418W        W21227  10.013   6.423   3.343 -0.1978  0.0782 -0.0387
 5419W        W21228  15.406   0.009  12.393 -0.0215  0.1845  0.0651
 5420W        W21229  17.347   4.658   4.078  0.1437  0.0105 -0.1418
 5421W        W21230  16.248   9.478   3.550 -0.1093 -0.0414 -0.0909
 5422W        W21231   3.724   6.145   1.947 -0.2247 -0.3214  0.1805
 5423W        W21232   8.758  13.494   0.762 -0.0976  0.1227  0.1758
 5424W        W21233   4.221  10.198   2.011  0.1964  0.2744 -0.1824
 5425W        W21234   0.733   2.194  12.688 -0.0436 -0.0311  0.0237
 5426W        W21235   7.045  17.235   5.409  0.1672  0.2965 -0.0746
 5427W        W21236   9.799  17.939  11.760 -0.0687 -0.0073  0.1380
 5428W        W21237  15.954   5.226   4.307  0.2312 -0.0232  0.0423
 5429W        W21238   9.227   1.780   2.437  0.3109  0.1529  0.1690
 5430W        W21239   5.342  18.172   3.147 -0.3112 -0.2567 -0.1388
 5431W        W21240   6.305  11.525   0.861 -0.0039 -0.0757 -0.0692
 5432W        W21241   5.674   2.788   0.794  0.0732 -0.0280 -0.1973
 5433W        W21242   2.179   2.391  13.890  0.0155 -0.0967  0.1097
 5434W        W21243   6.725  14.919  14.932 -0.2818  0.2757 -0.0542
 5435W        W21244  12.445   5.856  14.875 -0.1658 -0.0707  0.0978
 5436W        W21245   7.720  12.631   3.284 -0.0658  0.1457  0.1130
 5437W        W21246   6.129  16.689  11.951  0.1066 -0.0735 -0.0744
 5438W        W21247   9.802   9.979  14.989  0.1115 -0.0948  0.0805
 5439W        W21248  16.218  15.314   3.076  0.0610  0.4830  0.0362
 5440W        W21249   0.515   1.649   1.516  0.0584  0.3135 -0.0183
 5441W        W21250   4.976   7.513   3.966  0.1035  0.2004  0.0279
 5442W        W21251   0.902   5.071   3.566  0.1718 -0.1802 -0.0273
 5443W        W21252   6.295  17.094  14.313  0.1118 -0.0129  0.0476
 5444W        W21253  17.736   8.078  13.931  0.1486  0.1759 -0.1563
 5445W        W21254   9.713  18.403   0.514 -0.0196  0.0490  0.1543
 5446W        W21255  17.196   8.059   1.647  0.2623  0.0955  0.2156
 5447W        W21256   6.364   0.362   3.772  0.1638 -0.0220  0.3408
 5448W        W21257   5.165  11.285  13.055 -0.1937 -0.0491  0.0583
 5449W        W21258  13.159   2.651  11.603  0.1001  0.1227  0.0426
 5450W        W21259   5.630  14.744  10.905  0.2118 -0.3965  0.1323
 5451W        W21260   2.605   6.456   2.234  0.2181  0.1060 -0.2709
 5452W        W21261  14.982   3.127   0.470 -0.3801  0.0329 -0.1090
 5453W        W21262  18.452  18.143  14.189  0.1577 -0.1649 -0.1928
 5454W        W21263   3.437   1.836   9.937  0.0067 -0.4361 -0.2673
 5455W        W21264   2.818   5.188  12.731 -0.1091 -0.0513 -0.0014
 5456W        W21265  16.242   0.373  12.001 -0.0348 -0.1548  0.2031
 5457W        W21266  10.864  10.788  10.470  0.0394  0.1527  0.1549
 5458W        W21267   4.176   1.362  11.050  0.0648 -0.1022 -0.0365
 5459W        W21268   9.044   6.138  14.569  0.1508  0.0061  0.1427
 5460W        W21269   8.494  16.305  14.994 -0.1474  0.1411 -0.2884
 5461W        W21270  17.511  12.923  12.729 -0.1162 -0.1747  0.1305
 5462W        W21271   7.668   8.062   3.490  0.2365  0.1190 -0.2643
 5463W        W21272  17.838   8.412  15.628  0.1746  0.0658 -0.0592
 5464W        W21273   5.980   2.166   0.223 -0.1428  0.0190  0.0900
 5465W        W21274   7.927   3.147   1.959 -0.1489 -0.0247 -0.0395
 5466W        W21275   6.764   2.340   4.277 -0.1643 -0.1750 -0.1087
 5467W        W21276   4.603  10.633  14.775  0.2732  0.1911 -0.0924
 5468W        W21277   1.310  15.289  11.842  0.0895 -0.0300 -0.0035
 5469W        W21278   3.052  16.761  14.232  0.2460  0.1474  0.1761
 5470W        W21279  11.380  17.681   2.724 -0.2782 -0.1218 -0.0213
 5471W        W21280   7.932   8.883  11.376 -0.3216  0.1242  0.0871
 5472W        W21281   4.574   8.617   3.328 -0.0882 -0.2688 -0.3542
 5473W        W21282   0.532  17.167  15.300  0.0181  0.2630  0.1836
 5474W        W21283   4.599  17.983  12.400  0.2922  0.0948 -0.0750
 5475W        W21284  12.954   3.411   1.154 -0.1077 -0.0370  0.3322
 5476W        W21285  10.017   1.400   0.376  0.2704 -0.0848 -0.1759
 5477W        W21286   1.056   9.236   2.765 -0.2045  0.3348 -0.0607
 5478W        W21287   5.747  16.318  11.759  0.1610  0.1984  0.0878
 5479W        W21288  12.671  17.106   2.657  0.3120 -0.2010  0.1414
 5480W        W21289  18.141  11.211  12.354 -0.0909 -0.2980 -0.0398
 5481W        W21290   4.029   5.320   2.246 -0.0446  0.0387 -0.1513
 5482W        W21291  17.379   8.965  15.077 -0.2973 -0.3052 -0.2587
 5483W        W21292   3.642   4.454  13.401  0.0743 -0.1989 -0.1006
 5484W        W21293   8.103  17.690  13.910  0.2372 -0.2977 -0.0779
 5485W        W21294  10.288  14.078  13.215 -0.1296 -0.4522 -0.0582
 5486W        W21295   3.405  15.428  11.768  0.1318 -0.0411 -0.1404
 5487W        W21296   1.058  10.452  13.481  0.0820  0.0425  0.2815
 5488W        W21297   2.529   8.609  10.054  0.0423  0.1198 -0.1801
 5489W        W21298  15.602  15.492  10.822 -0.1589  0.1763 -0.6075
 5490W        W21299  17.863   7.182  12.435 -0.2745  0.0617  0.0558
 5491W        W21300   9.405  13.740  12.484  0.1735 -0.0786 -0.1815
 5492W        W21301  13.228   4.770   0.740 -0.0547 -0.0873 -0.1698
 5493W        W21302   2.060  13.535   3.725 -0.2736 -0.0317  0.1366
 5494W        W21303  13.254  16.481  12.237  0.0559 -0.0483 -0.0932
 5495W        W21304   9.017  15.741  13.339 -0.1622  0.3409 -0.1439
 5496W        W21305   0.881  16.445   1.298 -0.0546 -0.1981  0.0597
 5497W        W21306   2.711   1.434  13.402  0.1630 -0.2560 -0.4964
 5498W        W21307   6.326  16.602  14.650  0.0320 -0.0082 -0.1605
 5499W        W21308  10.291  14.779  13.732  0.0897  0.1174 -0.0856
 5500W        W21309   3.182  13.289   0.829  0.1235  0.0256  0.0955
 5501W        W21310   3.140   4.680  12.169 -0.0290  0.2323 -0.0724
 5502W        W21311   5.395   7.950   1.430  0.2880  0.0917 -0.2740
 5503W        W21312  12.417  13.041  12.588  0.0466  0.1487  0.3403
 5504W        W21313   5.272  17.228   3.319 -0.0122 -0.0268 -0.3284
 5505W        W21314  15.130   4.825   1.775  0.0493  0.0098 -0.0210
 5506W        W21315   4.323   1.583  12.855  0.0089 -0.1354 -0.0834
 5507W        W21316  12.947  18.338   2.166 -0.0473 -0.2459 -0.2402
 5508W        W21317  13.754   0.744  12.861 -0.4088  0.0090 -0.0925
 5509W        W21318  15.434  13.399  15.319  0.0501  0.0560 -0.2340
 5510W        W21319  15.139  13.502   5.292 -0.1808  0.3130  0.3587
 5511W        W21320   2.910   1.242   0.629 -0.2117  0.0945 -0.2464
 5512W        W21321   2.013  17.998   3.650  0.0349 -0.2329  0.0133
 5513W        W21322  11.970  17.892  11.720 -0.0993  0.0337  0.0913
 5514W        W21323  11.128   7.940  12.453  0.1449  0.2323 -0.1319
 5515W        W21324  11.697   0.740  13.409 -0.0046  0.2339  0.0060
 5516W        W21325   8.028   5.844  11.821 -0.2049  0.1344 -0.1801
 5517W        W21326   5.921  13.572   4.369 -0.1255  0.1475  0.0136
 5518W        W21327  10.547  15.898   3.116 -0.0057 -0.0839  0.3444
 5519W        W21328   3.991   5.881   0.671 -0.0548  0.0364  0.0328
 5520W        W21329   1.879  13.409  11.154 -0.0093  0.3983  0.2974
 5521W        W21330  16.224   4.367   2.351 -0.1903 -0.2016  0.0245
 5522W        W21331   8.919  13.631  12.285 -0.1642  0.1172  0.1621
 5523W        W21332  11.083  15.621   1.188  0.1449  0.2285 -0.0200
 5524W        W21333  11.959  12.631   3.913  0.2586  0.1893 -0.1389
 5525W        W21334   0.789   6.164   4.577 -0.3117 -0.0277 -0.3536
 5526W        W21335  12.621   8.942   1.622  0.0031 -0.2627 -0.0249
 5527W        W21336   5.251   2.739  10.192  0.3175  0.1208 -0.0852
 5528W        W21337   8.443  15.099   1.452  0.0004 -0.0251 -0.1276
 5529W        W21338   8.383   0.077  12.776  0.1037  0.2302 -0.0148
 5530W        W21339   5.868   7.950   5.875  0.0894 -0.0337  0.1335
 5531W        W21340   4.060   6.017  13.068 -0.1825 -0.0448 -0.0475
 5532W        W21341  14.693   7.987   3.063  0.0863  0.0516  0.0011
 5533W        W21342  13.591  11.024  11.275  0.0257  0.1752 -0.1704
 5534W        W21343  11.950  11.278  15.394 -0.0315 -0.2831 -0.0798
 5535W        W21344  11.541   2.102  15.310 -0.4111  0.0044  0.1623
 5536W        W21345  15.940  10.845  12.521 -0.1088  0.0893 -0.0033
 5537W        W21346   7.203   4.766  13.783 -0.4541 -0.0353  0.1905
 5538W        W21347  11.143  15.203  12.118 -0.0643  0.1065  0.0276
 5539W        W21348  14.671   5.156   2.919 -0.3831  0.1333 -0.1454
 5540W        W21349  11.575  17.859   5.333  0.0203  0.1742 -0.0292
 5541W        W21350  11.803   4.813   4.889  0.1073 -0.1626 -0.1902
 5542W        W21351   2.273  15.211  10.762  0.1907  0.2641  0.3092
 5543W        W21352  15.595   3.275   6.221 -0.1360 -0.0097 -0.0459
 5544W        W21353   6.141  17.823  14.549  0.0462 -0.0772  0.1501
 5545W        W21354   1.465   7.925   0.833  0.0597 -0.0527 -0.0508
 5546W        W21355  14.905  17.173   1.648  0.2409  0.1100  0.2200
 5547W        W21356   8.053  18.007  11.534  0.0122  0.1376  0.0153
 5548W        W21357   2.453   2.922  11.257  0.1124  0.0863  0.2836
 5549W        W21358   0.094   4.672   0.914  0.0211 -0.0580 -0.0670
 5550W        W21359   7.334   5.303   5.230 -0.4580 -0.1351  0.3327
 5551W        W21360   5.014   2.511  11.151 -0.2565 -0.1413 -0.0398
 5552W        W21361   8.698  15.561   1.423 -0.2585  0.0426 -0.0554
 5553W        W21362   7.680   4.453  11.797  0.2335  0.1179  0.0894
 5554W        W21363   8.342   8.606   3.888 -0.2777  0.0108  0.1575
 5555W        W21364   9.675  11.243   4.882  0.1451  0.0979 -0.0658
 5556W        W21365   3.709  11.411  14.387 -0.3655  0.1524 -0.0226
 5557W        W21366   8.188  16.561   1.362  0.2134 -0.1168  0.1074
 5558W        W21367  10.553  10.207  13.803  0.1981 -0.1004 -0.2066
 5559W        W21368   3.345   0.716   9.798 -0.2378 -0.0787 -0.0879
 5560W        W21369  10.623  10.253  11.421  0.2463 -0.1186 -0.1309
 5561W        W21370   6.290   3.700  15.357 -0.4839  0.1975  0.1227
 5562W        W21371  12.315  11.952  14.227 -0.0091  0.1148 -0.0983
 5563W        W21372  17.360   9.948  15.386 -0.0833 -0.1015 -0.0982
 5564W        W21373   6.052  11.111  14.720  0.0911 -0.2168  0.1187
 5565W        W21374  11.578  16.362  15.038  0.1734 -0.1855  0.0458
 5566W        W21375  14.693   8.624  11.216  0.0053 -0.0219  0.0091
 5567W        W21376  11.575   3.564  11.483 -0.2272 -0.0837  0.2693
 5568W        W21377   5.683  14.546   2.277 -0.4275 -0.0425  0.0315
 5569W        W21378   1.558  16.057   4.424 -0.3592 -0.0307 -0.1479
 5570W        W21379  14.510   0.337   5.404  0.2403 -0.0761  0.3196
 5571W        W21380  10.299  17.601   5.714 -0.1174 -0.0361 -0.0480
 5572W        W21381  13.616   6.767  13.434  0.0337 -0.3042  0.0572
 5573W        W21382   6.968  15.380  13.485  0.2269 -0.0625 -0.2016
 5574W        W21383   2.434   6.223  15.131 -0.2482  0.1212  0.2203
 5575W        W21384  10.054  17.478   4.024  0.0226 -0.0675 -0.2170
 5576W        W21385   3.333  13.177  12.098  0.1231 -0.0255  0.0139
 5577W        W21386  12.887  14.744  10.818 -0.3775 -0.0215  0.0005
 5578W        W21387   0.493   7.666  11.233 -0.0778 -0.2226 -0.0679
 5579W        W21388   9.528   5.130   4.311 -0.0492 -0.1462  0.1557
 5580W        W21389  10.746   7.829  13.350  0.1409 -0.1838 -0.1372
 5581W        W21390  14.116  15.727  12.669  0.0865 -0.1784  0.2655
 5582W        W21391   3.678  17.988  13.078  0.1138  0.0467 -0.1281
 5583W        W21392  16.901   5.974  13.382  0.1872  0.4355  0.1581
 5584W        W21393  14.936   0.724   4.643 -0.0937  0.2965  0.0136
 5585W        W21394   3.118   4.985   1.558 -0.0756 -0.1976  0.0208
 5586W        W21395   3.917   7.345   4.018  0.0414 -0.0285 -0.1151
 5587W        W21396  17.546   6.986   0.792  0.0755  0.2508 -0.0237
 5588W        W21397  14.223  17.899  13.579 -0.0192 -0.2021 -0.0308
 5589W        W21398   3.631  15.476  11.352  0.0812 -0.1333  0.1716
 5590W        W21399   9.022  11.844  13.926  0.2194 -0.0124  0.1991
 5591W        W21400  16.647   2.390   5.349  0.0610 -0.2203 -0.2333
 5592W        W21401  14.437  13.222   4.525 -0.0835 -0.1916  0.1309
 5593W        W21402  10.394   7.023  11.208 -0.1468  0.0232 -0.0541
 5594W        W21403  17.953  13.886  10.844 -0.0043 -0.0897  0.3036
 5595W        W21404   1.449   5.217   2.462 -0.0021  0.2121  0.0945
 5596W        W21405  12.976   1.547  14.714  0.0043 -0.0698  0.0461
 5597W        W21406   9.673   7.481   3.717 -0.0720 -0.0369  0.1863
 5598W        W21407  10.218  15.924   5.156 -0.1546  0.4672 -0.1634
 5599W        W21408  10.296  13.889   2.809 -0.1071 -0.0954 -0.0886
 5600W        W21409   8.478   2.969  15.611  0.0295  0.1046 -0.2377
 5601W        W21410  11.325  16.921   5.338  0.0615 -0.1018  0.2335
 5602W        W21411  11.029  16.565   1.284 -0.0994 -0.1375 -0.1250
 5603W        W21412   2.799   8.347  13.944 -0.1640 -0.0703 -0.1068
 5604W        W21413   8.702  17.427   4.135 -0.3152 -0.0217 -0.1107
 5605W        W21414  11.384  17.332   1.990  0.2296  0.2529 -0.0595
 5606W        W21415   4.261   0.678   0.298 -0.0162 -0.1398  0.0059
 5607W        W21416   3.282   7.982  13.447  0.3475  0.0549 -0.0357
 5608W        W21417  15.524  13.616  12.617  0.0672  0.1379  0.2870
 5609W        W21418   6.651  18.313   1.668  0.2094 -0.4372 -0.2270
 5610W        W21419  14.635   8.084  12.017  0.0259 -0.1439 -0.0186
 5611W        W21420  13.925  15.603  14.495 -0.0337  0.2342  0.2649
 5612W        W21421   3.167  12.687  12.368  0.2843 -0.2727  0.0318
 5613W        W21422   4.221  15.727   3.973 -0.2274  0.1277 -0.0279
 5614W        W21423   5.877   2.514   2.226 -0.0241 -0.0044  0.1018
 5615W        W21424  17.419  17.696  14.876 -0.0885 -0.1327 -0.2645
 5616W        W21425  13.502  12.786   4.780  0.0962  0.1554  0.1040
 5617W        W21426   6.023  11.886   5.455 -0.1974  0.3594 -0.1765
 5618W        W21427  14.415  16.902  13.552  0.1560  0.0787  0.1283
 5619W        W21428   6.900  17.380   1.436  0.1991  0.0013  0.2233
 5620W        W21429   4.790  18.324  15.156  0.2618  0.0644 -0.1067
 5621W        W21430   1.659  17.650   2.572  0.1157 -0.1538 -0.0624
 5622W        W21431  11.486  17.249  14.113 -0.0715 -0.0316  0.0656
 5623W        W21432   2.830   6.986   3.188  0.1981 -0.1356 -0.0265
 5624W        W21433   1.007   4.423   4.824 -0.1283  0.1305  0.0850
 5625W        W21434  11.191   8.383   5.411 -0.0164 -0.2129 -0.2390
 5626W        W21435  16.108  18.455   3.741  0.3009  0.4749  0.0856
 5627W        W21436  16.329   0.912   2.020 -0.0848 -0.0495  0.1128
 5628W        W21437  16.271   9.650   2.376  0.1668 -0.2308  0.0731
 5629W        W21438   4.338  10.137  12.240  0.1909  0.0396  0.0919
 5630W        W21439   3.976  15.986  15.618  0.2951  0.1540  0.1441
 5631W        W21440  12.075   5.447   2.324  0.0462 -0.1196 -0.3403
 5632W        W21441  17.247   5.062   4.814  0.1341 -0.0755  0.0057
 5633W        W21442   4.340   5.102  15.220  0.2289 -0.0568  0.0598
 5634W        W21443  13.501   3.025  14.032  0.2854 -0.0010 -0.1492
 5635W        W21444   1.513  14.586  10.650  0.1405 -0.0716  0.0850
 5636W        W21445  18.372   1.270   3.520  0.1989 -0.0553 -0.1812
 5637W        W21446   8.027  13.919  14.823  0.1455  0.0858  0.0167
 5638W        W21447   1.734   0.354  14.198 -0.3870 -0.1385  0.4083
 5639W        W21448  11.424  18.238   1.452  0.0271  0.1247 -0.1614
 5640W        W21449  17.605   4.453   0.546  0.0276 -0.1453  0.2632
 5641W        W21450  13.271  15.245  14.245 -0.0543 -0.1018 -0.1248
 5642W        W21451  11.938  13.011  11.229  0.1533 -0.1266  0.0129
 5643W        W21452   2.452  17.225   4.094 -0.0173  0.2164 -0.1572
 5644W        W21453   3.902   2.233  12.802  0.0012 -0.1575 -0.2131
 5645W        W21454   9.237  13.318  13.591 -0.0649 -0.0889 -0.3535
 5646W        W21455   5.609  17.488  11.511  0.0954  0.0784  0.1209
 5647W        W21456   6.457   6.823   2.110  0.0276 -0.1392 -0.1376
 5648W        W21457   8.555  12.406   3.678 -0.0969  0.1695  0.2526
 5649W        W21458  14.320   0.401  11.508 -0.3557 -0.0935  0.1304
 5650W        W21459  13.072  12.024  11.571  0.1670 -0.0882  0.1518
 5651W        W21460  14.478  11.996  11.461 -0.2860 -0.1631 -0.2487
 5652W        W21461  15.620  17.877   3.039  0.1902  0.0203 -0.1132
 5653W        W21462   2.770  14.540  15.522 -0.0348  0.1038 -0.0184
 5654W        W21463  10.547  15.465   1.998  0.1818  0.0635 -0.1117
 5655W        W21464  10.605   0.644  14.090  0.3861 -0.1161 -0.0766
 5656W        W21465  13.616  12.804   2.244  0.0758 -0.1123 -0.0763
 5657W        W21466  14.280   8.085  12.902  0.1692 -0.0343  0.2811
 5658W        W21467   4.330  12.767   5.051 -0.0307 -0.1165  0.2085
 5659W        W21468   2.130  15.594  11.983 -0.2818  0.0698  0.0019
 5660W        W21469   1.607   1.759   0.882  0.1936  0.2198 -0.1780
 5661W        W21470   9.045  10.181   1.386 -0.0887  0.0493  0.1440
 5662W        W21471   8.638   6.527   3.938 -0.0477  0.3172  0.0625
 5663W        W21472   5.636   1.631   0.416  0.3901 -0.1343 -0.0151
 5664W        W21473  17.863  10.357  13.800  0.1259  0.0860 -0.1323
 5665W        W21474   3.496  14.199   3.143 -0.1774 -0.2008  0.2098
 5666W        W21475  11.379  16.168   1.317 -0.1435  0.0296  0.1306
 5667W        W21476   6.417  15.342  15.437  0.0325 -0.1323  0.1733
 5668W        W21477  17.611  16.404  13.076 -0.0273  0.1984  0.0566
 5669W        W21478  10.168   9.821   3.424 -0.1408 -0.0470 -0.1650
 5670W        W21479   0.867  16.576   4.251 -0.1785 -0.1295 -0.4083
 5671W        W21480   8.504  11.224  11.995 -0.0274  0.4291  0.2764
 5672W        W21481   4.855  13.239   4.629 -0.1511  0.2147 -0.1894
 5673W        W21482   3.791   4.200  11.613 -0.0206  0.0725  0.1665
 5674W        W21483  11.000  14.378  13.923 -0.0267  0.0605 -0.3259
 5675W        W21484   6.332  11.442   4.687 -0.0178  0.0815  0.1950
 5676W        W21485   5.079  12.804   4.419 -0.5207  0.0297  0.0784
 5677W        W21486   6.720  17.721  15.630  0.3871 -0.0273  0.3089
 5678W        W21487  18.286   7.427  12.306 -0.0053  0.0388  0.0940
 5679W        W21488   7.384  17.762   0.928  0.0277  0.1038 -0.0312
 5680W        W21489   9.400   5.872   3.002 -0.1145  0.0107  0.1652
 5681W        W21490  11.929   0.222  14.270  0.1921  0.0875  0.0358
 5682W        W21491  12.122  12.659   2.759 -0.1435  0.2348  0.0408
 5683W        W21492  17.183   6.639   4.006 -0.0104  0.0673  0.0653
 5684W        W21493  16.177  15.962   4.544  0.2416 -0.1854  0.3482
 5685W        W21494  12.009  16.413   1.127 -0.0168  0.0253  0.0035
 5686W        W21495  11.187  13.596  14.459  0.0327  0.1469 -0.0551
 5687W        W21496  13.995  13.760  11.123 -0.0646  0.0331 -0.0116
 5688W        W21497   4.293   5.385  11.526 -0.1399  0.1816 -0.0856
 5689W        W21498   3.763  14.139   2.333 -0.0212 -0.0177 -0.1654
 5690W        W21499  12.383  13.170  13.524  0.2185 -0.2552 -0.1841
 5691W        W21500  12.586   0.870  11.082 -0.0481 -0.2332 -0.0390
 5692W        W21501  11.945   3.067  15.456  0.1026  0.0063  0.0823
 5693W        W21502   1.584  15.210  15.506 -0.1017 -0.0692 -0.2540
 5694W        W21503   8.872  17.046  12.033 -0.1231  0.0765 -0.0058
 5695W        W21504  12.187   2.247   4.324  0.1071 -0.2830  0.0220
 5696W        W21505   7.577   6.087  11.860 -0.1452 -0.0668 -0.2900
 5697W        W21506  12.729   8.809  11.174  0.2190  0.1767  0.0059
 5698W        W21507   8.323   7.886   2.549 -0.0632 -0.0078  0.0687
 5699W        W21508   1.759   4.545   5.529 -0.0353  0.1427  0.2615
 5700W        W21509   5.794   1.773  15.817  0.2482 -0.1926 -0.0531
 5701W        W21510   5.806   7.094  12.665  0.2624  0.0756 -0.1052
 5702W        W21511   3.363   6.327  12.232 -0.3760 -0.1158 -0.0132
 5703W        W21512   1.069  11.398  14.053  0.0532 -0.0986  0.0266
 5704W        W21513  16.457   5.449  15.122  0.0561 -0.0990 -0.0248
 5705W        W21514  11.529   0.151   0.338  0.0432  0.0745  0.0168
 5706W        W21515  10.044  13.968   0.869 -0.0351 -0.2406  0.1184
 5707W        W21516  18.411  16.558   4.991 -0.0305  0.0953 -0.2698
 5708W        W21517   1.884  11.004   0.625  0.2302 -0.3669 -0.2605
 5709W        W21518   8.707   2.318   1.922  0.1082 -0.0454  0.0700
 5710W        W21519   6.223   3.863   0.397 -0.0956 -0.0964  0.0237
 5711W        W21520   3.005  11.299  12.457  0.3646 -0.0147  0.1734
 5712W        W21521  17.327  13.387   1.499  0.4655 -0.0041 -0.2513
 5713W        W21522   6.978   7.540   2.550 -0.0346  0.2012 -0.1330
 5714W        W21523  13.046   0.107   1.105  0.1224  0.2582  0.3367
 5715W        W21524  18.254   4.196   4.193  0.0982  0.0528 -0.1665
 5716W        W21525  10.221  10.307  12.284  0.1793 -0.1646  0.0112
 5717W        W21526  11.480  11.973   0.619 -0.0800  0.0225  0.0690
 5718W        W21527   0.411   7.167   5.895 -0.3832  0.1156  0.1163
 5719W        W21528   0.943  10.242  11.654 -0.2030  0.0389  0.0621
 5720W        W21529   5.873   0.901   4.607 -0.0931 -0.0488 -0.1240
 5721W        W21530   4.663  11.007   0.951  0.0889 -0.0519 -0.0000
 5722W        W21531   4.366  13.855   1.994  0.0344  0.0440  0.0521
 5723W        W21532   2.319   2.180   2.607 -0.0838 -0.1823 -0.0248
 5724W        W21533  17.349   8.639   4.585 -0.0886  0.1109  0.0163
 5725W        W21534  16.567   2.895   0.811 -0.1745  0.2726 -0.2347
 5726W        W21535  11.087   4.759   3.728  0.1812  0.0163  0.2536
 5727W        W21536  16.823  16.841  12.367 -0.0951  0.0087 -0.4167
 5728W        W21537   6.693   3.097  14.249  0.2009  0.0805 -0.3896
 5729W        W21538   5.861   7.641   0.015  0.1136 -0.0517  0.0986
 5730W        W21539  12.862  12.518   3.389  0.0543  0.0202  0.1433
 5731W        W21540  13.918  17.039  13.696  0.0744 -0.1379 -0.1512
 5732W        W21541   4.040  16.232   2.695 -0.0732 -0.1745  0.1940
 5733W        W21542  12.280  12.206  13.786 -0.0154  0.1799  0.3182
 5734W        W21543  16.176  13.334  11.095 -0.0034  0.1401 -0.1386
 5735W        W21544  10.241  12.514   0.837  0.1578 -0.1111 -0.1066
 5736W        W21545   4.700  14.176   2.285 -0.1226 -0.2007 -0.0391
 5737W        W21546   2.403  12.406  14.397 -0.0885  0.0445  0.2366
 5738W        W21547   5.054   1.504   1.597  0.0584 -0.0346  0.0895
 5739W        W21548  12.943   2.469   1.992 -0.0824  0.2096  0.0200
 5740W        W21549   4.488  14.369   5.513  0.2040  0.0449 -0.0262
 5741W        W21550   4.843  11.221  14.284  0.1837 -0.1472  0.1198
 5742W        W21551  10.448  10.680  14.692  0.2529 -0.0228  0.3078
 5743W        W21552  14.402   3.105   2.001  0.1901  0.4785 -0.3635
 5744W        W21553   9.572   4.680   0.173 -0.3047  0.0355  0.1987
 5745W        W21554   8.284   6.867   4.303 -0.0829  0.1375 -0.1003
 5746W        W21555   9.009   1.018   3.603 -0.2581  0.1495  0.0882
 5747W        W21556  12.130   5.476  11.659  0.0643 -0.3960  0.0627
 5748W        W21557   7.659   5.417   1.214 -0.2676  0.2129  0.0536
 5749W        W21558  11.401  13.768  15.721 -0.0087 -0.1732  0.2320
 5750W        W21559   8.441   4.912  15.509 -0.0107  0.1273 -0.1999
 5751W        W21560  10.826   4.750  15.312 -0.0415  0.2983  0.1448
 5752W        W21561   5.684  14.166  13.785 -0.2799  0.0784 -0.2757
 5753W        W21562   9.680   1.034   5.130 -0.1323  0.1730  0.0914
 5754W        W21563  13.533  14.277  11.753  0.1160 -0.0552  0.1670
 5755W        W21564   8.541   8.966   5.132 -0.2567 -0.2226  0.0832
 5756W        W21565  14.889  16.035   0.367  0.2076  0.0161 -0.0302
 5757W        W21566  11.506  16.825   3.592  0.0649 -0.1135 -0.1906
 5758W        W21567   3.813  13.506   4.801  0.3084 -0.2081 -0.1142
 5759W        W21568   3.049   9.610   2.236 -0.1153 -0.1874 -0.2618
 5760W        W21569  16.721  11.076  14.421 -0.2209  0.0848 -0.1343
 5761W        W21570  12.686   1.284  14.354  0.1910 -0.0416 -0.0735
 5762W        W21571   3.587  13.261   2.326 -0.0651  0.0033 -0.2037
 5763W        W21572  10.369   7.449  11.474 -0.2556 -0.1052 -0.1653
 5764W        W21573   7.228  11.563  12.206 -0.0159  0.1073 -0.0571
 5765W        W21574  12.709   4.920  13.926 -0.0925  0.1158 -0.2181
 5766W        W21575   0.120  10.970  14.059  0.0338  0.0889  0.5955
 5767W        W21576  14.086  16.636  10.831  0.0989  0.0810  0.1671
 5768W        W21577  12.125   3.969  13.328  0.2711 -0.1069 -0.0363
 5769W        W21578   2.448  13.156  12.725  0.2160  0.2396  0.1583
 5770W        W21579   6.482   8.514   5.424  0.2002  0.1437 -0.0618
 5771W        W21580   6.073   1.036  15.572  0.0712 -0.0326 -0.0737
 5772W        W21581   4.979  15.033  15.101  0.0997  0.0232 -0.2777
 5773W        W21582  14.092  12.549   5.136 -0.0844  0.1426 -0.2630
 5774W        W21583  17.410   9.885  13.212 -0.0240  0.0030  0.0161
 5775W        W21584   8.916  16.037  15.757  0.2328  0.0823  0.0450
 5776W        W21585  11.852   4.480  12.695 -0.2562 -0.2695  0.0575
 5777W        W21586   5.709   3.317  12.262 -0.0580 -0.0873 -0.1042
 5778W        W21587   4.616  17.383   3.177  0.2556 -0.0592  0.0890
 5779W        W21588   5.894   4.402   3.088  0.0165  0.1475 -0.3268
 5780W        W21589  11.074  16.166  10.391  0.3953  0.0219  0.0058
 5781W        W21590  15.280   3.994  10.559  0.3044 -0.2083 -0.0035
 5782W        W21591   6.690   8.872  14.589 -0.0656  0.1603  0.0357
 5783W        W21592   3.279  14.984   4.326  0.3141 -0.0496  0.0255
 5784W        W21593   6.147   3.276   5.335 -0.0791 -0.0349 -0.1290
 5785W        W21594  10.620   4.845   1.354  0.2429  0.1565 -0.0432
 5786W        W21595   9.540   2.401   2.470 -0.0035  0.0860  0.0949
 5787W        W21596  10.113   1.163   3.485 -0.2924 -0.1370  0.0184
 5788W        W21597   6.536  13.283  13.650 -0.0135 -0.0716 -0.1024
 5789W        W21598   3.832  14.668   4.356 -0.0278  0.0772  0.2579
 5790W        W21599   4.537   0.600   1.583 -0.2376  0.0646  0.1164
 5791W        W21600  14.246   0.044   3.416 -0.1879 -0.3512  0.1927
 5792W        W21601   8.634   3.674  12.551 -0.2518 -0.2406  0.4126
 5793W        W21602   4.840  14.444   4.271 -0.0104  0.1757  0.2940
 5794W        W21603   1.365  15.617   3.466  0.2734 -0.0214  0.2962
 5795W        W21604   7.068  13.836  14.769  0.1126  0.0765 -0.0990
 5796W        W21605   0.496   0.005  15.557  0.0101 -0.0043 -0.1573
 5797W        W21606   5.289  17.892   1.891 -0.1537 -0.1212  0.1388
 5798W        W21607   1.425   8.499   0.803  0.2134 -0.0654  0.0387
 5799W        W21608   4.162   2.464  10.825 -0.1024 -0.3175  0.3379
 5800W        W21609  12.970   5.718   2.566 -0.1194 -0.0176  0.1405
 5801W        W21610  17.262  13.847   0.714  0.1070 -0.1077 -0.1849
 5802W        W21611   5.207  17.117  11.560 -0.1732 -0.2777  0.2112
 5803W        W21612  13.103   9.086   0.711  0.0484  0.0136 -0.1699
 5804W        W21613   8.421   4.356   4.231 -0.2009  0.2060 -0.1158
 5805W        W21614  17.542   1.667  12.868 -0.0840  0.2487  0.0375
 5806W        W21615   9.418   4.082  14.717 -0.2757  0.2259  0.2974
 5807W        W21616   2.269   4.755  13.713  0.1633  0.1307 -0.0627
 5808W        W21617   1.100   1.287  12.957 -0.1674  0.0187  0.0782
 5809W        W21618   2.138   6.717  11.916  0.3708 -0.0680  0.3225
 5810W        W21619  12.129   3.216  14.907 -0.0803 -0.4300 -0.0423
 5811W        W21620   0.014   4.766   6.242 -0.0861 -0.0345 -0.1196
 5812W        W21621   6.145  16.401  11.411  0.1609 -0.1628 -0.0453
 5813W        W21622   1.164   9.247   4.379 -0.2565 -0.0659 -0.1066
 5814W        W21623   2.486  17.294   3.571  0.2292 -0.0535 -0.1377
 5815W        W21624  18.078   6.970   4.170 -0.1487 -0.1169  0.1613
 5816W        W21625   3.823  10.921  12.094 -0.3631 -0.0533  0.0905
 5817W        W21626  17.984   9.825  13.609  0.1430  0.2214 -0.0827
 5818W        W21627   5.600  17.180   3.689 -0.2900 -0.2516  0.0504
 5819W        W21628   3.902   2.261  13.393 -0.2008  0.2245 -0.1197
 5820W        W21629   2.583  15.795   2.483  0.0640  0.0434 -0.1079
 5821W        W21630  13.093   9.826   4.424  0.2670 -0.1945  0.2440
 5822W        W21631   4.215   7.564  13.964  0.2339  0.0082  0.4295
 5823W        W21632   4.087  12.030  14.881 -0.0404  0.0681 -0.0353
 5824W        W21633   6.794  17.523  13.250 -0.1812  0.1226  0.0291
 5825W        W21634  15.852  17.552  15.827 -0.2720  0.0261 -0.0875
 5826W        W21635   3.942   0.429   1.903 -0.1435  0.0624  0.2899
 5827W        W21636  10.236  10.954  12.554  0.2133 -0.1366 -0.1613
 5828W        W21637  16.534  13.657  15.605 -0.0401 -0.0697  0.2281
 5829W        W21638  14.953   9.402  15.725  0.0963 -0.1038  0.0945
 5830W        W21639   9.602   1.476   0.089 -0.0915  0.0396 -0.0211
 5831W        W21640   0.813   0.883  12.200  0.0007 -0.0944 -0.0997
 5832W        W21641   3.178   7.212  14.837  0.0093  0.1107 -0.0348
 5833W        W21642  15.454   5.298  12.839  0.4125  0.0500 -0.4608
 5834W        W21643  14.585  10.771   0.294  0.0428 -0.0965 -0.1441
 5835W        W21644   7.029   1.400   4.697 -0.1689  0.0735 -0.2573
 5836W        W21645   2.777   2.155  14.158 -0.0760 -0.0101 -0.1522
 5837W        W21646  12.097   3.051   1.116 -0.2936 -0.3746  0.1558
 5838W        W21647  14.787   1.088   4.997  0.4244 -0.0467  0.0461
 5839W        W21648  13.826  17.222  14.607 -0.2260 -0.0106 -0.0403
 5840W        W21649   6.328   4.509   2.032  0.1101 -0.0421 -0.1369
 5841W        W21650   4.668  13.275  11.390  0.0834 -0.1881  0.1886
 5842W        W21651   6.899  14.978  14.416 -0.1476  0.0241 -0.2214
 5843W        W21652   6.311   4.932  11.068 -0.2018 -0.0844  0.1538
 5844W        W21653  11.173  17.837  11.173 -0.1175 -0.0451 -0.1033
 5845W        W21654   8.941  17.251   2.748  0.1757  0.1368  0.0829
 5846W        W21655   3.760   3.092   1.139 -0.0225 -0.0622  0.0873
 5847W        W21656  10.573   6.455  13.460  0.3880 -0.1344  0.2492
 5848W        W21657   6.267   0.634  15.838  0.0176 -0.0269 -0.0459
 5849W        W21658  14.679   4.945   1.523  0.0693 -0.0792  0.1150
 5850W        W21659   8.238  14.610  10.350  0.0430  0.6443  0.0287
 5851W        W21660   4.449   7.963  14.848  0.0663 -0.0537 -0.2911
 5852W        W21661   2.685  10.038   5.999  0.0708 -0.1488  0.2233
 5853W        W21662  12.037   2.640  15.806  0.1444 -0.2671 -0.1016
 5854W        W21663   2.759   7.617   0.709  0.3636 -0.3846  0.3108
 5855W        W21664  14.258   1.994   2.942  0.0824  0.1846 -0.1417
 5856W        W21665  13.677   4.191  14.396 -0.0552  0.0565 -0.0755
 5857W        W21666   0.079  11.454   1.330  0.1186 -0.2995  0.0754
 5858W        W21667   3.645   0.301  15.480 -0.0740  0.0741  0.0372
 5859W        W21668  15.559   2.404  11.019  0.3524 -0.2565 -0.1285
 5860W        W21669   1.769  14.437  11.694 -0.1020  0.0023  0.0147
 5861W        W21670   9.935   4.559   0.702 -0.3404 -0.0754  0.0919
 5862W        W21671   2.221  14.595  12.368 -0.0099 -0.2602 -0.0979
 5863W        W21672  15.888  17.840   0.363  0.0470 -0.3188  0.1092
 5864W        W21673   8.475  13.448   4.004 -0.1455 -0.1745  0.3303
 5865W        W21674   5.387   4.055  10.543  0.2080 -0.0135  0.4621
 5866W        W21675   4.704  12.425   1.748  0.2085 -0.1910  0.0843
 5867W        W21676   9.617  12.293  12.613 -0.1224  0.2087  0.1408
 5868W        W21677  14.391  13.703  15.688  0.0485 -0.2597 -0.1785
 5869W        W21678   5.008   5.262   4.483  0.2115 -0.0008  0.1889
 5870W        W21679  10.446  15.051   0.005 -0.3785  0.2571 -0.2268
 5871W        W21680  15.154   0.195   2.351 -0.0511 -0.1467  0.1870
 5872W        W21681  13.833  10.294  14.104 -0.2643  0.0825  0.0106
 5873W        W21682  15.457  15.953  14.862 -0.2831 -0.2761  0.0917
 5874W        W21683  11.974   7.726  12.137  0.0539  0.0059  0.1240
 5875W        W21684  11.784  13.697   3.606 -0.0971  0.1004  0.0804
 5876W        W21685   9.077  11.333  13.765 -0.0479 -0.3494  0.3094
 5877W        W21686  11.669  14.759   0.958  0.2174 -0.2558 -0.0256
 5878W        W21687  16.073   6.692  11.898 -0.0685 -0.2359  0.0343
 5879W        W21688   6.172  10.595  12.662 -0.0671  0.0316  0.1014
 5880W        W21689   6.824  18.202  15.376 -0.2286  0.1018  0.0893
 5881W        W21690  18.330  10.873  13.624  0.0421 -0.0648  0.1984
 5882W        W21691   1.975   2.178  15.473 -0.0380  0.2284 -0.0046
 5883W        W21692   0.629  18.240   4.629  0.0808 -0.3709 -0.0445
 5884W        W21693  14.716  17.169   2.861  0.1132  0.2252  0.1986
 5885W        W21694   7.299   0.530  11.227 -0.1161  0.3819 -0.0400
 5886W        W21695   0.026   6.540  12.691  0.0487 -0.4192  0.0114
 5887W        W21696   0.571   5.418  11.552 -0.1641  0.0275 -0.0331
 5888W        W21697  13.460   8.046  12.661 -0.0268 -0.2093  0.1472
 5889W        W21698   2.733   5.705  13.591 -0.2821 -0.1340  0.0338
 5890W        W21699   2.502  18.274   2.751  0.0164  0.0419 -0.1491
 5891W        W21700   8.921   5.538  14.561 -0.1002 -0.4013  0.1730
 5892W        W21701  15.750   8.773  15.591  0.0643 -0.2787  0.2893
 5893W        W21702   7.544   7.721  11.790  0.1007  0.2230  0.1340
 5894W        W21703   6.568   4.300   1.641 -0.3087  0.0190 -0.0771
 5895W        W21704  11.246   3.950  12.796 -0.0980 -0.1234 -0.1497
 5896W        W21705  10.743  15.480  12.149  0.0390  0.1540 -0.0246
 5897W        W21706   0.907  17.343  13.923  0.0285  0.1755  0.0678
 5898W        W21707   7.614   6.472   0.503 -0.2715  0.1355  0.2361
 5899W        W21708  14.428  14.565   2.219 -0.0473  0.0247  0.0286
 5900W        W21709  16.970  10.456   0.980 -0.1509 -0.1115 -0.3611
 5901W        W21710   4.772   0.729  15.337  0.0534  0.1069  0.1039
 5902W        W21711  11.560   2.910  15.779 -0.1357  0.0750  0.0318
 5903W        W21712   4.235  11.766   2.631  0.3055 -0.1041 -0.1987
 5904W        W21713   1.447  14.004   4.653  0.0912 -0.1991  0.0242
 5905W        W21714   8.916   9.981  14.690  0.2112 -0.0125 -0.0618
 5906W        W21715  10.236   4.603   2.553 -0.3255  0.0178  0.1017
 5907W        W21716   6.066   5.968   4.952  0.2608 -0.0531 -0.0041
 5908W        W21717   6.918   4.865  15.376  0.3360  0.0442  0.1964
 5909W        W21718   3.071   1.996  14.754  0.1163  0.0807  0.0955
 5910W        W21719  15.335   6.224   1.094 -0.1148 -0.2917 -0.0748
 5911W        W21720  10.794   6.109  14.058 -0.0528  0.0576  0.0794
 5912W        W21721  10.151  15.561   2.407 -0.0317 -0.2546 -0.2027
 5913W        W21722  12.407   8.843   1.056 -0.3017  0.1589 -0.0070
 5914W        W21723  12.404   9.994  13.565  0.1788 -0.0564  0.0095
 5915W        W21724  15.728   7.101  10.852 -0.1719 -0.0611 -0.2088
 5916W        W21725  16.399   4.028  13.699 -0.0883 -0.0295  0.1949
 5917W        W21726  15.952  11.716  15.078 -0.3462  0.0479 -0.0034
 5918W        W21727   3.616   6.284  11.297  0.3207  0.0891  0.0118
 5919W        W21728   7.205  13.037   0.554  0.1740 -0.5138  0.2598
 5920W        W21729   0.180   4.327   4.586  0.2510 -0.0420 -0.4266
 5921W        W21730  16.340   4.936   5.138 -0.1012  0.2884  0.1011
 5922W        W21731   2.626   2.642  15.452  0.2744 -0.1489 -0.0433
 5923W        W21732  18.007  13.977   3.824 -0.2100 -0.1619 -0.0637
 5924W        W21733   5.750   9.866  13.756 -0.0615  0.1972 -0.0169
 5925W        W21734  18.288   8.230   1.027  0.0032 -0.0537 -0.2151
 5926W        W21735   2.827   0.620   9.678 -0.2126 -0.0559 -0.5026
 5927W        W21736   4.276  12.751   0.477  0.3653 -0.0409  0.1759
 5928W        W21737   2.877   7.712   4.814  0.0249  0.0246  0.1484
 5929W        W21738   6.361   6.525  11.415 -0.2548  0.3939 -0.1199
 5930W        W21739   1.763  18.312  11.263 -0.0861  0.1155 -0.0246
 5931W        W21740   5.136   4.950  12.873  0.1175 -0.1629  0.1212
 5932W        W21741  13.737   6.622   1.322  0.0495  0.2507  0.1232
 5933W        W21742   3.231  13.427   3.273  0.2438 -0.2990 -0.1738
 5934W        W21743   4.818  15.182  14.588  0.0541 -0.1200  0.2136
 5935W        W21744  16.776  16.908  11.741  0.0598  0.0335 -0.0624
 5936W        W21745   4.879  13.925   1.793 -0.0312  0.2680 -0.1023
 5937W        W21746   7.736   1.927  10.742 -0.2078 -0.0976  0.1679
 5938W        W21747   3.157   6.404  10.987  0.0924 -0.3564 -0.1236
 5939W        W21748  17.071  12.129   0.616 -0.1771  0.0717  0.0515
 5940W        W21749   4.744  10.679  14.278 -0.0694  0.1409  0.1711
 5941W        W21750   4.919  15.870  12.731 -0.0458 -0.0883  0.2721
 5942W        W21751  12.401   8.319   0.370  0.0636 -0.2193  0.2729
 5943W        W21752  11.657  16.225  15.504 -0.2181  0.2571 -0.0166
 5944W        W21753   8.874   3.502   1.660 -0.1957 -0.0633 -0.0540
 5945W        W21754  15.757   0.845   5.992 -0.1348 -0.0964  0.2040
 5946W        W21755  16.872  13.781   2.685  0.2137  0.0765  0.2290
 5947W        W21756   2.300  12.400  15.616 -0.1618 -0.0903  0.2337
 5948W        W21757   4.612   3.646  13.650 -0.0452  0.3779  0.1069
 5949W        W21758  14.919  17.672   4.361 -0.4193  0.0250  0.2653
 5950W        W21759   0.646  14.601   3.612 -0.0989  0.1480 -0.1489
 5951W        W21760   5.987   7.265  15.390 -0.3206 -0.1105  0.1284
 5952W        W21761   1.456   8.784  14.774  0.3315 -0.0045 -0.1817
 5953W        W21762   3.542   6.901  15.600  0.1057 -0.2102 -0.1289
 5954W        W21763  15.917  14.827  14.337  0.1392  0.1566 -0.0066
 5955W        W21764   4.817  12.812   2.914 -0.0470  0.0371  0.2145
 5956W        W21765   9.248  11.607  15.457  0.0093 -0.0082  0.1970
 5957W        W21766   5.727   5.316  12.914  0.2347 -0.1074 -0.1939
 5958W        W21767   0.088   4.452  14.226 -0.0178  0.2949 -0.2065
 5959W        W21768  18.182  18.375  13.408  0.0469  0.0940  0.2596
 5960W        W21769  11.520   4.505   2.229  0.0078 -0.0958  0.3056
 5961W        W21770   7.288   7.777  15.643 -0.2987  0.1491  0.1625
 5962W        W21771   2.728   6.153   3.200  0.4027 -0.0032 -0.0409
 5963W        W21772  12.193  12.468   2.303 -0.1329 -0.3672  0.0018
 5964W        W21773   7.925   9.173   2.397  0.2225 -0.4003  0.0592
 5965W        W21774   9.802  18.070  12.380  0.2804 -0.1365 -0.2336
 5966W        W21775  13.384   4.624  13.567 -0.0694 -0.2667 -0.0283
 5967W        W21776   4.663  13.662   4.774 -0.0882 -0.0416  0.2022
 5968W        W21777  15.372   7.422  11.142  0.1806  0.1882 -0.0420
 5969W        W21778   1.959  15.464  15.778 -0.0747 -0.0900  0.0737
 5970W        W21779   2.098  17.282   1.922  0.0979 -0.0697 -0.2015
 5971W        W21780   3.848  15.314  10.781 -0.0210  0.1622  0.1311
 5972W        W21781   1.431  16.860   5.849  0.1566 -0.0748 -0.2015
 5973W        W21782   3.616  14.439  13.188  0.0008  0.2866 -0.1524
 5974W        W21783   2.637  13.057   4.434 -0.0077 -0.1961 -0.0208
 5975W        W21784   5.642  11.780  11.597 -0.2044 -0.0614  0.0516
 5976W        W21785  11.263  11.806  15.524  0.5430 -0.1307 -0.3385
 5977W        W21786   5.890  11.799   4.760 -0.1471  0.4611 -0.1436
 5978W        W21787   5.885   1.605  11.545  0.2287  0.1655 -0.1639
 5979W        W21788  17.232  12.085  12.289  0.1843 -0.0121 -0.0417
 5980W        W21789   9.698   4.491   3.289  0.1911  0.1024  0.1858
 5981W        W21790   7.101   2.225  11.633 -0.2104 -0.1412  0.2017
 5982W        W21791  14.734  13.826  14.774 -0.5277  0.3175 -0.1064
 5983W        W21792   5.505   2.118  14.400 -0.0015 -0.1134 -0.1915
 5984W        W21793   9.624  10.399  13.420 -0.4173 -0.2665  0.1158
 5985W        W21794   4.244   7.227  14.491 -0.1354  0.0879  0.0264
 5986W        W21795   4.524  16.540   3.514 -0.1302  0.1372  0.2703
 5987W        W21796   8.333  11.492   2.348  0.1202  0.0070 -0.1993
 5988W        W21797  12.290   2.783  13.566  0.0604 -0.1842 -0.1938
 5989W        W21798  10.515  12.296   0.337 -0.1339  0.0809 -0.1078
 5990W        W21799  15.299  17.526  14.548 -0.1033 -0.4389 -0.0403
 5991W        W21800   2.831   4.106  11.410 -0.1185  0.3165  0.0867
 5992W        W21801  10.746  13.302  11.964  0.1082 -0.3052  0.0004
 5993W        W21802  15.763   5.025   1.206 -0.0973 -0.1689 -0.0719
 5994W        W21803   8.445   7.068  15.230  0.0594  0.2907  0.1659
 5995W        W21804  14.864  13.197  12.346  0.0392 -0.1923  0.3013
 5996W        W21805  10.631   4.558  14.497  0.1381 -0.2047 -0.1549
 5997W        W21806  16.411   7.183   5.267 -0.1833  0.2013  0.0196
 5998W        W21807  14.173  10.758   3.861 -0.0766  0.0559  0.2344
 5999W        W21808   9.448  10.212   3.765 -0.1286 -0.2587 -0.0590
 6000W        W21809  10.014  17.685  15.507 -0.1652 -0.1848  0.1030
 6001W        W21810  13.862   5.372   2.592  0.1906 -0.1903 -0.2063
 6002W        W21811   3.156   7.873   1.611  0.0197  0.3386 -0.1860
 6003W        W21812   9.902   7.656  11.360  0.0383  0.0121 -0.0114
 6004W        W21813  18.242  17.128  15.003 -0.1572 -0.1132 -0.3776
 6005W        W21814   1.181  16.258  11.824  0.1792  0.2721 -0.1638
 6006W        W21815  13.497   5.835  10.047  0.1171  0.1124 -0.0358
 6007W        W21816   0.936   7.341   5.645 -0.1435  0.0649 -0.0236
 6008W        W21817  15.361   9.768   0.228  0.1598  0.0151 -0.0115
 6009W        W21818   3.464   6.270   1.136  0.1481  0.1351 -0.0097
 6010W        W21819   4.203   0.530   1.158 -0.0595 -0.2787 -0.2953
 6011W        W21820   2.651  13.908  12.159  0.2675 -0.0530  0.0414
 6012W        W21821   7.893  13.386   5.337 -0.3585  0.0724  0.0735
 6013W        W21822   9.766   6.996  12.753 -0.0627 -0.2005  0.1287
 6014W        W21823  16.783  16.522   1.131 -0.1002 -0.0489 -0.2741
 6015W        W21824  13.505  16.867   3.143  0.2671 -0.0905  0.2134
 6016W        W21825   7.755  12.187  12.907 -0.1058 -0.2117  0.0395
 6017W        W21826   8.143  15.269  15.502  0.1380  0.2538 -0.0765
 6018W        W21827   9.352   8.985  12.818  0.0274 -0.1353 -0.1218
 6019W        W21828   0.666  10.751  13.337  0.1593 -0.2090  0.2710
 6020W        W21829   4.052   8.028   2.824 -0.0595  0.2837 -0.0643
 6021W        W21830   1.135   0.487   3.298  0.0829  0.2092  0.2149
 6022W        W21831   9.671   3.559  13.268  0.1347  0.1882  0.0612
 6023W        W21832  14.466   8.550   3.747 -0.2123 -0.2460 -0.0907
 6024W        W21833   0.816  15.792   0.678 -0.3162  0.0378 -0.2678
 6025W        W21834   0.785  15.783  14.009 -0.1555  0.1112  0.0894
 6026W        W21835   7.834  12.992  14.526  0.0083 -0.0500 -0.1640
 6027W        W21836   0.552  14.762   2.636  0.0355  0.2474 -0.0451
 6028W        W21837   0.044   3.032   5.746 -0.1757 -0.3768  0.0490
 6029W        W21838   3.296   0.100  10.555  0.1464  0.0164 -0.0227
 6030W        W21839  15.142   8.338  13.150  0.0937 -0.2196 -0.0741
 6031W        W21840   9.831   6.320  10.654  0.1109  0.1232  0.1831
 6032W        W21841   4.175   7.385   3.561  0.1183  0.1153 -0.2303
 6033W        W21842   2.933  14.835   3.922  0.1823 -0.0849  0.0541
 6034W        W21843  10.116  16.399  14.595  0.0827  0.1472  0.1021
 6035W        W21844  12.229   1.798   6.066 -0.0431 -0.2110  0.2104
 6036W        W21845  13.884  11.792   0.011  0.2175 -0.0750 -0.0494
 6037W        W21846   4.294  12.835  11.006 -0.3346 -0.0663  0.1980
 6038W        W21847  15.139   8.705  11.475  0.0142  0.0009  0.2410
 6039W        W21848   5.717   3.794   1.840  0.0150  0.3198  0.2565
 6040W        W21849   3.909   1.353   5.333 -0.0351  0.2517  0.2397
 6041W        W21850   1.254  12.447  15.827 -0.1018 -0.0327 -0.1538
 6042W        W21851   4.166  12.599   1.641 -0.0032  0.0282 -0.1772
 6043W        W21852   8.239  15.764   4.614  0.0614 -0.2752 -0.0570
 6044W        W21853   9.694  14.717   2.228  0.0136  0.1015 -0.1116
 6045W        W21854  10.756   6.762  11.428  0.3026  0.1006 -0.0674
 6046W        W21855  16.745   0.770  10.899 -0.0876  0.1248 -0.0387
 6047W        W21856  14.290   3.377   5.973  0.2196  0.2157  0.1569
 6048W        W21857  12.715   2.067   0.296 -0.0037  0.1271  0.2327
 6049W        W21858  11.802   2.487  15.392 -0.2803 -0.1489  0.3202
 6050W        W21859  10.234   8.347  15.487  0.0549 -0.3238  0.2080
 6051W        W21860   4.325   7.830   1.890  0.0077  0.2884 -0.3705
 6052W        W21861   9.863   1.838  10.467 -0.1571 -0.1098 -0.1597
 6053W        W21862  11.285  13.707   3.730  0.0318  0.0482 -0.1749
 6054W        W21863   9.004   1.427  11.261  0.3894  0.0521 -0.2032
 6055W        W21864  16.488  12.632   5.077 -0.0957 -0.0346 -0.0820
 6056W        W21865   5.355   7.612  15.743  0.0809 -0.2483 -0.1097
 6057W        W21866   9.391  16.099  13.499 -0.0503  0.2768 -0.2399
 6058W        W21867   4.972   7.399   3.029 -0.4104  0.1674  0.1570
 6059W        W21868   1.748  10.131  10.124  0.0890  0.0495 -0.0969
 6060W        W21869   0.591   3.089  12.847 -0.2078 -0.3380 -0.0888
 6061W        W21870  16.669   1.806  10.761  0.1277 -0.0224  0.0892
 6062W        W21871  16.279  17.331  15.172 -0.0257 -0.0507  0.0342
 6063W        W21872  11.811  11.685   2.239 -0.0430 -0.3074  0.1544
 6064W        W21873  13.439   2.435   9.964 -0.0057  0.1769  0.2224
 6065W        W21874  17.430  11.087   5.588  0.1450  0.1907  0.1755
 6066W        W21875   2.035  11.406  11.609  0.0924  0.2640  0.1098
 6067W        W21876  13.968   5.752  15.606 -0.0727 -0.0870  0.1171
 6068W        W21877   0.628  17.661   3.971 -0.1541 -0.1077 -0.0165
 6069W        W21878  12.262   2.333  14.969  0.2473  0.4245 -0.0860
 6070W        W21879   1.671  12.582  10.582 -0.1121  0.2091  0.0604
 6071W        W21880  18.002   0.305  13.714 -0.0527 -0.0783  0.0758
 6072W        W21881  11.370   2.043   2.629 -0.0071  0.0842 -0.2000
 6073W        W21882   9.041  11.289   2.345  0.2290 -0.0809 -0.1651
 6074W        W21883   3.522  10.405  15.444  0.2500 -0.1871  0.1508
 6075W        W21884  10.196  12.033   4.870 -0.3022 -0.0461 -0.2901
 6076W        W21885  13.862   9.737   0.410  0.1547  0.0534 -0.3835
 6077W        W21886  11.790   5.481   3.129  0.0265 -0.1105 -0.3028
 6078W        W21887   4.336  15.833  11.827  0.1485 -0.0123  0.4349
 6079W        W21888   6.111   7.712   3.177 -0.2210 -0.1252 -0.0572
 6080W        W21889  15.970   2.605  11.393 -0.0373  0.3258  0.1695
 6081W        W21890   6.601  16.130   5.737 -0.0033  0.3016  0.2569
 6082W        W21891   9.416  16.504   2.606 -0.0142 -0.1134 -0.0626
 6083W        W21892   0.162   3.429  14.491 -0.2619  0.2630  0.0485
 6084W        W21893  17.223   9.621   3.310 -0.1232  0.3441 -0.0723
 6085W        W21894  14.141   9.890   2.729 -0.0292 -0.0569  0.1891
 6086W        W21895  11.555   8.697   0.318  0.1586 -0.4029 -0.0393
 6087W        W21896   3.633  10.745   2.732  0.1452  0.0468  0.2154
 6088W        W21897  10.582   7.392  14.342 -0.2133 -0.1860 -0.2684
 6089W        W21898   9.785  14.189   4.160  0.0226 -0.0092 -0.0038
 6090W        W21899   1.193  18.239  10.954 -0.1515 -0.1498  0.1240
 6091W        W21900  16.929  14.633   0.153  0.0869  0.1521 -0.0863
 6092W        W21901  14.173   4.388  15.156 -0.0341 -0.4182 -0.0563
 6093W        W21902  11.203  15.855  14.804 -0.1122  0.1095  0.3158
 6094W        W21903  13.044   4.853   2.148 -0.1197  0.0203 -0.0402
 6095W        W21904  18.018  15.330   1.893 -0.0987  0.2130 -0.1023
 6096W        W21905   7.097   8.063  13.946 -0.0319  0.1676 -0.0399
 6097W        W21906  14.982  13.991   2.810  0.1549  0.0218 -0.1045
 6098W        W21907   5.577  15.408   4.195 -0.2315  0.0205 -0.0056
 6099W        W21908  10.780  14.222  13.048 -0.2061  0.1344  0.2809
 6100W        W21909  16.359   7.780  12.853  0.1575 -0.0828  0.0214
 6101W        W21910  16.948  17.143  10.916  0.0740 -0.1710 -0.2394
 6102W        W21911   8.474  16.757  11.965 -0.3532  0.2287  0.0637
 6103W        W21912   3.478   4.817  15.471 -0.0290 -0.1588 -0.2205
 6104W        W21913  12.842   1.834  11.082  0.2665 -0.0834  0.2165
 6105W        W21914   9.389   8.036  13.512  0.0343  0.0801 -0.0917
 6106W        W21915  18.246   5.885  12.341  0.1937 -0.3103 -0.1140
 6107W        W21916  17.453  16.026  14.980  0.2231  0.1256 -0.1968
 6108W        W21917  11.080   2.338   4.852 -0.2859 -0.0969 -0.1954
 6109W        W21918   7.129  11.584   1.337 -0.0748  0.0419 -0.0440
 6110W        W21919  16.254   4.919  15.161  0.0955 -0.0510  0.2382
 6111W        W21920  17.473   5.287   1.678 -0.3901 -0.0640 -0.2820
 6112W        W21921   3.056   4.397   2.712 -0.0281 -0.0796  0.1503
 6113W        W21922   1.868  11.256   3.706 -0.0695  0.2432 -0.1624
 6114W        W21923  14.615  13.144   3.389 -0.0345  0.0041 -0.3148
 6115W        W21924   6.131  13.508   3.297  0.4311 -0.0404 -0.2558
 6116W        W21925  12.796  12.931   1.561  0.1040 -0.2738  0.0735
 6117W        W21926   1.022  18.348  14.358 -0.0697  0.0961 -0.5307
 6118W        W21927  17.921  18.291   1.472  0.3442 -0.0677 -0.1142
 6119W        W21928   9.146  15.692   0.722  0.1202 -0.0272 -0.5628
 6120W        W21929   6.792   1.979   0.110 -0.1324  0.1651  0.0209
 6121W        W21930   1.648  13.024   1.555 -0.0231 -0.1371 -0.2224
 6122W        W21931  18.243   2.563   4.355  0.2855  0.0277  0.0575
 6123W        W21932   1.730   5.812  10.188  0.1021 -0.2702  0.1405
 6124W        W21933   5.266   5.679   0.474 -0.0205 -0.0053 -0.2296
 6125W        W21934  11.440  16.613   4.669  0.0251 -0.0373  0.2113
 6126W        W21935  17.141  16.407  15.086  0.2329 -0.0846 -0.1347
 6127W        W21936   5.516  16.600   5.667 -0.1178  0.4684 -0.0568
 6128W        W21937  14.204  15.915   3.193  0.0182 -0.2135 -0.2139
 6129W        W21938   6.919  13.374  11.172 -0.2305  0.3765 -0.0612
 6130W        W21939  11.157   7.734  15.091  0.2561 -0.1573 -0.1111
 6131W        W21940  18.347   1.741   3.887  0.2202 -0.0229 -0.1452
 6132W        W21941   2.703  10.580   2.918  0.1728  0.0125  0.0566
 6133W        W21942   2.246  11.013  11.855 -0.3207 -0.2947 -0.1576
 6134W        W21943   9.191  10.884  13.541 -0.2007 -0.2621  0.0349
 6135W        W21944   7.575  14.539  12.740 -0.1407 -0.2383  0.1307
 6136W        W21945   8.121   4.163  13.138  0.0140 -0.0231  0.0927
 6137W        W21946   6.058   7.228   3.120  0.1180  0.1089 -0.0523
 6138W        W21947  11.818   2.174  15.780  0.0001  0.0432 -0.2847
 6139W        W21948   6.418   9.040   2.326 -0.1323 -0.3658 -0.0272
 6140W        W21949   7.963  17.808   2.884  0.0626 -0.5107 -0.1700
 6141W        W21950   6.139   1.043  15.031 -0.1502 -0.2792 -0.2413
 6142W        W21951   5.973  15.100  14.173 -0.0948 -0.1522  0.1433
 6143W        W21952   0.027  16.060   5.334 -0.2951  0.0959  0.0776
 6144W        W21953  15.652   6.619   2.266 -0.0304  0.1890 -0.3623
 6145W        W21954   9.754   5.824  13.363 -0.1169 -0.0687  0.1809
 6146W        W21955  17.634   1.250   0.803 -0.1074  0.2692 -0.0022
 6147W        W21956  13.268  13.078  15.515  0.3260 -0.3430  0.0605
 6148W        W21957   5.840   6.828   3.829 -0.0430 -0.0254  0.1360
 6149W        W21958  13.095   7.932   4.779  0.1230  0.1459 -0.1176
 6150W        W21959   9.060  17.617  15.603  0.0004 -0.0151 -0.0120
 6151W        W21960   7.262   0.009   4.204  0.1037 -0.0064  0.0872
 6152W        W21961   0.964   4.595   3.520  0.0968  0.0085  0.0620
 6153W        W21962  13.062  14.998   0.204 -0.4073  0.3464  0.1339
 6154W        W21963   0.750  17.806   1.129  0.4122 -0.1240 -0.0285
 6155W        W21964   8.347   6.625   5.454 -0.0975 -0.2443  0.1596
 6156W        W21965  14.048   6.185  11.050 -0.0906 -0.3470  0.0961
 6157W        W21966   5.587   0.579   0.597 -0.1720 -0.1993 -0.0847
 6158W        W21967   8.122   7.810   0.655  0.0028  0.0271 -0.1181
 6159W        W21968   6.104   2.227  13.084 -0.4261  0.2026 -0.1788
 6160W        W21969  14.532   3.987  14.060 -0.0290 -0.0749  0.2611
 6161W        W21970  10.989   6.294   1.737 -0.1653  0.0441 -0.2575
 6162W        W21971   4.030   2.146  15.653 -0.0371  0.0346  0.2307
 6163W        W21972   5.342  10.483   5.002  0.1288  0.1605  0.1464
 6164W        W21973   1.569   6.185  15.207  0.1699 -0.0856  0.1073
 6165W        W21974  11.585  15.792  15.151  0.0406  0.1470 -0.4511
 6166W        W21975   0.517  17.657   2.150  0.0217 -0.1776 -0.0949
 6167W        W21976  12.571  11.734  12.980 -0.2468  0.1084 -0.1197
 6168W        W21977  10.121  13.099   1.780 -0.1034  0.0945 -0.1658
 6169W        W21978   6.155   2.994   0.841  0.0793 -0.1599  0.0000
 6170W        W21979  10.889  17.713  13.710  0.0832  0.2625  0.2256
 6171W        W21980  12.422   4.251   1.662  0.0381 -0.0928  0.0741
 6172W        W21981  12.679  17.529   3.693 -0.0547 -0.2137 -0.0543
 6173W        W21982  12.813   9.621  11.828 -0.2262  0.0220  0.1799
 6174W        W21983   0.877  16.656   0.256  0.0108  0.0093  0.1952
 6175W        W21984  15.912  11.566   2.700  0.1028 -0.2708 -0.1412
 6176W        W21985  12.975  16.550   1.400 -0.2847  0.0255  0.1112
 6177W        W21986  18.234   7.520   2.519 -0.1064  0.1001  0.0134
 6178W        W21987  17.320  12.068  15.325  0.2818 -0.1795  0.3333
 6179W        W21988   1.692  13.661   3.416  0.3662 -0.1761  0.1117
 6180W        W21989   3.636   5.707   5.245  0.0559 -0.0332  0.1019
 6181W        W21990   7.611   0.302   0.342 -0.2408 -0.3118 -0.3571
 6182W        W21991   9.409  13.919  10.998 -0.1942  0.1537 -0.1081
 6183W        W21992  13.773  14.411  13.833 -0.0235  0.0071  0.0125
 6184W        W21993   5.003   1.671   0.948  0.1892 -0.0763  0.0213
 6185W        W21994   8.854   9.543   4.344  0.0047 -0.0041 -0.3299
 6186W        W21995   8.820   2.109   9.881  0.1062  0.3646  0.1707
 6187W        W21996  15.145   5.028  12.154 -0.2338 -0.3163  0.0679
 6188W        W21997   4.738   4.432   1.174 -0.0142  0.1177 -0.0564
 6189W        W21998  11.615   3.069  13.281  0.0107 -0.1375 -0.1169
 6190W        W21999   1.271  11.262   1.733  0.0014 -0.2740  0.2307
 6191W        W22000   6.493   3.919   0.863  0.0911 -0.1708  0.2348
 6192W        W22001  11.972   7.594  13.384 -0.2873 -0.0579 -0.0604
 6193W        W22002   7.490   0.186  12.628 -0.0724  0.4552 -0.1134
 6194W        W22003   0.790  11.223   2.743 -0.0023 -0.0441 -0.0600
 6195W        W22004  11.955   2.322   1.387  0.1149 -0.0433  0.5095
 6196W        W22005  12.757   0.537  13.336 -0.1000  0.0775 -0.1116
 6197W        W22006  16.352   9.845   0.028 -0.0255  0.1586  0.2933
 6198W        W22007  16.000   6.121   0.421  0.1179  0.0776  0.1383
 6199W        W22008  17.498   4.747   5.121  0.0618  0.3159  0.1580
 6200W        W22009   4.637   7.023   0.154 -0.1119  0.2066 -0.1247
 6201W        W22010   2.377  15.793   0.370 -0.1049  0.0674 -0.0658
 6202W        W22011  15.529  14.971   5.936  0.3586 -0.1280 -0.4675
 6203W        W22012   7.767  18.043   6.267  0.0868  0.0331  0.0993
 6204W        W22013  11.330  17.250  14.590 -0.0950  0.1682 -0.0947
 6205W        W22014   9.152  16.468   5.070  0.1623 -0.1957  0.2900
 6206W        W22015  15.606   7.858   0.532  0.0822 -0.0432 -0.0780
 6207W        W22016   5.043   7.070   1.251 -0.0147 -0.0207  0.0256
 6208W        W22017  18.122  17.140  13.549  0.0702 -0.0475  0.0270
 6209W        W22018  17.330   5.187   4.308  0.0704  0.2060 -0.3132
 6210W        W22019   4.872   6.366  10.534 -0.0799 -0.2214 -0.0368
 6211W        W22020   2.073   8.015   5.744  0.1329 -0.2150 -0.0120
 6212W        W22021  13.517   3.066   0.348  0.1231  0.0561  0.0661
 6213W        W22022  10.682   9.688   1.565  0.4033 -0.1707 -0.1723
 6214W        W22023   9.547  15.551   5.737 -0.4798 -0.0958 -0.3846
 6215W        W22024   8.764   7.125  13.027  0.2317 -0.0730  0.1862
 6216W        W22025  13.049   5.643   4.946 -0.1812  0.0010  0.0310
 6217W        W22026   4.635   4.054   4.169  0.1321 -0.0163 -0.0662
 6218W        W22027   0.611   8.105   5.421  0.4857 -0.1435  0.0400
 6219W        W22028   7.658  17.912   2.489  0.2363 -0.1021 -0.0679
 6220W        W22029  16.270   7.528   0.224 -0.1979 -0.0313  0.0873
 6221W        W22030   3.342   7.487  13.466 -0.1312 -0.3890 -0.0443
 6222W        W22031  10.221  14.051  12.309 -0.1750  0.0854  0.1767
 6223W        W22032  13.802   4.547  11.389 -0.1796  0.2108 -0.0672
 6224W        W22033  11.732  13.289   2.894  0.2454  0.0352  0.3239
 6225W        W22034   0.121   6.241   3.423  0.3267  0.0475  0.1312
 6226W        W22035  15.735   7.310   1.194 -0.0255 -0.0237 -0.0469
 6227W        W22036   8.679  16.777  11.193 -0.1718 -0.0308 -0.0772
 6228W        W22037   3.736  17.680  12.392  0.2420  0.1821 -0.0155
 6229W        W22038   7.837  16.373  14.125  0.1639 -0.0146  0.2307
 6230W        W22039   0.673  12.716  15.696  0.0709 -0.0778 -0.0723
 6231W        W22040   0.110   3.143  14.907  0.0030 -0.0817  0.0349
 6232W        W22041   1.706  14.975   4.593 -0.1567 -0.0081  0.0926
 6233W        W22042   2.706  13.490  13.850 -0.2334  0.1689 -0.3248
 6234W        W22043  11.253  13.512  13.920 -0.2983 -0.1428 -0.1788
 6235W        W22044  18.003   9.853  11.862  0.1663  0.1347 -0.2310
 6236W        W22045  10.172  14.680   4.365 -0.0224 -0.0162 -0.1760
 6237W        W22046   4.297  17.129  15.142 -0.2690 -0.4935  0.2495
 6238W        W22047   2.917  15.517  14.723 -0.1020 -0.2440  0.1096
 6239W        W22048  15.359  16.227   3.648 -0.1219  0.1092 -0.0739
 6240W        W22049  17.667   8.434   1.592 -0.0451 -0.1338  0.1896
 6241W        W22050  11.841   3.196  13.688 -0.1363  0.0368 -0.3862
 6242W        W22051  17.655   3.575  11.485 -0.0741  0.4775  0.0340
 6243W        W22052  18.398  10.952   3.641 -0.3285 -0.0111 -0.0413
 6244W        W22053  13.381   9.394  13.908 -0.0012 -0.0545 -0.0449
 6245W        W22054  15.283   8.753   3.546 -0.1982 -0.1068 -0.3489
 6246W        W22055  17.278  14.624   1.913  0.1262 -0.0900  0.1954
 6247W        W22056  13.148   7.352  13.950 -0.1157  0.1040 -0.2030
 6248W        W22057   5.998  10.630  15.703 -0.0691  0.0135  0.1787
 6249W        W22058  10.308   8.417  12.235  0.0769  0.0007 -0.0397
 6250W        W22059   4.569   8.102   3.436  0.0484 -0.2763  0.0754
 6251W        W22060  15.061  17.298   2.511  0.0819 -0.1246 -0.0506
 6252W        W22061  18.443   2.556   1.825  0.0836 -0.0834  0.0760
 6253W        W22062  14.438   4.207  10.060  0.1219  0.2431 -0.3952
 6254W        W22063   3.964   4.891  11.992  0.1329  0.1175 -0.0156
 6255W        W22064   4.009  10.193  14.304 -0.0445 -0.2904 -0.1073
 6256W        W22065  15.857   0.211  15.719  0.1059 -0.3693 -0.2751
 6257W        W22066   6.801  17.539   2.977  0.0276  0.2145 -0.3387
 6258W        W22067  13.851  11.524  11.966 -0.0903  0.2352  0.0631
 6259W        W22068  17.203   3.492  14.706  0.0567 -0.0040  0.0794
 6260W        W22069  11.353   3.263   4.912  0.1646 -0.2049 -0.0603
 6261W        W22070   2.087   9.296   0.195  0.1229 -0.3089  0.1349
 6262W        W22071   8.728  13.862   1.125  0.0635 -0.0317 -0.0640
 6263W        W22072  10.768   6.210  12.631  0.1386  0.0814  0.0525
 6264W        W22073   0.341   2.486  11.538 -0.0573 -0.0660  0.0228
 6265W        W22074   6.803   8.771  13.386 -0.1822 -0.2138  0.2266
 6266W        W22075   0.162   9.739   0.799  0.0872  0.1248 -0.4163
 6267W        W22076   0.201   7.750   0.764 -0.1435  0.1603 -0.0695
 6268W        W22077   5.722   6.111  13.310 -0.0013 -0.1720  0.1822
 6269W        W22078   2.736   2.635  12.669  0.0641  0.1133 -0.1352
 6270W        W22079  17.783   2.343   2.598  0.0210 -0.1739  0.0443
 6271W        W22080  11.926   7.682  14.195  0.1054  0.2932  0.1056
 6272W        W22081   4.090  16.374   4.015 -0.3411 -0.0552 -0.1852
 6273W        W22082   6.475   6.152   0.646  0.3209 -0.0054  0.1934
 6274W        W22083   2.449  11.750   5.125 -0.0996  0.1157 -0.0340
 6275W        W22084   7.316  13.430  11.522 -0.0527 -0.0553 -0.1079
 6276W        W22085  13.435   0.336   4.447  0.0243  0.2035  0.1452
 6277W        W22086  17.710   3.767   3.564 -0.4149 -0.1479  0.0842
 6278W        W22087   7.085   1.950  12.234 -0.0025 -0.1882 -0.0391
 6279W        W22088   5.822  18.365   0.480  0.0061 -0.4072 -0.1419
 6280W        W22089  13.695   0.363  15.761  0.1942 -0.0304 -0.1318
 6281W        W22090  11.413   6.631   1.810 -0.1125  0.0427 -0.0948
 6282W        W22091   4.129  15.935   0.249 -0.2485  0.1453  0.1039
 6283W        W22092  12.951   2.947  15.566 -0.4919  0.3806  0.0513
 6284W        W22093  10.756   9.796  15.718  0.1011  0.0663 -0.3633
 6285W        W22094  17.540  15.639   5.929 -0.1704  0.1530  0.0754
 6286W        W22095   0.318  13.131  12.144 -0.1571  0.2024 -0.1239
 6287W        W22096   0.220   5.869  14.349  0.1609  0.0787  0.0256
 6288W        W22097   1.652  16.056  10.971  0.1480  0.1698  0.1940
 6289W        W22098  16.459   0.795   1.506 -0.1962 -0.0134  0.0322
 6290W        W22099   6.974   6.357  13.103  0.0101  0.2675  0.0572
 6291W        W22100   7.253   8.398  13.356  0.1685  0.0429  0.0428
 6292W        W22101  13.169   0.335   5.482  0.1259  0.2016 -0.2168
 6293W        W22102  14.469  16.276   0.559 -0.2483  0.2625 -0.0561
 6294W        W22103   4.819   4.077   3.472  0.0686 -0.1289 -0.2621
 6295W        W22104  12.731   9.375   2.578 -0.0170 -0.0895 -0.1337
 6296W        W22105   7.230  10.073  10.949  0.0021  0.2479 -0.0149
 6297W        W22106   1.473   2.693   5.402 -0.0176 -0.1441  0.2655
 6298W        W22107   7.646   7.115  14.162 -0.1702 -0.1223 -0.1185
 6299W        W22108   6.028  17.283  11.742  0.1146 -0.1010 -0.3762
 6300W        W22109  15.853  15.683  15.179  0.1610  0.2125 -0.0972
 6301W        W22110  11.230   7.554   4.287 -0.0251 -0.1068 -0.3730
 6302W        W22111  13.824   8.460  14.574 -0.0812 -0.3020  0.1011
 6303W        W22112   2.384  13.388   0.109  0.4216 -0.2405  0.4667
 6304W        W22113  15.254   2.591   2.729 -0.3736 -0.1085  0.0068
 6305W        W22114  17.030   3.516   2.221  0.2864 -0.0640 -0.1101
 6306W        W22115  17.962   2.722   0.623  0.0504  0.0018 -0.1822
 6307W        W22116  15.381   6.538  14.708 -0.1842 -0.1259 -0.1891
 6308W        W22117  17.436   1.358   4.424  0.2801  0.1301  0.0186
 6309W        W22118   3.491  12.873   0.954 -0.1452  0.1993 -0.0592
 6310W        W22119   3.484   7.484  12.543 -0.0999 -0.2342 -0.0354
 6311W        W22120   8.130   5.614   4.205 -0.0763 -0.0661 -0.2251
 6312W        W22121   0.891  14.018  14.414 -0.3862  0.2486  0.2566
 6313W        W22122   8.930  12.647   0.974 -0.0779  0.2069 -0.0459
 6314W        W22123   1.579   5.056   6.018 -0.0278 -0.2572 -0.1332
 6315W        W22124   8.823  13.680  15.192 -0.0994  0.0667  0.2899
 6316W        W22125  10.430   7.267   5.752  0.1749 -0.0864  0.1893
 6317W        W22126  11.545   0.205  12.407 -0.0266 -0.2691 -0.1431
 6318W        W22127   9.112  17.503  14.287 -0.2052  0.2066 -0.1279
 6319W        W22128  14.918  18.044  15.267 -0.0338  0.1625  0.1050
 6320W        W22129   6.095   2.605  14.054 -0.2862  0.1323  0.2536
 6321W        W22130   6.523  16.675  13.594 -0.5003  0.2353 -0.1661
 6322W        W22131   0.177  12.688  11.954  0.2042 -0.1792 -0.3630
 6323W        W22132  15.956   8.365  14.670 -0.1975  0.0972 -0.0001
 6324W        W22133   6.265   6.483   0.007 -0.1044  0.2330 -0.2120
 6325W        W22134   0.352  13.868   4.107  0.0713 -0.4401 -0.2192
 6326W        W22135   3.959   2.862  13.314 -0.0872  0.1233  0.1044
 6327W        W22136   2.455   4.924   0.598  0.2149  0.2745  0.1944
 6328W        W22137   4.736  15.439  11.990 -0.0134  0.1265 -0.1359
 6329W        W22138  10.613   4.645   2.074 -0.2190 -0.2743  0.0307
 6330W        W22139   7.127   1.970  14.752 -0.1589 -0.2791  0.2472
 6331W        W22140   8.320   4.886   1.871 -0.2170  0.2906  0.2563
 6332W        W22141  17.307  14.093  13.202 -0.3507 -0.1862 -0.1169
 6333W        W22142  15.859  13.012   3.850  0.0129  0.0425 -0.0173
 6334W        W22143   5.588   7.283   0.956 -0.0487 -0.2654  0.3220
 6335W        W22144  12.547  11.166  14.463 -0.1975  0.3520 -0.0598
 6336W        W22145  13.502   6.049  12.416 -0.1072  0.2411 -0.0927
 6337W        W22146  10.764  10.611   3.953  0.1501  0.0232 -0.0517
 6338W        W22147  13.357  15.385   3.544 -0.0780  0.3099  0.0770
 6339W        W22148   3.144  10.115   5.796 -0.2620  0.2597  0.0168
 6340W        W22149   3.888  17.169   5.306  0.0307  0.0434 -0.1912
 6341W        W22150  15.604   8.830  10.908 -0.0159 -0.1983 -0.0089
 6342W        W22151  11.771  12.308   4.826  0.0613  0.2147  0.1843
 6343W        W22152   8.290   2.852   5.264  0.1551  0.1789 -0.0005
 6344W        W22153   6.330  15.924  11.429 -0.0136  0.3361  0.2105
 6345W        W22154   1.880  13.200   0.178 -0.1739 -0.0382  0.0544
 6346W        W22155   0.777   5.371   0.031 -0.0466 -0.1570  0.3405
 6347W        W22156   7.633  14.405   2.531  0.1411 -0.2034 -0.1422
 6348W        W22157  15.723   2.058   5.813 -0.1651 -0.2611  0.1431
 6349W        W22158  13.682  10.212   3.152 -0.0398 -0.0357 -0.1834
 6350W        W22159  10.837  15.437   3.227  0.0062 -0.2276  0.0239
 6351W        W22160  17.043  13.948   5.574 -0.0091  0.2156  0.1068
 6352W        W22161   6.827  17.548  15.117  0.2821  0.2496  0.0589
 6353W        W22162   4.124   1.472   4.440 -0.3257  0.5163  0.0948
 6354W        W22163   0.556   9.989   3.181 -0.1605 -0.1331 -0.0149
 6355W        W22164  15.989   6.132  14.665  0.3346 -0.0862 -0.1662
 6356W        W22165  17.562  17.111   5.169 -0.0022  0.0494  0.1011
 6357W        W22166   8.648   7.083  11.789  0.1726 -0.0311 -0.2514
 6358W        W22167   9.416   9.690   3.871  0.2216  0.1127 -0.1040
 6359W        W22168   1.008  17.626   3.286  0.5399  0.1981  0.0145
 6360W        W22169  12.028   2.467   3.026  0.3748 -0.1583 -0.1817
 6361W        W22170   9.227  11.108   0.241 -0.1078 -0.2739  0.2899
 6362W        W22171  12.382  16.299   2.967  0.1942  0.1540  0.1576
 6363W        W22172   5.167  14.357   3.090  0.2718  0.2814 -0.0912
 6364W        W22173   2.321  17.536   1.540 -0.0974 -0.0449  0.1297
 6365W        W22174  11.885  12.991   0.357  0.0860  0.1107  0.1548
 6366W        W22175   5.656  13.642  13.638  0.2202  0.0140 -0.0570
 6367W        W22176  18.375   6.913   0.412  0.1719 -0.1137 -0.3221
 6368W        W22177   7.764   9.327   4.649 -0.1643  0.2596 -0.0412
 6369W        W22178   2.320  18.263  12.847  0.0445 -0.1860  0.0160
 6370W        W22179   2.479   7.304   3.354  0.1270  0.0806  0.2292
 6371W        W22180  10.046  16.668  12.165  0.4517  0.2133 -0.2125
 6372W        W22181  14.448   6.436  14.837  0.0993 -0.2502 -0.0401
 6373W        W22182  17.507   2.359   0.605 -0.0551  0.0858  0.1244
 6374W        W22183   5.302  18.395   1.224  0.0669 -0.3033  0.5451
 6375W        W22184  13.628   4.473   1.480  0.0130 -0.0319  0.0691
 6376W        W22185  11.170   2.830   5.022 -0.4498 -0.1551  0.1280
 6377W        W22186  12.689   8.110   5.101  0.0322 -0.0651  0.2943
 6378W        W22187   4.448   9.991   2.806  0.0103 -0.0812  0.2830
 6379W        W22188   7.500  15.704   3.587  0.1489  0.2274  0.0785
 6380W        W22189   8.418   0.550  12.589 -0.1388 -0.0442  0.2660
 6381W        W22190   3.752   6.782  13.569  0.1486  0.2612 -0.2618
 6382W        W22191   7.965   4.183   0.149 -0.2188 -0.2079  0.0870
 6383W        W22192  12.776  10.970   0.283 -0.1989 -0.1382 -0.1032
 6384W        W22193   7.889   3.152   4.389  0.2417  0.2913  0.0997
 6385W        W22194  13.826  17.910   4.032  0.0205 -0.0111 -0.4562
 6386W        W22195  15.119   4.760  14.945  0.0890 -0.2433  0.2362
 6387W        W22196  14.123  18.043   3.660  0.0743 -0.1882  0.2147
 6388W        W22197  11.273  16.879   1.692  0.2201  0.3063 -0.0731
 6389W        W22198  13.357   0.168   3.893  0.1161 -0.0252 -0.0337
 6390W        W22199   2.089  11.405  14.419 -0.0305 -0.1692 -0.1196
 6391W        W22200   3.346   7.454   4.876  0.2352 -0.0962 -0.1492
 6392W        W22201  16.640  15.870  14.013 -0.1328  0.0900  0.3304
 6393W        W22202  14.768   9.698   0.930 -0.1374  0.0422 -0.3103
 6394W        W22203  16.646   4.877   5.484  0.1783 -0.0912  0.0673
 6395W        W22204   1.884  10.735   2.381  0.0029 -0.0256 -0.2443
 6396W        W22205   5.965  12.663  13.000  0.0266  0.0347 -0.0864
 6397W        W22206   0.874  11.468   1.922 -0.2055  0.1386  0.1818
 6398W        W22207   4.354   4.274  14.139 -0.0011 -0.0325 -0.2492
 6399W        W22208  15.835  17.236   1.633 -0.2014 -0.0829  0.5607
 6400W        W22209   1.966   0.033   0.767  0.2889 -0.1326  0.0329
 6401W        W22210  17.221   7.167   4.648  0.2168  0.1694  0.3151
 6402W        W22211   2.187  15.929   2.902  0.0248  0.1042  0.0542
 6403W        W22212  10.507   1.471  12.929  0.0023  0.1632 -0.2357
 6404W        W22213  17.603  13.496   1.992  0.0021  0.0636 -0.1443
 6405W        W22214  14.980   9.967   2.825 -0.0263 -0.0732  0.0595
 6406W        W22215  11.859  12.532  13.722  0.1012 -0.3872  0.2109
 6407W        W22216  17.338   5.991   0.023 -0.0472 -0.0948 -0.0419
 6408W        W22217  14.045   6.887  14.076 -0.3812  0.0520 -0.1745
 6409W        W22218  11.628  10.501  10.728  0.0043 -0.0462 -0.0690
 6410W        W22219  14.053   3.035  12.604 -0.0932 -0.3135  0.1689
 6411W        W22220  14.598  13.688   1.377 -0.2533  0.0487 -0.1059
 6412W        W22221   1.400   2.170  12.016  0.0948  0.2484 -0.0924
 6413W        W22222  12.091  13.315  13.104  0.1116  0.0286 -0.2451
 6414W        W22223  14.655  10.688   3.699 -0.2587  0.1170  0.2846
 6415W        W22224  15.719  10.025   1.328 -0.0150 -0.1714 -0.0263
 6416W        W22225   9.238   4.378  13.814  0.0160 -0.0900 -0.0096
 6417W        W22226  16.288   1.587   3.666 -0.0072 -0.0816  0.1928
 6418W        W22227   6.982   5.192  11.643 -0.0611 -0.0509 -0.0625
 6419W        W22228  10.715   3.974   4.482 -0.1985  0.2997 -0.0960
 6420W        W22229  14.446  17.205  14.434  0.1083 -0.0285  0.0448
 6421W        W22230  15.742  12.913  11.920  0.1139 -0.1006  0.3473
 6422W        W22231  10.342  13.436  14.852  0.3059  0.0225  0.0030
 6423W        W22232  17.348  15.278   3.670 -0.2361 -0.2197 -0.1849
 6424W        W22233  11.251   9.535  15.079 -0.0535 -0.4040 -0.0662
 6425W        W22234  15.907   4.405   0.275  0.3221 -0.1785  0.1276
 6426W        W22235  13.110   6.768   5.880  0.1084  0.1788 -0.1251
 6427W        W22236   2.420   7.112   0.085  0.4649 -0.2310  0.0727
 6428W        W22237   4.002   4.092  12.283 -0.1908 -0.0062  0.0731
 6429W        W22238  14.509   2.665   4.318  0.1580  0.0079  0.4356
 6430W        W22239  16.666  14.056  13.410 -0.1163 -0.0712 -0.1526
 6431W        W22240  17.350  16.720  12.728  0.1451  0.0172 -0.2934
 6432W        W22241   8.380   4.698   2.420  0.2125 -0.2418  0.2733
 6433W        W22242   1.643  11.810  14.582 -0.0062  0.2421 -0.1903
 6434W        W22243   4.903   5.766  15.634 -0.1608  0.1891  0.0931
 6435W        W22244   1.328   2.692  13.807 -0.2838  0.0603  0.0524
 6436W        W22245   7.965   7.448  13.361  0.0158 -0.0805 -0.0432
 6437W        W22246   6.937   4.662   1.487 -0.2800  0.1184 -0.1424
 6438W        W22247   5.510   2.149   2.055  0.0920  0.0804  0.3226
 6439W        W22248   9.878   9.514   1.423 -0.0940 -0.2181  0.0660
 6440W        W22249   1.036   4.459  15.593  0.0189 -0.0376 -0.0001
 6441W        W22250  14.562   1.493   4.725 -0.0519  0.0183  0.0473
 6442W        W22251  10.883   7.544   0.269 -0.3262  0.1856 -0.0350
 6443W        W22252  10.110  12.531   2.460 -0.0591 -0.1259  0.2549
 6444W        W22253   2.315   7.226   5.631 -0.3170 -0.0152  0.0788
 6445W        W22254   0.836  10.481  11.195  0.0590  0.2467  0.2711
 6446W        W22255   9.081   4.803   0.178 -0.0708  0.2420 -0.2173
 6447W        W22256   8.327  10.607  12.443 -0.0331 -0.1353 -0.1271
 6448W        W22257  14.250   4.458  15.767 -0.2597  0.1910  0.0327
 6449W        W22258   1.444  18.459   4.134  0.0042  0.2783 -0.1167
 6450W        W22259  15.908  14.613  15.774  0.0925  0.0361  0.0346
 6451W        W22260  11.940  14.393   4.581 -0.1588 -0.0253  0.1759
 6452W        W22261  16.829   0.607  15.501 -0.1905 -0.1259 -0.0828
 6453W        W22262   8.329   3.302  13.937  0.0313  0.0093 -0.1326
 6454W        W22263  17.223   4.522   2.462 -0.1080 -0.2727  0.1890
 6455W        W22264   7.028   7.759  15.241  0.1061 -0.2076 -0.0775
 6456W        W22265  15.268  10.349  14.015  0.4442  0.1170 -0.1431
 6457W        W22266  18.270   0.572  11.778  0.1846 -0.1250  0.3389
 6458W        W22267   5.119  11.882  13.881 -0.0893 -0.1797  0.3388
 6459W        W22268  15.396  13.156   2.291 -0.0420 -0.1201 -0.0152
 6460W        W22269  13.215  13.982   2.581  0.0079 -0.0616  0.1907
 6461W        W22270  11.560   1.832  14.829  0.3761 -0.2477  0.1003
 6462W        W22271   2.681   4.943   1.234 -0.0796 -0.2627 -0.1263
 6463W        W22272   0.158   6.112   2.453 -0.1494 -0.3078  0.0260
 6464W        W22273   4.132   0.227  12.799  0.0166 -0.4743  0.3382
 6465W        W22274  10.931  12.675   3.731 -0.0100 -0.2660 -0.0864
 6466W        W22275  16.100  15.642   4.915 -0.0016 -0.1216 -0.1466
 6467W        W22276  15.032   3.976  13.275  0.3630 -0.1387 -0.0618
 6468W        W22277   0.315  13.119  12.793  0.0630 -0.0920 -0.3158
 6469W        W22278  14.302  18.037   4.882 -0.0744 -0.2090  0.0303
 6470W        W22279  18.288  11.777  13.639  0.1030 -0.0177  0.3743
 6471W        W22280   9.574  13.492   0.474  0.1480 -0.2758 -0.0454
 6472W        W22281   7.882   9.693   2.730 -0.0399  0.1410 -0.1126
 6473W        W22282   0.009   0.992   4.755  0.4252  0.0193 -0.0131
 6474W        W22283   6.273   3.345  10.249  0.1129 -0.0388 -0.0936
 6475W        W22284   5.365   7.676  11.144  0.2675  0.1391  0.4464
 6476W        W22285   8.728  17.791   1.300 -0.0918 -0.0846  0.2747
 6477W        W22286   7.240  14.583   0.413 -0.1734 -0.0861 -0.0537
 6478W        W22287   7.364   8.537   5.444  0.0957 -0.0601 -0.0771
 6479W        W22288   4.324   2.003  14.787  0.3604 -0.0997  0.3421
 6480W        W22289   0.373   6.333   1.623 -0.2754  0.0298 -0.0205
 6481W        W22290  17.832   6.884  11.141 -0.0055 -0.0551 -0.1124
 6482W        W22291   5.889  15.726   2.624  0.0639  0.1395  0.4013
 6483W        W22292  11.499   3.028   4.535  0.4180 -0.0631 -0.2883
 6484W        W22293   2.675   8.479   0.063  0.1233 -0.0701 -0.0419
 6485W        W22294  11.737   8.502  15.538  0.1676  0.0783 -0.0288
 6486W        W22295  10.354   9.814   2.959 -0.1408 -0.0619  0.1223
 6487W        W22296   3.482   0.762  12.101  0.1486 -0.1601  0.0360
 6488W        W22297   0.314   2.892   2.093  0.1645 -0.0221 -0.4694
 6489W        W22298   5.201  17.001   4.628 -0.0699 -0.3651 -0.1616
 6490W        W22299   6.113   1.811  12.198  0.2626 -0.0696 -0.2486
 6491W        W22300   6.245  17.281   2.555 -0.2501  0.1293 -0.0712
 6492W        W22301   4.833  15.050  13.434  0.0714  0.2313  0.2613
 6493W        W22302  15.395  12.660  13.359  0.0610  0.0120 -0.1309
 6494W        W22303   9.769   1.576   2.158 -0.1793 -0.3243  0.2996
 6495W        W22304  15.899  17.701  12.470 -0.1225 -0.2050  0.0151
 6496W        W22305   7.521   4.373  15.581 -0.0804 -0.1194  0.1229
 6497W        W22306  12.132   1.518   3.040 -0.1109 -0.1928 -0.3100
 6498W        W22307  13.169  13.640   1.230 -0.2586  0.2674 -0.1893
 6499W        W22308   2.098   9.460   3.472 -0.0295  0.1783 -0.0907
 6500W        W22309  14.832  10.331   4.046 -0.1698  0.1090 -0.1688
 6501W        W22310  18.273   5.454   3.461 -0.2057  0.0069  0.1880
 6502W        W22311  16.936  18.174   3.022 -0.1019  0.1507 -0.3053
 6503W        W22312  10.329   3.484   3.667 -0.1463  0.0603 -0.0490
 6504W        W22313  14.918   6.533  11.126  0.2208 -0.1242 -0.1995
 6505W        W22314   9.699  12.712   1.571  0.1221 -0.0816  0.1259
 6506W        W22315  15.937   8.600  13.967  0.1616  0.0476  0.4798
 6507W        W22316   8.472  12.015   4.766 -0.0453 -0.2002  0.3707
 6508W        W22317  15.300   4.089  11.093  0.2348 -0.1215 -0.0679
 6509W        W22318   3.180  16.899  12.925  0.0098  0.0389 -0.3979
 6510W        W22319  10.340   5.479   0.112  0.2102 -0.0404  0.0501
 6511W        W22320   1.265  17.155   2.308  0.2722 -0.0719  0.1910
 6512W        W22321  10.983   8.566   4.547 -0.4493  0.2379  0.1326
 6513W        W22322   2.775   8.419  12.991  0.0391  0.1396 -0.3591
 6514W        W22323  10.759   5.524   2.037  0.0403  0.0684 -0.0920
 6515W        W22324   3.308  17.826   4.378  0.5554  0.1837  0.4633
 6516W        W22325   2.236  11.801  11.881 -0.1512 -0.0030 -0.2918
 6517W        W22326  15.727  13.211   3.439  0.1207  0.1586  0.0865
 6518W        W22327   3.552   1.642   1.344  0.2583  0.0495  0.0531
 6519W        W22328   0.997  10.663  15.720 -0.0917 -0.0429 -0.2261
 6520W        W22329   8.994   3.076  15.705  0.1528  0.1487  0.2529
 6521W        W22330   6.941   6.296  15.841 -0.0046  0.2732 -0.1606
 6522W        W22331  10.001   2.807  11.482  0.1579  0.0910 -0.2098
 6523W        W22332  18.095   5.964   2.690 -0.3202  0.2127  0.1025
 6524W        W22333   3.976  12.849  15.443  0.2133  0.1309 -0.1142
 6525W        W22334   6.598   7.868  10.024  0.0578  0.1469  0.0469
 6526W        W22335   9.851  11.006   5.457 -0.1524 -0.1120  0.0201
 6527W        W22336   7.764   9.795   4.983 -0.2480  0.3668  0.0327
 6528W        W22337   8.130   4.679   0.273  0.1261  0.1165  0.0698
 6529W        W22338  18.228  17.801  13.257  0.0105 -0.1426  0.0046
 6530W        W22339   1.727  16.782   4.000 -0.1814  0.1138 -0.0815
 6531W        W22340  15.958  12.029  12.935  0.1299  0.0099  0.1397
 6532W        W22341   6.206   4.309  15.329 -0.0150 -0.3764 -0.0264
 6533W        W22342   0.686  10.583  11.956 -0.2630 -0.0774 -0.2275
 6534W        W22343  13.295  13.044  10.698  0.1683 -0.1311  0.0687
 6535W        W22344   3.040  11.543   2.689 -0.2644  0.0722 -0.1775
 6536W        W22345  18.068   0.643   4.749  0.0922  0.1191 -0.0620
 6537W        W22346   5.967   8.946  15.265 -0.1942 -0.2951  0.0372
 6538W        W22347  10.552   1.148  14.880 -0.0577 -0.1052  0.0846
 6539W        W22348   7.155   2.478  14.044 -0.2760 -0.1971  0.1859
 6540W        W22349   2.806   6.719  11.665 -0.0792  0.2091  0.0674
 6541W        W22350   4.337   2.542  13.551 -0.0982  0.0110  0.3498
 6542W        W22351   7.499  17.005  10.664 -0.1678  0.2128  0.2419
 6543W        W22352   8.790   7.118  14.827  0.2865  0.1098  0.0738
 6544W        W22353   0.769  14.842   4.352 -0.0638 -0.1755 -0.0298
 6545W        W22354   0.744   8.482   3.944  0.1014 -0.1074  0.1986
 6546W        W22355   9.712   5.371   2.163  0.3342  0.0660 -0.0975
 6547W        W22356  14.879  12.947  15.360 -0.1195  0.2513  0.1432
 6548W        W22357  17.271   5.236  12.883  0.0998 -0.1563  0.3172
 6549W        W22358   2.040  14.797   1.501 -0.0740  0.1621  0.0775
 6550W        W22359  13.917  13.130   0.299  0.0914 -0.2424 -0.0930
 6551W        W22360  11.974  13.177   4.788  0.1863 -0.0785  0.1071
 6552W        W22361  17.924   1.823   2.582 -0.1312  0.0845 -0.1149
 6553W        W22362  12.050  15.629   0.720 -0.0320 -0.2990 -0.1010
 6554W        W22363  10.538   3.160   2.294 -0.1375  0.1073  0.1050
 6555W        W22364   2.491   9.547   1.616  0.1142 -0.0829 -0.3102
 6556W        W22365   0.248   7.353   5.215 -0.5300  0.0467  0.0050
 6557W        W22366   9.458  15.554   3.033  0.0534  0.1039 -0.1343
 6558W        W22367   4.171   1.418   3.095 -0.1237 -0.1376 -0.1123
 6559W        W22368   1.138   3.538   4.300  0.1115  0.1823  0.0973
 6560W        W22369  14.815  16.329   0.960 -0.1028  0.0055 -0.1475
 6561W        W22370   3.362  10.864  11.020 -0.1457 -0.1764 -0.3303
 6562W        W22371   0.539  18.188  14.275 -0.2250  0.1593  0.2295
 6563W        W22372  17.024   5.289   2.971  0.0888 -0.1142  0.2589
 6564W        W22373   7.717   7.583   3.281 -0.1647 -0.2133 -0.0149
 6565W        W22374  16.258  12.243  14.089  0.1790 -0.0261 -0.0577
 6566W        W22375   8.759  12.383  15.202  0.2547  0.0489  0.0419
 6567W        W22376  10.128   7.396  15.077  0.2374 -0.0632  0.0104
 6568W        W22377  14.265   8.126  10.813 -0.1184  0.0444 -0.0302
 6569W        W22378   8.639  13.148   4.809 -0.0253 -0.0616 -0.1391
 6570W        W22379   9.140  13.764   2.773 -0.1425 -0.1200  0.1573
 6571W        W22380  11.778  17.827   9.631 -0.0596 -0.1215  0.2330
 6572W        W22381   7.835  13.177  13.222  0.2028  0.1094 -0.0358
 6573W        W22382   8.726   7.182  13.956 -0.0173  0.0517  0.0880
 6574W        W22383   2.841  17.850   2.642  0.1080 -0.1046 -0.0901
 6575W        W22384  13.590   8.980   1.070 -0.0640  0.0679 -0.4497
 6576W        W22385   3.601  15.528  14.058 -0.1633  0.1419  0.1935
 6577W        W22386   0.885  17.650   2.498  0.1600  0.0315  0.1729
 6578W        W22387   6.729  15.186   0.063 -0.0800 -0.1564 -0.1371
 6579W        W22388  12.949  15.701   3.521  0.1890 -0.1472  0.2813
 6580W        W22389   1.842   5.111  12.315  0.0613  0.0966  0.0085
 6581W        W22390  17.957   0.511  14.772  0.0262 -0.0981  0.1557
 6582W        W22391  17.881   7.308   1.427 -0.1215 -0.0321  0.0412
 6583W        W22392  17.385   0.218   4.313 -0.3441 -0.0098  0.0915
 6584W        W22393   5.102  12.567   3.231  0.0225 -0.0796 -0.0297
 6585W        W22394   5.214   1.366  12.183  0.2265 -0.0244  0.3465
 6586W        W22395  16.853   5.901  14.957 -0.0808  0.0573 -0.1620
 6587W        W22396   8.270   0.990   0.748  0.2445  0.2079 -0.0636
 6588W        W22397  15.933   5.200   5.231 -0.0321 -0.0720  0.1926
 6589W        W22398   0.272   4.004   3.773 -0.0602  0.0097  0.0520
 6590W        W22399   5.670  12.777  12.039 -0.0740 -0.0948 -0.0965
 6591W        W22400  16.416   6.839  15.330  0.1031 -0.1056 -0.0018
 6592W        W22401  17.485  10.811   2.288 -0.1472  0.1559  0.0212
 6593W        W22402   3.083  17.241   2.672 -0.1385  0.3366  0.0232
 6594W        W22403   2.838  15.929  11.292  0.1402 -0.5052  0.0640
 6595W        W22404  12.011   6.328  10.549 -0.2790 -0.4994  0.1559
 6596W        W22405  15.845  10.686   4.343 -0.0682 -0.2887  0.1398
 6597W        W22406   9.911   9.929   2.592  0.0638 -0.3525 -0.0145
 6598W        W22407   6.244   9.180  12.165 -0.2082 -0.0814  0.0792
 6599W        W22408  11.451  13.376   1.502 -0.0953 -0.1308 -0.1008
 6600W        W22409   7.559  13.515  11.973 -0.1564  0.3155 -0.1818
 6601W        W22410   2.227   2.085   4.865 -0.2519  0.0030 -0.0174
 6602W        W22411   7.924   1.879   3.846  0.3229 -0.1811  0.3591
 6603W        W22412   7.495  14.574   4.317  0.0260 -0.2064 -0.0361
 6604W        W22413   6.679  15.701  12.717  0.1143  0.1610 -0.1445
 6605W        W22414   1.689   2.849   0.679 -0.2150  0.2019 -0.3096
 6606W        W22415  10.306   4.156   4.261 -0.2044 -0.1923 -0.1112
 6607W        W22416  11.170  17.354  11.329  0.2846 -0.0571 -0.3115
 6608W        W22417   2.733   5.213  14.033  0.0277  0.0109 -0.2427
 6609W        W22418  13.808  12.448   1.945  0.3414  0.2148 -0.1193
 6610W        W22419  12.498  11.957   4.754  0.0450 -0.3312 -0.2978
 6611W        W22420  17.149  17.521   2.294  0.0054  0.2143  0.0706
 6612W        W22421  10.577   1.316   4.506 -0.0317 -0.0457  0.1710
 6613W        W22422  11.382  15.403  14.788 -0.0881 -0.1605  0.3483
 6614W        W22423  15.424   7.764   3.572 -0.1210  0.2578  0.0868
 6615W        W22424   7.489  15.616   1.554 -0.0877 -0.2123  0.0532
 6616W        W22425   4.592   5.500  10.422  0.0453 -0.1188 -0.1696
 6617W        W22426   2.289  10.163  12.940  0.2507  0.3017  0.0540
 6618W        W22427   9.698   5.559   2.720 -0.0705  0.2442  0.1031
 6619W        W22428   1.297  16.808  11.624  0.0645  0.3301 -0.0599
 6620W        W22429   8.723   7.564  12.830 -0.2665  0.2687 -0.0294
 6621W        W22430  13.077   4.092   0.415 -0.2490 -0.4110 -0.2596
 6622W        W22431  17.718  16.145   1.409  0.0831 -0.2627  0.1332
 6623W        W22432  10.462  15.303  15.290  0.2959  0.5354 -0.0017
 6624W        W22433   8.273   1.470  12.083  0.0291 -0.2114  0.0711
 6625W        W22434   1.281   8.996   4.911 -0.1269 -0.2488 -0.0181
 6626W        W22435  11.042   4.299  12.013 -0.3156 -0.0835 -0.1647
 6627W        W22436   1.467  16.370  14.920  0.2128  0.0817 -0.0069
 6628W        W22437   3.272  10.096  14.721 -0.1562 -0.0866  0.1590
 6629W        W22438  10.975   7.258   3.840  0.1253 -0.1664 -0.3901
 6630W        W22439   0.803  11.298  14.441 -0.0901 -0.2929 -0.0306
 6631W        W22440   5.904   4.857  12.195  0.0543  0.0649  0.0305
 6632W        W22441  10.787   0.099  14.031  0.0563  0.1944 -0.3568
 6633W        W22442   9.836   5.032   0.502 -0.2057  0.1866  0.1691
 6634W        W22443  12.350  17.716  15.576 -0.5792  0.1980  0.3129
 6635W        W22444  14.378  11.020  11.327 -0.1338 -0.2055  0.0749
 6636W        W22445   2.149   7.189  12.120 -0.0585 -0.1451  0.1087
 6637W        W22446  15.650  12.325   4.762  0.2389 -0.0242  0.0230
 6638W        W22447   9.470  14.712  10.577 -0.4402 -0.4240  0.1360
 6639W        W22448  18.078   0.663   1.777 -0.1252  0.1313  0.4519
 6640W        W22449   8.185   3.187   0.984 -0.0978 -0.0425 -0.0541
 6641W        W22450  15.937   1.281   2.006 -0.1538  0.0746  0.2562
 6642W        W22451  12.413   7.665   1.906  0.1815 -0.2028  0.2894
 6643W        W22452   8.096   2.773  10.978 -0.1348  0.0028  0.1231
 6644W        W22453  17.669   8.030   3.792  0.1671  0.3663  0.2340
 6645W        W22454   1.897   1.183  11.733  0.1647  0.0666 -0.0262
 6646W        W22455   5.828  14.807   2.795  0.1995 -0.2162  0.2243
 6647W        W22456  17.786   6.092   3.742  0.0041  0.0755  0.1338
 6648W        W22457  18.089  10.507   4.694 -0.0117  0.0186  0.1802
 6649W        W22458  14.164   4.869   0.165 -0.0276 -0.1532  0.2406
 6650W        W22459   9.545   5.554  12.379  0.0614 -0.2992 -0.1446
 6651W        W22460   8.293   0.630   0.385 -0.0504 -0.1647  0.0288
 6652W        W22461   6.214  13.488  13.935 -0.2367  0.1152 -0.4029
 6653W        W22462  11.555   8.026  13.888  0.0934 -0.0910 -0.0633
 6654W        W22463  13.275   5.355   4.597 -0.1069 -0.1947  0.6254
 6655W        W22464   7.528  14.828  13.517  0.1577 -0.0069 -0.1266
 6656W        W22465   2.408   1.839   3.758  0.0153  0.0466  0.0888
 6657W        W22466   2.583  11.358  12.650  0.1017 -0.0815  0.0043
 6658W        W22467   0.958  13.530  14.646  0.2928  0.1806  0.1538
 6659W        W22468   0.721   6.917   3.331  0.1492 -0.0257 -0.1005
 6660W        W22469  10.466   7.480  13.776 -0.0297 -0.2504  0.2295
 6661W        W22470   9.667  17.156  11.309 -0.1125 -0.0303 -0.1280
 6662W        W22471   5.801   7.629  15.072 -0.2049 -0.0217  0.1455
 6663W        W22472   4.749  16.650  13.194  0.0153 -0.0746  0.1690
 6664W        W22473   1.222  18.361  15.312 -0.0583  0.1416  0.2163
 6665W        W22474   4.544  13.031   0.731  0.2201 -0.2453 -0.2566
 6666W        W22475  11.134   1.306   4.411 -0.2126  0.1490 -0.0770
 6667W        W22476   4.646  10.382   1.751  0.0013  0.0103 -0.0051
 6668W        W22477   2.012   1.557  10.919  0.0130  0.0760  0.1421
 6669W        W22478   5.091   6.019  12.586 -0.3578 -0.1850  0.0836
 6670W        W22479  12.980  14.472   5.116 -0.1345  0.3956 -0.0089
 6671W        W22480   3.419  11.367   4.376  0.4134  0.1808  0.0321
 6672W        W22481   3.833  15.009  11.202 -0.0900 -0.3832  0.0283
 6673W        W22482  16.686  15.121   3.074  0.0747 -0.1430  0.0068
 6674W        W22483  16.804  17.697   0.912  0.0550  0.2323  0.1287
 6675W        W22484  14.218   7.385  10.542 -0.0338  0.2338 -0.0548
 6676W        W22485   0.067  13.797  13.842 -0.0798 -0.0915  0.2098
 6677W        W22486  10.331   8.896   1.772  0.2538 -0.2134 -0.2366
 6678W        W22487   6.224  17.191   0.404 -0.0633 -0.3476  0.1675
 6679W        W22488  11.949   3.114   4.187 -0.0583 -0.0522  0.0074
 6680W        W22489  15.957   6.683  12.761 -0.3549 -0.0546 -0.2516
 6681W        W22490   4.208   5.321  10.719 -0.1162 -0.1344  0.0998
 6682W        W22491  12.295   3.996  12.023  0.0616  0.1153 -0.1533
 6683W        W22492  15.286  14.922  10.403  0.1432  0.1082  0.0606
 6684W        W22493   8.867  18.187  11.259 -0.2252 -0.0114  0.0813
 6685W        W22494  17.471   6.296  12.584 -0.0394  0.1344  0.0490
 6686W        W22495  14.935  16.796   5.186 -0.0054 -0.1217 -0.1262
 6687W        W22496  13.282   7.505  13.018 -0.0345  0.2047  0.0599
 6688W        W22497   2.471   4.328   4.741 -0.2765  0.0581 -0.1586
 6689W        W22498   6.863   1.518  13.951 -0.0011  0.0117  0.0058
 6690W        W22499  11.487  15.767   2.833  0.1962 -0.1718 -0.3519
 6691W        W22500  11.930  11.539   4.321  0.0057 -0.2010  0.0585
 6692W        W22501  11.683   8.338  15.048 -0.0591  0.1623 -0.0360
 6693W        W22502   0.713  15.893   0.150 -0.0422  0.0486 -0.0945
 6694W        W22503  14.528  18.314  14.245 -0.0929 -0.0486  0.1310
 6695W        W22504   7.944  17.806   5.327  0.1041  0.1628  0.1542
 6696W        W22505  16.807  15.614  15.236 -0.4195 -0.0579  0.1527
 6697W        W22506   1.304   0.207  11.880  0.1522 -0.3067 -0.1647
 6698W        W22507   5.483   8.266   2.406 -0.1724 -0.3546 -0.0841
 6699W        W22508   6.221   6.034  11.113 -0.0084  0.0658  0.1523
 6700W        W22509   8.127  13.076   2.906 -0.1716  0.0521 -0.1644
 6701W        W22510  14.861  11.693  12.396  0.0368 -0.1857 -0.3228
 6702W        W22511  12.912  12.440   1.768  0.2919  0.2964 -0.0478
 6703W        W22512  17.974  15.748   3.709  0.4274 -0.0279 -0.0299
 6704W        W22513  14.970   2.225   4.864 -0.0740  0.0091 -0.3119
 6705W        W22514  16.270   2.300   0.246  0.0753  0.4341  0.1347
 6706W        W22515  11.668  13.846  13.781  0.0906 -0.0682  0.1140
 6707W        W22516  11.457  16.495   0.977  0.0028 -0.2289  0.1135
 6708W        W22517   7.904   0.533  12.559  0.3380  0.0950  0.0237
 6709W        W22518  17.419  11.697  13.148  0.2773  0.3459  0.0050
 6710W        W22519  18.287   8.960   2.900  0.0595 -0.1846 -0.0348
 6711W        W22520   9.491   5.868   4.866 -0.1140 -0.1118 -0.0893
 6712W        W22521   7.688   6.294   4.937  0.1198 -0.2086  0.0709
 6713W        W22522   9.685  11.693   0.753  0.0989 -0.1690 -0.1257
 6714W        W22523   5.635   5.457  11.121  0.0107  0.0620  0.2162
 6715W        W22524  17.988   6.174  12.710 -0.0420  0.1629 -0.2879
 6716W        W22525   1.599  13.632   0.107  0.3164 -0.0727  0.0825
 6717W        W22526   1.141  16.909   5.479  0.0918 -0.0718  0.1509
 6718W        W22527   0.415  12.325   5.577  0.0751  0.0008 -0.0907
 6719W        W22528  17.420  13.020   2.765  0.3892  0.1405  0.0020
 6720W        W22529  16.955   4.200  11.642  0.0934 -0.1249  0.0215
 6721W        W22530   0.058  11.277   4.977 -0.0412 -0.1862 -0.0111
 6722W        W22531  12.524   8.246  12.683 -0.2493  0.0124 -0.2073
 6723W        W22532   5.744   3.226   5.027 -0.1780  0.1957 -0.0103
 6724W        W22533  12.602   6.228  11.797  0.0586  0.0638 -0.0675
 6725W        W22534   8.353  11.057   5.242 -0.0719 -0.3219  0.1651
 6726W        W22535   0.598   0.436  12.407  0.3228 -0.2186 -0.1479
 6727W        W22536   8.082   0.867   1.183  0.1679 -0.0532  0.0115
 6728W        W22537   4.920   9.930  12.354  0.0703 -0.0976 -0.1940
 6729W        W22538  14.117   0.403   4.988 -0.3089  0.0591 -0.2200
 6730W        W22539  11.434  10.211   1.120  0.3875 -0.0329  0.2136
 6731W        W22540  14.277   8.401   0.955 -0.1476  0.1061 -0.2125
 6732W        W22541  11.489  15.631   4.391  0.1214 -0.0176  0.2241
 6733W        W22542   8.574  13.356  15.454  0.0611  0.1396  0.0600
 6734W        W22543   2.793  18.238  12.631  0.2827  0.0158 -0.3057
 6735W        W22544  10.405   1.643  14.895  0.1568  0.3008  0.1572
 6736W        W22545  11.225   8.692  14.737  0.0095 -0.1137 -0.1049
 6737W        W22546   8.030  14.543  12.881  0.1068  0.3149 -0.0393
 6738W        W22547   0.547  12.916   5.030 -0.0504  0.0129 -0.2691
 6739W        W22548  15.450  15.471   4.153  0.0121  0.1243 -0.2660
 6740W        W22549   0.619  12.331   2.259 -0.0853  0.2865 -0.0130
 6741W        W22550  13.235  15.624   4.488  0.0393 -0.0135  0.2042
 6742W        W22551   9.704  17.452  11.865 -0.1063 -0.0916 -0.1250
 6743W        W22552  12.559  18.053   2.385  0.0605  0.1447  0.0648
 6744W        W22553   2.735  17.738   1.983 -0.0829 -0.3027 -0.1291
 6745W        W22554   0.467   5.263  12.724 -0.2113 -0.0619 -0.0287
 6746W        W22555  18.293   0.465  14.089 -0.3380  0.2037 -0.1680
 6747W        W22556   1.204   1.293  13.473  0.0239  0.3243 -0.0056
 6748W        W22557   1.937  18.314   1.777 -0.1066  0.1865 -0.0378
 6749W        W22558   3.632  14.339   3.629  0.1190  0.0633  0.2084
 6750W        W22559  14.502  10.577  13.316  0.0880  0.1685  0.0596
 6751W        W22560  11.825   9.249  13.668 -0.3094 -0.0186 -0.3557
 6752W        W22561   7.666   6.144  13.143  0.0191 -0.2571 -0.3494
 6753W        W22562   4.370   1.366   0.175 -0.0708  0.1247 -0.2282
 6754W        W22563   1.024  15.326   2.107  0.1502 -0.2017 -0.0457
 6755W        W22564   6.377   5.954  12.477  0.0407 -0.1101  0.1793
 6756W        W22565   2.446   0.155  10.880 -0.0876 -0.0054  0.0559
 6757W        W22566  11.537   4.083   1.916 -0.0438  0.0279  0.2029
 6758W        W22567  12.035  10.010  13.978 -0.0981  0.0356  0.0921
 6759W        W22568   8.281  10.708   2.759 -0.1106  0.1143 -0.1165
 6760W        W22569   8.541   0.474   1.938  0.4155 -0.1348 -0.2015
 6761W        W22570   9.149   7.627  15.070 -0.2011 -0.0962  0.0632
 6762W        W22571   2.766   7.079   2.177 -0.0748 -0.0483  0.1867
 6763W        W22572  11.498  13.490  13.471 -0.0390 -0.0515 -0.1731
 6764W        W22573  17.209  14.928   2.796 -0.0798 -0.0713 -0.0324
 6765W        W22574   4.889  12.086  14.479 -0.1404 -0.0159  0.2702
 6766W        W22575   7.141   5.327  13.595  0.1206  0.0600 -0.0692
 6767W        W22576   2.699   8.653   5.156  0.1549  0.1910 -0.0680
 6768W        W22577   9.695  14.510  11.586  0.0049 -0.0815  0.0447
 6769W        W22578   9.282   7.892   4.460  0.1927 -0.2511  0.2748
 6770W        W22579   4.516  10.274   1.237 -0.2035 -0.1437  0.0101
 6771W        W22580   5.617   1.704  14.739  0.0147 -0.1243 -0.1572
 6772W        W22581  10.529   3.229  12.922 -0.1268  0.1132  0.1096
 6773W        W22582  18.348  17.288   1.339 -0.0993 -0.2375  0.2182
 6774W        W22583   7.048   8.659   0.560 -0.0201  0.1517 -0.0197
 6775W        W22584  12.818  10.928   1.709  0.2444  0.1151 -0.0834
 6776W        W22585  10.205   6.705   1.330  0.2386  0.0104  0.1859
 6777W        W22586   6.987  16.329   4.884  0.1361  0.0003  0.4336
 6778W        W22587  13.083   4.453   4.398  0.1539 -0.0455  0.1133
 6779W        W22588  11.309  14.894  15.794 -0.1661  0.0606 -0.2215
 6780W        W22589   8.458   5.372   4.950 -0.2942 -0.1037 -0.3383
 6781W        W22590  16.080  10.353   1.196 -0.0323  0.2548 -0.0690
 6782W        W22591   8.071  14.015  11.259  0.3820 -0.3203  0.0968
 6783W        W22592   1.856  12.836  11.317  0.2170  0.0203 -0.3608
 6784W        W22593  13.684  16.630  12.447  0.0213  0.0628 -0.0610
 6785W        W22594  15.000   7.608   3.338  0.0694  0.1950  0.1472
 6786W        W22595   1.307   2.557  14.296  0.3394 -0.2943 -0.0383
 6787W        W22596  10.360  10.137  12.778  0.0742  0.1829  0.1137
 6788W        W22597   7.054   6.501   1.126  0.2494 -0.1138  0.2443
 6789W        W22598   2.758   6.541  15.374  0.0540 -0.0951  0.2581
 6790W        W22599  14.783   2.287   3.774 -0.0855 -0.0475  0.4249
 6791W        W22600  17.856  14.225  15.746  0.0006 -0.3928 -0.2038
 6792W        W22601   2.387  18.309  14.524 -0.1817  0.0694 -0.0477
 6793W        W22602   6.592  15.759   2.913  0.3771 -0.0374  0.1017
 6794W        W22603   0.695  11.070  12.411 -0.0443  0.1110  0.1803
 6795W        W22604  12.520   7.567  12.128 -0.0930  0.1588  0.0873
 6796W        W22605  14.998  12.043   1.390  0.2142  0.1330  0.0228
 6797W        W22606   7.226  12.486   4.069  0.1857  0.0067 -0.1542
 6798W        W22607  10.581   1.678  11.586  0.0934 -0.1688 -0.2208
 6799W        W22608  13.132  17.647  15.183 -0.1224 -0.2088 -0.2099
 6800W        W22609   4.930   5.417   1.272  0.0731  0.1596 -0.0619
 6801W        W22610  16.607   4.366   0.589  0.0862 -0.0809  0.0268
 6802W        W22611   9.721   9.869  13.993  0.3256  0.0578  0.2063
 6803W        W22612  12.605  10.786  11.141 -0.1729  0.0744  0.1205
 6804W        W22613  10.257  18.165  15.621  0.0600  0.1129  0.2871
 6805W        W22614  14.496   3.161  13.077 -0.2880  0.1545 -0.2136
 6806W        W22615   9.801  13.495  13.008 -0.0035 -0.1381 -0.1582
 6807W        W22616  17.061   5.845   2.430  0.2627 -0.2501  0.0195
 6808W        W22617   2.569   2.336   1.025  0.0101  0.1570 -0.0819
 6809W        W22618  16.621   7.348   4.535  0.2330 -0.0545  0.0545
 6810W        W22619  14.188  14.660   5.015 -0.1859 -0.0868  0.1068
 6811W        W22620   6.237   4.950  11.763 -0.0042 -0.3399  0.0067
 6812W        W22621  17.833  12.763   1.045  0.0552 -0.0839 -0.2578
 6813W        W22622   2.666  10.507   1.615 -0.3081 -0.2632  0.1458
 6814W        W22623  15.715   5.210  13.310 -0.1523  0.1787  0.1565
 6815W        W22624   7.166  17.803  15.364 -0.1791 -0.1163 -0.0318
 6816W        W22625  18.326  13.515   3.369  0.3456  0.1786  0.1127
 6817W        W22626  17.467   5.179  11.581  0.0628  0.0731  0.3367
 6818W        W22627   4.294  17.221   4.320  0.0911 -0.2835  0.0059
 6819W        W22628  12.371   2.360  13.318  0.0313 -0.0620  0.2701
 6820W        W22629  18.008   1.922  14.275  0.1480 -0.1425 -0.0641
 6821W        W22630  16.719  14.118   0.821 -0.1297 -0.0945  0.1614
 6822W        W22631  13.053  18.197  15.026  0.2977  0.1109 -0.0367
 6823W        W22632   5.459   7.737  10.593 -0.1768 -0.1767  0.2651
 6824W        W22633   8.820   8.368  14.645  0.3406 -0.0467  0.1243
 6825W        W22634   4.338   2.632   0.910  0.1238  0.2561 -0.2350
 6826W        W22635   3.341  17.960   5.251  0.0144 -0.0168 -0.1408
 6827W        W22636  11.060  17.801   1.385  0.2228 -0.1706  0.1208
 6828W        W22637   4.531   2.394  13.969 -0.0306  0.1186  0.2785
 6829W        W22638  11.900  17.376   9.774  0.2304 -0.0723 -0.1572
 6830W        W22639  13.728   5.831  11.180 -0.1481  0.0556 -0.1542
 6831W        W22640   6.022   4.145  14.893  0.1079 -0.0452  0.0996
 6832W        W22641  15.976  14.167   4.855 -0.1113  0.1789 -0.3762
 6833W        W22642  13.272  11.577   1.497  0.0688  0.2429 -0.1373
 6834W        W22643   5.921   1.880  12.686 -0.1279 -0.0382  0.2395
 6835W        W22644  13.661   5.673   4.507 -0.2739 -0.1560 -0.4175
 6836W        W22645  14.445  11.511  13.323 -0.0575 -0.1958 -0.0901
 6837W        W22646   7.214  14.688  14.770 -0.3205  0.0354 -0.1932
 6838W        W22647   6.728  14.541  14.574  0.1335 -0.0684 -0.3950
 6839W        W22648   3.000  17.955   3.592  0.2314 -0.1864  0.0015
 6840W        W22649  13.245   5.751   1.792 -0.0254  0.0907 -0.2138
 6841W        W22650  16.188  16.710   1.968  0.0861  0.1079 -0.2876
 6842W        W22651  14.375  16.094   4.884 -0.1687 -0.2016 -0.0348
 6843W        W22652   9.813   1.117   2.467  0.1593 -0.4506  0.0708
 6844W        W22653  18.436  16.944  15.417 -0.0304 -0.1991  0.0199
 6845W        W22654   7.767   3.437   1.439 -0.1715 -0.1262 -0.1532
 6846W        W22655  13.235  12.384   5.013 -0.3121  0.1563  0.3508
 6847W        W22656  13.123  12.653   0.462 -0.3126  0.1085  0.0225
 6848W        W22657  10.321   1.278  10.945 -0.1933  0.0829 -0.0056
 6849W        W22658  11.813   1.242   2.475  0.0989  0.2127  0.0983
 6850W        W22659  18.302  15.935  13.966  0.0233  0.0688 -0.0543
 6851W        W22660   5.250   7.332   3.502 -0.1502  0.3037  0.2090
 6852W        W22661  13.388  14.464  14.331  0.2801  0.1027 -0.2077
 6853W        W22662   7.662  16.475  12.182  0.0140 -0.0564 -0.1116
 6854W        W22663   8.564   5.924  11.584  0.2681 -0.1208 -0.1374
 6855W        W22664   8.798  13.071  12.892  0.1157 -0.2351 -0.0920
 6856W        W22665   2.172   5.574   1.434 -0.1064  0.1288 -0.0109
 6857W        W22666   7.516  13.783  12.444  0.0613  0.5192  0.3578
 6858W        W22667  13.936   0.390   1.374  0.0452 -0.2958  0.0209
 6859W        W22668   1.884   6.588  11.222  0.1461  0.1104  0.1078
 6860W        W22669  17.869   2.694  13.956 -0.0273 -0.2292  0.1813
 6861W        W22670   4.146  15.713   5.033  0.0441  0.1380  0.2488
 6862W        W22671  14.394   8.112  14.339 -0.1122 -0.0518  0.1227
 6863W        W22672  17.619   9.431   4.511 -0.1211  0.0230  0.1928
 6864W        W22673  17.435  18.271   1.823 -0.0651 -0.0645  0.1045
 6865W        W22674   1.420   4.788   2.689 -0.0938 -0.5216  0.1572
 6866W        W22675  15.081   1.998  15.844  0.2297  0.0062 -0.1892
 6867W        W22676  12.678  16.961   0.470 -0.1275 -0.2411  0.1321
 6868W        W22677  11.474   4.467   1.014  0.1184  0.1936  0.3196
 6869W        W22678  14.681  14.664   4.900 -0.0178 -0.1625  0.2238
 6870W        W22679   1.669   7.568   6.155  0.0519  0.2033 -0.0589
 6871W        W22680   5.416  16.608   0.467  0.1497  0.0242 -0.0295
 6872W        W22681   0.080  10.902   2.072 -0.0869  0.0393  0.0918
 6873W        W22682  11.011   8.810  11.943  0.3080  0.1598  0.1312
 6874W        W22683  10.655  10.887   0.113  0.1588  0.0784  0.0252
 6875W        W22684  18.024  10.062   5.531 -0.0739 -0.3914  0.1887
 6876W        W22685   5.369   2.292   3.551 -0.0773  0.1812 -0.2562
 6877W        W22686  17.735  17.686   2.741 -0.1151 -0.3178  0.0666
 6878W        W22687  13.238   9.418  12.835  0.0035  0.0885  0.1593
 6879W        W22688  15.695   6.727  12.301  0.1846 -0.1224  0.0513
 6880W        W22689  15.490  15.561  12.468 -0.3830 -0.1993  0.0764
 6881W        W22690   5.395   9.685  10.268 -0.0320 -0.0609  0.1052
 6882W        W22691   3.789   1.335   0.969  0.3589  0.1140  0.0051
 6883W        W22692   0.031  15.088  10.447 -0.1096 -0.2352 -0.2676
 6884W        W22693   2.862   4.401   4.290 -0.4065  0.1641 -0.1402
 6885W        W22694  11.016   8.736   2.376  0.0360 -0.2706  0.1171
 6886W        W22695   4.105  15.718  13.352  0.0465  0.2167 -0.0717
 6887W        W22696  14.657   8.041   0.388 -0.2728  0.0536  0.1854
 6888W        W22697  18.141  13.478   2.870  0.0347 -0.3658 -0.2953
 6889W        W22698   0.442  10.851   2.912 -0.0699  0.0658  0.2446
 6890W        W22699   2.355   3.245  12.303 -0.0542  0.0300  0.1714
 6891W        W22700  13.694   6.717   0.052 -0.2126 -0.1799 -0.0431
 6892W        W22701   8.656   6.626   2.938  0.0124  0.4161 -0.0189
 6893W        W22702  13.670  15.055   1.973  0.1044  0.1227 -0.2649
 6894W        W22703   7.053   2.380   3.418 -0.2263  0.0337  0.5189
 6895W        W22704   0.679  12.802  10.858 -0.1419 -0.0801 -0.0807
 6896W        W22705   9.003   5.498   5.151 -0.1599 -0.3493 -0.3743
 6897W        W22706  17.165   3.231   5.867 -0.0302 -0.0491 -0.0072
 6898W        W22707   3.480   6.743  11.156  0.0166  0.1806 -0.0246
 6899W        W22708   5.620   1.192  11.224  0.0165 -0.0722 -0.3725
 6900W        W22709  10.697  15.186   5.469 -0.0708 -0.0109  0.1097
 6901W        W22710  17.065   3.851  13.816 -0.0776  0.1095 -0.2504
 6902W        W22711   9.121   3.358  13.318 -0.2411 -0.2556  0.1107
 6903W        W22712  12.991   6.963   5.445 -0.0290 -0.2957  0.0665
 6904W        W22713  14.535  10.196   4.550  0.0834 -0.0433  0.0395
 6905W        W22714   2.234  10.494   0.353  0.0733 -0.0295 -0.0240
 6906W        W22715   8.828  11.547   2.707  0.0887  0.1131  0.1479
 6907W        W22716  11.591   0.513   5.167  0.2053 -0.3535 -0.0857
 6908W        W22717   5.910  11.862   1.212  0.0655 -0.2059  0.4169
 6909W        W22718  14.543  14.587   1.125 -0.1228 -0.1693  0.0722
 6910W        W22719   5.251   6.051   0.125 -0.1168 -0.0360 -0.1865
 6911W        W22720   3.676  12.545  13.662  0.0588 -0.1026 -0.1707
 6912W        W22721   2.862  11.276  11.005  0.1662 -0.2186  0.1154
 6913W        W22722   5.290  14.067   1.239 -0.0443  0.2019  0.0163
 6914W        W22723   6.979   7.605   0.664 -0.2220  0.4714  0.0096
 6915W        W22724  14.811  10.989  13.451 -0.0939 -0.1036  0.1004
 6916W        W22725  14.156   1.975  15.774  0.0654  0.4477  0.1248
 6917W        W22726  17.516  18.100   3.049 -0.0248  0.0525  0.3015
 6918W        W22727   1.359   1.514   4.679  0.0841  0.1852  0.3187
 6919W        W22728   4.597  16.670   5.198  0.1377 -0.0488  0.0353
 6920W        W22729  14.354  18.446   2.903  0.0635 -0.0935  0.3244
 6921W        W22730  10.531   7.334  13.245 -0.0229  0.2878 -0.1451
 6922W        W22731  10.012  10.231  14.534 -0.0039 -0.2794  0.2645
 6923W        W22732   9.831   0.934   0.206  0.0544 -0.1592 -0.0243
 6924W        W22733  17.342  13.886   4.240  0.4796  0.2703  0.0672
 6925W        W22734   5.269  14.334  10.814 -0.1646 -0.1611  0.0574
 6926W        W22735  15.953   8.133  14.243 -0.1055  0.0762  0.0819
 6927W        W22736   7.150   6.073  11.371  0.0444  0.2073 -0.1880
 6928W        W22737   7.288   3.571   4.564 -0.2537  0.0396 -0.1101
 6929W        W22738  14.246  16.409   2.511  0.1460 -0.0035 -0.0832
 6930W        W22739  11.135   5.846  14.914 -0.1698  0.1276  0.0787
 6931W        W22740   3.085   2.848   2.778  0.0212 -0.1661 -0.1069
 6932W        W22741  11.464  11.906   3.523  0.1770  0.1491  0.0230
 6933W        W22742  14.094   4.057  11.302 -0.2291  0.2235 -0.2459
 6934W        W22743  10.475   0.561  12.742  0.3471  0.2020  0.1622
 6935W        W22744   3.813   0.556   2.615 -0.1032  0.1558  0.0024
 6936W        W22745   5.626   4.657   2.472  0.0548  0.1703  0.0921
 6937W        W22746  12.192   4.030  11.130  0.1499  0.3037 -0.1484
 6938W        W22747   5.473   4.196   0.818  0.3635  0.2388  0.3155
 6939W        W22748  10.426   3.531   1.242 -0.1089 -0.1773 -0.2607
 6940W        W22749   1.125   6.826   3.810 -0.2406 -0.2700  0.2578
 6941W        W22750  10.323  18.215   3.330  0.0888  0.0681 -0.1091
 6942W        W22751  14.678   8.838   5.658  0.1508  0.1863  0.0744
 6943W        W22752   8.848  14.791   3.725 -0.0624  0.0375  0.0424
 6944W        W22753   3.629   7.620   2.514 -0.1920 -0.0997 -0.0195
 6945W        W22754   1.574   0.926   5.353 -0.0622  0.2359  0.0417
 6946W        W22755  12.306   7.799   0.286 -0.1222 -0.0316  0.1547
 6947W        W22756   2.633  11.963  14.384  0.2136 -0.3727 -0.1936
 6948W        W22757   5.223   7.693  12.909  0.0640 -0.0797 -0.1223
 6949W        W22758   0.555   7.963   4.178  0.1720  0.1434  0.1024
 6950W        W22759   1.330  12.607   4.344 -0.0082 -0.0535  0.0623
 6951W        W22760  16.454  16.635   0.074 -0.2042  0.2524  0.0611
 6952W        W22761  13.317   2.500   0.909 -0.0226 -0.3696 -0.0734
 6953W        W22762   8.887   7.731  15.518 -0.1192  0.1446  0.0653
 6954W        W22763  13.780  14.838  15.460  0.2299 -0.0796  0.0949
 6955W        W22764   3.667  10.162  15.031 -0.2176 -0.3218  0.2322
 6956W        W22765   0.227  10.874   5.409  0.2226 -0.1307 -0.2500
 6957W        W22766   8.654  16.914  12.521  0.0677  0.2741  0.1073
 6958W        W22767  17.905  15.978  15.173  0.0749  0.0840  0.2126
 6959W        W22768   4.868  10.550   0.943 -0.1309  0.1231 -0.0179
 6960W        W22769   8.083  12.191  13.324  0.1508 -0.3330  0.0040
 6961W        W22770  14.644  12.444  15.691  0.2066 -0.1191  0.2706
 6962W        W22771  17.860  17.441  13.237 -0.0910 -0.0623  0.3156
 6963W        W22772  17.469   9.594  12.696  0.1434 -0.1732 -0.4007
 6964W        W22773   1.091   5.653  12.257 -0.0989  0.0730 -0.0452
 6965W        W22774  10.488   0.881  11.138  0.0222 -0.2066 -0.0594
 6966W        W22775   0.705   0.101   3.688 -0.0717  0.2121  0.0038
 6967W        W22776  17.775  10.825  11.439  0.2547  0.2590 -0.1720
 6968W        W22777   7.209   6.612   5.793  0.1600 -0.1578 -0.0121
 6969W        W22778   3.594  10.183  13.476  0.1723 -0.2919 -0.0684
 6970W        W22779   7.887  18.260   2.090 -0.1552 -0.0513 -0.1713
 6971W        W22780  11.071  15.577  15.166 -0.1660  0.0171  0.2633
 6972W        W22781  11.862   9.604   0.376 -0.0087 -0.0644 -0.0060
 6973W        W22782   4.447  13.249  12.212 -0.3020 -0.0823 -0.1011
 6974W        W22783  11.383  10.437   1.653  0.0784 -0.3374  0.0103
 6975W        W22784  12.999   5.300   2.878  0.2118  0.1461  0.0074
 6976W        W22785   5.726  12.831   1.586  0.1611 -0.1691  0.2146
 6977W        W22786   2.112  15.604  14.246 -0.0727  0.0574  0.3251
 6978W        W22787  10.311  14.791   2.488  0.0065 -0.1891  0.0942
 6979W        W22788   6.724  12.388   1.187 -0.0449 -0.1381  0.0795
 6980W        W22789  17.372   4.182  12.834 -0.3630 -0.2632  0.0070
 6981W        W22790  17.279  12.806  10.095  0.0396 -0.1477  0.0533
 6982W        W22791   9.323   8.869   4.053 -0.2151 -0.1788 -0.2865
 6983W        W22792  11.683  16.152  11.849  0.1535 -0.1238 -0.0226
 6984W        W22793   8.166  11.642   5.344 -0.1181  0.2899 -0.0657
 6985W        W22794   5.643   4.262   2.168 -0.1919  0.0613 -0.0108
 6986W        W22795   4.228   6.305  12.193 -0.0190 -0.0894 -0.3618
 6987W        W22796   7.287  11.997  12.885 -0.1208 -0.0149 -0.3097
 6988W        W22797  12.311   2.168  15.835 -0.0302 -0.0548 -0.0381
 6989W        W22798   9.797   6.478  12.827  0.3222 -0.2515 -0.0085
 6990W        W22799  16.351  14.970   4.188  0.1067 -0.0392 -0.0749
 6991W        W22800   8.348  16.216   5.403  0.0931  0.0824  0.1072
 6992W        W22801  14.408  14.860   0.282  0.3044  0.2446 -0.0975
 6993W        W22802  15.368   1.272   6.119 -0.2704 -0.0756 -0.2212
 6994W        W22803  12.368  14.598   5.397 -0.0090 -0.2692 -0.1502
 6995W        W22804  10.067  10.835  12.111 -0.2164 -0.0331  0.2199
 6996W        W22805  12.048  16.925  12.549  0.0614  0.2664 -0.0649
 6997W        W22806  12.979   2.323   3.562 -0.2720  0.0903  0.0357
 6998W        W22807   0.417  17.716   0.756 -0.2037  0.0805  0.1470
 6999W        W22808   2.691  13.352  11.552  0.1269  0.1642 -0.1791
 7000W        W22809   9.268  12.770   1.830 -0.2168 -0.0057 -0.3135
 7001W        W22810   5.080   6.272  11.494  0.1090 -0.0935  0.0908
 7002W        W22811   0.851   9.173   1.368 -0.0812 -0.1468 -0.0295
 7003W        W22812  18.394   2.393   0.435  0.1902  0.1874 -0.1179
 7004W        W22813   0.879   0.181  11.027 -0.1632 -0.1639  0.2337
 7005W        W22814  14.037  17.903  11.617 -0.1316  0.1646  0.0216
 7006W        W22815  17.954   5.571   5.206 -0.2443 -0.0106 -0.0783
 7007W        W22816  14.654   1.080   0.862  0.1589 -0.0778  0.3075
 7008W        W22817   2.740   9.854   1.939  0.2086  0.2735  0.0317
 7009W        W22818  10.611   0.143   1.616  0.3269 -0.1501 -0.1984
 7010W        W22819   4.253  12.981  11.529 -0.1420  0.2436 -0.0343
 7011W        W22820  15.253  18.278  11.985  0.0411 -0.1125  0.1184
 7012W        W22821   5.369   6.564   3.850  0.0588 -0.0295 -0.1417
 7013W        W22822   7.170   5.354  11.179 -0.1409  0.0273 -0.0915
 7014W        W22823   2.742  15.262  12.621 -0.1407 -0.1290  0.0509
 7015W        W22824   4.134  12.420   3.422  0.2049  0.1294 -0.1569
 7016W        W22825  14.545  16.363   4.437 -0.0200  0.2030  0.0667
 7017W        W22826   6.421  14.988   5.516 -0.1529  0.0580  0.0331
 7018W        W22827   3.144   0.739  12.918  0.2860  0.4450 -0.0151
 7019W        W22828   0.457  11.556   0.991  0.0118 -0.3246 -0.1420
 7020W        W22829   1.388  14.876   4.190  0.0970  0.2040  0.0967
 7021W        W22830  18.290   8.327  10.990  0.0552 -0.1049 -0.0454
 7022W        W22831   0.572  11.516   5.773  0.0046 -0.1324 -0.0603
 7023W        W22832  12.313   6.218  14.073  0.3110 -0.0876  0.2159
 7024W        W22833   1.647  18.291  15.528 -0.3470  0.1802  0.0385
 7025W        W22834  18.399  10.472   5.445  0.1316  0.1092  0.2136
 7026W        W22835  10.991   9.076   4.509  0.2299 -0.1179  0.1345
 7027W        W22836   7.326   3.388  11.121  0.0906 -0.2122  0.0242
 7028W        W22837  13.933   2.961   3.788  0.2574 -0.2505  0.1738
 7029W        W22838   8.164  10.014  13.703 -0.2035  0.2010 -0.3237
 7030W        W22839   2.194   4.640   3.815  0.2071 -0.0023 -0.1465
 7031W        W22840   7.352  12.878   1.061  0.0679 -0.0233  0.2342
 7032W        W22841  13.060  17.174  15.552  0.2746  0.3917 -0.2537
 7033W        W22842  18.434  12.826   5.263 -0.2074  0.1352  0.1726
 7034W        W22843   6.639  17.040   5.221  0.1637  0.0224  0.0579
 7035W        W22844  10.506  14.066   3.255  0.0672 -0.0499  0.1385
 7036W        W22845   3.151  13.820  10.285  0.1758  0.1310  0.0252
 7037W        W22846   1.740  17.265   2.285 -0.0192  0.2242 -0.4400
 7038W        W22847  16.311   8.655  12.478 -0.0469 -0.2507 -0.0201
 7039W        W22848  14.616   3.045  15.046 -0.2650 -0.0495  0.1983
 7040W        W22849  13.262  15.939  12.268 -0.2577 -0.1908 -0.0467
 7041W        W22850   2.061   2.284  14.382  0.1732  0.0690 -0.0503
 7042W        W22851   4.667   7.982   4.033  0.1851  0.0274 -0.0722
 7043W        W22852   2.075  16.883   0.057 -0.1006 -0.0268 -0.2342
 7044W        W22853   0.552  13.158  13.450 -0.1232 -0.0362  0.0886
 7045W        W22854  18.141  13.673   1.953 -0.0050 -0.2508 -0.2067
 7046W        W22855   4.812   5.928  13.614 -0.3895 -0.2986  0.0618
 7047W        W22856   7.555   0.819  11.594  0.1105  0.2067 -0.0676
 7048W        W22857  14.803   8.820   2.529 -0.0643  0.1628 -0.0601
 7049W        W22858  16.959   8.353   0.427  0.0133  0.0897  0.2499
 7050W        W22859   2.927  14.140  15.055 -0.0914 -0.4167  0.2758
 7051W        W22860   4.466   4.065  15.036 -0.0159 -0.0781  0.2179
 7052W        W22861   2.522   8.016  13.180 -0.0651 -0.1942 -0.3197
 7053W        W22862   9.725  17.056  12.201  0.2420 -0.2503  0.2857
 7054W        W22863  10.851  17.997   5.113 -0.3031 -0.0780 -0.0628
 7055W        W22864   5.507   1.100  10.777  0.2272 -0.1919 -0.0086
 7056W        W22865   8.308   0.044   2.274 -0.2541 -0.1549 -0.0312
 7057W        W22866  10.517  17.498  11.692  0.1363  0.3244  0.2781
 7058W        W22867   1.004   0.349   5.434 -0.3597 -0.2462  0.0936
 7059W        W22868   0.034  10.061  11.180  0.0002 -0.1740 -0.0315
 7060W        W22869   3.014   9.138   4.329  0.1581 -0.1013 -0.2882
 7061W        W22870  12.612  14.927   5.088 -0.0228 -0.1030  0.0313
 7062W        W22871  16.869   3.964   3.705  0.1264 -0.3027  0.0184
 7063W        W22872  17.847   4.213  12.321 -0.0665 -0.2274 -0.0584
 7064W        W22873  16.929  12.369  10.364 -0.0092 -0.1851  0.1622
 7065W        W22874   6.754   7.330  14.640  0.1851  0.0183 -0.4165
 7066W        W22875   2.210   7.212  12.652 -0.1392  0.0490  0.1733
 7067W        W22876   8.241   9.537  15.816  0.0948  0.0831  0.0312
 7068W        W22877   6.724  10.639  14.318  0.0912  0.0504  0.0306
 7069W        W22878  12.975   2.661   3.180 -0.2617  0.2990 -0.0575
 7070W        W22879  17.084  11.818   4.775  0.0017 -0.1969 -0.2570
 7071W        W22880   4.555   3.358  12.305 -0.0500  0.0210 -0.3741
 7072W        W22881   8.438   4.043  13.526 -0.0235 -0.0829  0.2382
 7073W        W22882  12.306   3.256  13.830  0.1744  0.2345 -0.2986
 7074W        W22883  12.766   7.015  11.554  0.1431  0.1796 -0.2068
 7075W        W22884  16.916   9.027  15.404 -0.1072  0.0421 -0.0910
 7076W        W22885  12.896  16.463  11.744  0.2305  0.1373 -0.1453
 7077W        W22886   3.625  12.896  13.127 -0.0835 -0.0036  0.0972
 7078W        W22887   9.476   4.260   9.945  0.3699 -0.0444 -0.1409
 7079W        W22888  15.241   5.892   2.750 -0.3260 -0.0805  0.0906
 7080W        W22889   2.997  12.782   0.677 -0.0686  0.0275 -0.1379
 7081W        W22890   3.200  16.941   0.869  0.2388 -0.1106 -0.0829
 7082W        W22891  11.232   2.329  14.862  0.2402  0.0878 -0.0204
 7083W        W22892   8.856   2.719   3.390 -0.1455 -0.0472  0.0929
 7084W        W22893   6.259  12.934  13.912 -0.1073 -0.1587  0.1796
 7085W        W22894  10.655  14.769  10.493 -0.3711  0.4312  0.1168
 7086W        W22895  16.994   6.960  15.702  0.2964  0.1509 -0.0486
 7087W        W22896   6.506  14.630  11.864  0.0474 -0.2488 -0.2136
 7088W        W22897  18.269  11.473   0.537 -0.0010  0.2438 -0.1548
 7089W        W22898  12.602  11.835  11.414  0.0023 -0.1632 -0.0700
 7090W        W22899   9.271  14.305  13.251  0.0375  0.1884 -0.2685
 7091W        W22900   7.160   5.400   4.796 -0.2131  0.1528  0.0605
 7092W        W22901   2.713   3.074   4.828  0.1187  0.1055  0.3297
 7093W        W22902   8.415  10.647   4.965  0.3935 -0.0804  0.4753
 7094W        W22903  16.291   3.450  11.521  0.1691 -0.3928 -0.1898
 7095W        W22904   7.828   7.375   0.439 -0.2630  0.0352 -0.3736
 7096W        W22905   3.101  15.993  14.752 -0.1392 -0.3603  0.1748
 7097W        W22906  14.753  14.250   1.460  0.0334 -0.1917  0.0601
 7098W        W22907  10.008  11.752   3.559  0.1848 -0.1853 -0.0501
 7099W        W22908   5.158  14.848  10.736 -0.2762  0.1979 -0.1674
 7100W        W22909   5.682  16.952  11.616  0.0971  0.0738 -0.2496
 7101W        W22910  12.422   0.262  15.060  0.0630  0.1304 -0.0317
 7102W        W22911  13.491  14.077  15.756 -0.1990 -0.0119  0.0455
 7103W        W22912   0.215   1.632  11.092 -0.4384 -0.1022 -0.4267
 7104W        W22913  12.882   3.968   2.588 -0.1861 -0.0493  0.0054
 7105W        W22914   0.727   3.695  15.258 -0.0688 -0.0977 -0.2730
 7106W        W22915   7.593  17.248   0.708  0.3469  0.0345 -0.1590
 7107W        W22916   4.348   1.778   3.311  0.1898 -0.2670 -0.4351
 7108W        W22917  14.537   0.401   3.084  0.1368  0.0539 -0.3364
 7109W        W22918   0.752   7.439   4.621  0.0097 -0.0013  0.0710
 7110W        W22919   9.448  11.781   3.476 -0.0711 -0.0513  0.0117
 7111W        W22920   6.891   0.825  11.609  0.2225 -0.0181  0.0107
 7112W        W22921   9.723   4.996   1.784 -0.0021  0.0785 -0.1289
 7113W        W22922  10.461   3.616  12.459  0.1418  0.1906 -0.2087
 7114W        W22923   4.302   2.001  13.093  0.1438  0.0494 -0.2506
 7115W        W22924  12.521   5.503   2.717  0.1116 -0.1154 -0.4685
 7116W        W22925   4.059   8.753  11.565 -0.0625 -0.0080  0.1720
 7117W        W22926  16.515   7.901  15.734 -0.1796 -0.1962  0.0949
 7118W        W22927   9.706  11.768  12.798  0.0223 -0.1301 -0.2151
 7119W        W22928  14.426   6.560   1.759  0.2951 -0.1864  0.1656
 7120W        W22929  17.161   7.162   5.156  0.0598 -0.3437  0.0780
 7121W        W22930   4.825   2.017   2.045 -0.1322  0.0494 -0.2772
 7122W        W22931   7.970   6.275  12.160 -0.0202  0.1316 -0.1139
 7123W        W22932   9.374   4.318   0.651 -0.2057 -0.1921  0.0105
 7124W        W22933   4.875  10.647   5.542 -0.1574  0.2891 -0.1109
 7125W        W22934   7.410  10.293  11.411  0.2827 -0.2190 -0.0826
 7126W        W22935  15.010  16.103  14.711  0.1573  0.1110  0.2405
 7127W        W22936   3.881   1.837   3.061  0.0449  0.1206 -0.2272
 7128W        W22937   7.445  10.655   0.323  0.0191 -0.3292 -0.1722
 7129W        W22938   8.263  11.020   0.162 -0.2746  0.1467  0.2463
 7130W        W22939   1.850   1.047   3.269  0.0520 -0.0276 -0.2282
 7131W        W22940   1.424  14.935  11.031  0.2338  0.1529  0.0261
 7132W        W22941   0.195  15.154   2.602 -0.0706  0.0476 -0.0373
 7133W        W22942   2.492  11.424  11.482 -0.2696 -0.2483  0.2315
 7134W        W22943  15.788   0.269   5.928 -0.0971  0.3224 -0.1154
 7135W        W22944  16.868   4.800   3.339  0.2490 -0.3428  0.0941
 7136W        W22945  16.010  11.201   0.466  0.0266  0.0957 -0.1442
 7137W        W22946   7.187   0.742  13.122 -0.2128 -0.1933 -0.1632
 7138W        W22947   1.669  13.972  13.695 -0.2691  0.0927 -0.1505
 7139W        W22948   7.188   4.945  12.185 -0.2853  0.4083  0.2666
 7140W        W22949  15.022   2.286   3.021  0.1649  0.1102  0.0930
 7141W        W22950  16.059   7.325  11.174 -0.0045 -0.0069  0.1637
 7142W        W22951  12.580   5.549  10.086  0.0916  0.1445 -0.1184
 7143W        W22952   7.075   1.035  13.514  0.0440 -0.2831 -0.2661
 7144W        W22953   1.933  16.353   4.181 -0.2367  0.0969  0.0340
 7145W        W22954  18.200  10.035   1.001 -0.1504  0.1471  0.1421
 7146W        W22955  11.531  18.185   3.345 -0.2802 -0.1067  0.1500
 7147W        W22956   6.879  15.621  12.210  0.0213 -0.1438 -0.1182
 7148W        W22957  17.104   7.744  13.454  0.1684  0.2283 -0.0542
 7149W        W22958  11.506   8.463   3.385 -0.1081 -0.2251  0.1483
 7150W        W22959  16.739   8.806   0.563 -0.0532  0.1991  0.0226
 7151W        W22960   5.825   5.468   1.223  0.0424  0.1881  0.2705
 7152W        W22961   3.625  16.028  12.734  0.0643  0.3482  0.0463
 7153W        W22962   8.162   6.736  12.061 -0.0940  0.0913 -0.0990
 7154W        W22963   5.367   9.065   0.353 -0.2594 -0.4174 -0.0458
 7155W        W22964  15.393   8.680   4.353  0.2819 -0.0325 -0.2451
 7156W        W22965   9.116   1.382   0.207  0.0245  0.0166 -0.1307
 7157W        W22966  12.759   2.246  14.944  0.0063  0.1525  0.0000
 7158W        W22967   6.946   1.194   4.226 -0.1702  0.0807  0.3394
 7159W        W22968  18.450   9.342  12.427  0.2267 -0.0533 -0.2000
 7160W        W22969   2.910   0.456   5.057 -0.2819  0.0052 -0.2306
 7161W        W22970  15.398  11.038  12.492  0.0764 -0.0857 -0.0018
 7162W        W22971   5.697   0.632   1.911 -0.3469  0.0580 -0.1787
 7163W        W22972   6.670  12.624  12.628  0.1811  0.0634 -0.1711
 7164W        W22973   1.588  12.265  11.850 -0.0934 -0.0768 -0.1121
 7165W        W22974  16.074   0.963   0.727  0.2997 -0.0734 -0.1171
 7166W        W22975  15.176  13.262  11.644 -0.0562 -0.2398  0.0989
 7167W        W22976   0.708   4.065   3.352 -0.0492 -0.0202 -0.1895
 7168W        W22977  15.559  16.860  10.565 -0.2518  0.0226 -0.2914
 7169W        W22978  11.056   7.493  13.114  0.0809 -0.2639  0.1869
 7170W        W22979  16.970  15.691   0.364 -0.0167  0.0204  0.0647
 7171W        W22980  17.040   1.309   0.133  0.1182 -0.0552  0.3196
 7172W        W22981  15.740   4.834  15.073 -0.1217 -0.0272  0.3284
 7173W        W22982   4.037  17.737   1.123 -0.2353 -0.0217  0.1727
 7174W        W22983   0.913  12.938  14.942 -0.1092 -0.1074  0.1024
 7175W        W22984   5.665  15.549  11.325  0.1769  0.1678  0.2039
 7176W        W22985   2.518  10.958  12.292  0.1414  0.1667  0.0757
 7177W        W22986   3.348  17.811   5.732  0.0048  0.2928  0.0928
 7178W        W22987   5.896  16.294   0.175  0.1474  0.2172 -0.3506
 7179W        W22988  16.266   2.063   5.238 -0.0507 -0.0243 -0.1081
 7180W        W22989  10.751   6.804   3.402 -0.0083 -0.1765  0.0123
 7181W        W22990  16.032   3.477   4.183  0.2270  0.0895 -0.0077
 7182W        W22991   7.651   6.464  14.873 -0.2505 -0.0371  0.2562
 7183W        W22992  15.563  14.202  12.002  0.0948 -0.0070  0.1482
 7184W        W22993   6.971   5.834   0.518 -0.1088 -0.1216  0.0355
 7185W        W22994  10.063   8.785   2.645 -0.0108  0.2172  0.1088
 7186W        W22995  17.094  17.437  14.608 -0.0147  0.3761 -0.0410
 7187W        W22996  15.697   9.286   2.995 -0.0969  0.0645 -0.0219
 7188W        W22997   7.771   8.496   4.955  0.0803 -0.1358  0.0091
 7189W        W22998   1.734   8.896   0.979  0.1995  0.1188  0.0553
 7190W        W22999  12.884   2.332  11.960 -0.0223 -0.1162  0.2761
 7191W        W23000  12.418  14.587  14.249  0.0544 -0.0054 -0.1014
 7192W        W23001  12.571  11.276  13.680 -0.1187  0.2081 -0.1501
 7193W        W23002  13.911  16.641   4.005  0.3096  0.1099 -0.1487
 7194W        W23003   0.307   5.367  15.021 -0.2832 -0.0574 -0.0500
 7195W        W23004   2.937  18.069  12.145  0.1749  0.2066  0.1436
 7196W        W23005   3.404   2.986  14.539 -0.0596  0.1025 -0.0424
 7197W        W23006   7.382   7.366  12.679 -0.1343  0.2405 -0.1443
 7198W        W23007   2.151   5.208  13.818  0.0911  0.0071 -0.1312
 7199W        W23008  13.393  15.467  14.709  0.1077  0.2795 -0.0369
 7200W        W23009   4.094   2.286   1.724 -0.0517 -0.1432  0.4316
 7201W        W23010  11.609   4.122   1.329  0.1452  0.1766  0.1131
 7202W        W23011  15.898  15.356  14.146 -0.4410  0.0772  0.2892
 7203W        W23012  12.605  17.103   5.733 -0.0755  0.4190 -0.0210
 7204W        W23013   5.841   3.046   2.399 -0.0101  0.3663 -0.4261
 7205W        W23014   4.677  11.801   2.931  0.1556  0.0129 -0.1236
 7206W        W23015  17.877   0.701   2.907 -0.0588  0.1780 -0.4422
 7207W        W23016   3.995   1.293   2.195  0.2114  0.4586 -0.1227
 7208W        W23017  14.311   3.601   2.513  0.2741 -0.1809 -0.2289
 7209W        W23018   8.548  17.682   4.507  0.4764  0.0572  0.0353
 7210W        W23019  15.213  17.781   2.841 -0.1276  0.2026  0.0210
 7211W        W23020   5.602  10.078   2.691  0.1987 -0.1994 -0.0794
 7212W        W23021   4.357  13.206   5.411  0.2096  0.0351  0.3764
 7213W        W23022  15.154  12.983   1.499 -0.3493  0.4659  0.0828
 7214W        W23023   5.632  13.308  11.764  0.3530  0.0544 -0.0272
 7215W        W23024  17.276  12.154   2.958  0.2712 -0.1012  0.1861
 7216W        W23025  16.590  12.504  11.285  0.0723 -0.0683  0.0280
 7217W        W23026   8.116  15.316  12.416 -0.1657  0.0239  0.1042
 7218W        W23027  13.139   4.711   0.176  0.3438 -0.3323 -0.2598
 7219W        W23028  14.185  12.774   0.019  0.1565  0.0844 -0.1176
 7220W        W23029  12.293  12.028  10.988 -0.0745 -0.1128 -0.1281
 7221W        W23030  16.756  18.121  11.979 -0.2324 -0.4421 -0.1549
 7222W        W23031   2.679  15.911  14.983  0.2073 -0.3829 -0.0365
 7223W        W23032   1.557   3.091   3.309  0.0159  0.2172  0.0360
 7224W        W23033   2.276   5.266  12.531 -0.1448  0.3716  0.0692
 7225W        W23034  10.584   7.175   5.207  0.1704  0.1041 -0.1054
 7226W        W23035  17.738  13.413   5.081  0.2892  0.2550  0.0321
 7227W        W23036   3.020   5.716   3.402 -0.0063  0.0449 -0.0143
 7228W        W23037   7.248  10.146   4.221  0.0989  0.1378 -0.1881
 7229W        W23038   5.543  10.799   2.111  0.0071  0.4785  0.2029
 7230W        W23039  11.737   1.045   5.209  0.1939  0.0165  0.0193
 7231W        W23040   9.435   4.994   3.359  0.2774  0.2341 -0.3869
 7232W        W23041   4.868  15.117  11.097 -0.2194  0.1121 -0.6400
 7233W        W23042   8.270  13.585   0.082  0.1948  0.1181  0.3819
 7234W        W23043   8.761   1.901  14.913 -0.0655  0.0632  0.0889
 7235W        W23044   7.390   1.249   3.880  0.0314 -0.3690 -0.0749
 7236W        W23045   1.161  10.546   4.303 -0.3058  0.1002 -0.1381
 7237W        W23046   6.701   3.287   1.404 -0.1467  0.2240  0.0810
 7238W        W23047  13.364  10.213  15.147  0.1294 -0.2048  0.1055
 7239W        W23048  11.940  17.555   5.523  0.1128  0.0789 -0.0399
 7240W        W23049  11.331   1.419  14.038 -0.4152  0.1008  0.0148
 7241W        W23050   5.482  13.912   2.918 -0.1419 -0.0641  0.2225
 7242W        W23051   7.182   7.909  13.495 -0.0502  0.0625 -0.1181
 7243W        W23052  13.655  15.327  11.902  0.3639 -0.2121  0.1401
 7244W        W23053   5.852  17.076  14.074 -0.2622 -0.2465  0.0738
 7245W        W23054  12.204  18.235  10.771 -0.0044  0.1663  0.1698
 7246W        W23055   5.414   1.144   1.530 -0.1938  0.2303 -0.2701
 7247W        W23056  12.817  15.606  12.343 -0.1970  0.0198 -0.0816
 7248W        W23057   6.880   7.303   1.469  0.0505 -0.2117  0.1696
 7249W        W23058   0.535   2.409   2.390 -0.1350  0.2198 -0.0034
 7250W        W23059   2.780  12.321   2.805  0.1649 -0.0213 -0.2256
 7251W        W23060  16.928  17.641   3.087  0.2634 -0.2787 -0.3913
 7252W        W23061   3.531  16.411  13.677 -0.1418 -0.0258  0.1465
 7253W        W23062  13.726  16.837   1.276 -0.1228 -0.4219  0.1136
 7254W        W23063  12.786   4.316   0.058 -0.2306 -0.0002 -0.2398
 7255W        W23064  12.047   3.582   4.432  0.4347 -0.0242  0.4534
 7256W        W23065  15.434   7.394   5.407 -0.2762 -0.0001 -0.0240
 7257W        W23066  10.771   9.440   4.755 -0.1746 -0.0879  0.2184
 7258W        W23067  11.263  18.385  13.139 -0.1230  0.2170  0.2598
 7259W        W23068   7.475   4.105   0.154  0.0904 -0.2645  0.0817
 7260W        W23069   1.350  14.987  13.648 -0.0333  0.0811 -0.0545
 7261W        W23070   7.376   6.493  15.333  0.1387 -0.0632 -0.1741
 7262W        W23071   0.998   4.873   4.613 -0.1240  0.1291  0.1721
 7263W        W23072  11.199   7.933   0.472  0.0602  0.1042 -0.1000
 7264W        W23073   8.220  18.193   3.045 -0.3847 -0.1140  0.1444
 7265W        W23074   2.043   1.589   4.005 -0.0886 -0.0552  0.1223
 7266W        W23075   6.693  16.435   3.605  0.0443  0.3923 -0.3765
 7267W        W23076   7.578  16.796   5.061  0.1309 -0.1194  0.5629
 7268W        W23077   5.144   5.383  12.548 -0.0932 -0.1402 -0.0336
 7269W        W23078  17.429   6.183   6.324  0.0994 -0.0144 -0.0707
 7270W        W23079   8.613   8.941  13.976  0.2860  0.1257 -0.0158
 7271W        W23080  14.692  14.885   4.087 -0.0332 -0.1272 -0.1781
 7272W        W23081  16.902   6.692  11.716  0.1285  0.0666  0.4231
 7273W        W23082  10.430   2.195   0.246  0.1671 -0.2654  0.0817
 7274W        W23083  13.325  14.942  10.413  0.2406 -0.0458 -0.2513
 7275W        W23084  12.315  10.281   0.427 -0.1951  0.0149  0.1478
 7276W        W23085   4.344   8.482   0.601 -0.1328  0.1008 -0.1720
 7277W        W23086   3.262  14.085   0.267  0.0095 -0.1233  0.1711
 7278W        W23087  15.385   7.309  11.649 -0.1130  0.0211 -0.1125
 7279W        W23088  14.113  16.711   2.075  0.2515  0.3088 -0.4218
 7280W        W23089  18.062   8.912  11.809  0.2345  0.0616 -0.0678
 7281W        W23090  14.280  13.353   3.809 -0.1626 -0.3954 -0.2089
 7282W        W23091  10.891   0.249  13.082  0.0577  0.3793  0.1344
 7283W        W23092  14.755   8.117  12.820  0.0057 -0.0773 -0.1425
 7284W        W23093   4.134   7.468   1.471 -0.2097 -0.0170 -0.0135
 7285W        W23094  15.424  12.941  15.645  0.2137  0.2183 -0.1236
 7286W        W23095  15.464  10.624  12.715 -0.1376 -0.1723  0.0846
 7287W        W23096   1.798  14.837   2.934  0.1847  0.1939 -0.0951
 7288W        W23097   6.050   1.225   2.412 -0.0237 -0.3814 -0.1642
 7289W        W23098   6.355  13.066  11.348  0.0403  0.4005 -0.1344
 7290W        W23099  10.253   9.108   2.266  0.0817 -0.4302 -0.0183
 7291W        W23100   4.825   1.921   3.451  0.1347 -0.0425 -0.1343
 7292W        W23101  16.623  15.951  11.319 -0.0709 -0.3328 -0.3761
 7293W        W23102   1.945   7.810   0.939 -0.1764  0.1115 -0.3041
 7294W        W23103  10.440   1.999   1.743  0.1587 -0.2617 -0.2467
 7295W        W23104  15.305  13.483  13.492  0.0091  0.1858 -0.0231
 7296W        W23105  14.036   6.539   2.934 -0.3223 -0.2552 -0.2256
 7297W        W23106   8.940   7.247  15.289 -0.1105  0.1700  0.0738
 7298W        W23107  11.991  10.614   4.622 -0.0003  0.0352 -0.0471
 7299W        W23108   6.238  14.848   0.219 -0.0663  0.0868 -0.0458
 7300W        W23109   5.029  18.184   4.445  0.1463 -0.1646  0.0729
 7301W        W23110  10.001   6.696   3.750  0.0126 -0.0560 -0.1731
 7302W        W23111   5.972  17.944  14.038  0.0761 -0.3783  0.4476
 7303W        W23112   6.837   4.233  14.623 -0.1320 -0.3956  0.1648
 7304W        W23113   9.756   5.206   3.032 -0.0027 -0.0801 -0.0320
 7305W        W23114   4.578   1.757   4.477  0.1613  0.0698  0.0681
 7306W        W23115  17.459   2.454  15.525  0.1075  0.2799 -0.2218
 7307W        W23116   4.754   2.254   4.619  0.1895  0.1177  0.0551
 7308W        W23117  16.742   2.301   2.065  0.0641 -0.1710  0.0318
 7309W        W23118  10.151   5.625  14.590 -0.2388  0.1432  0.0228
 7310W        W23119  17.113  11.166   2.343  0.0034  0.0503 -0.1141
 7311W        W23120  17.357   2.532   5.808 -0.1239 -0.4304  0.4901
 7312W        W23121   7.872   4.966   3.114  0.1484  0.2674  0.1237
 7313W        W23122   2.989  16.638  15.839 -0.0616  0.2117  0.0310
 7314W        W23123  13.611  12.668   1.150 -0.2546 -0.1162  0.1546
 7315W        W23124   7.650  10.327   5.107 -0.1208  0.0057  0.1260
 7316W        W23125   1.739  11.726  15.539 -0.0872  0.0589 -0.1502
 7317W        W23126   2.651  11.839  13.834 -0.0226 -0.0845  0.2678
 7318W        W23127  15.900  13.721  10.896 -0.1641  0.3382  0.2548
 7319W        W23128  12.016   6.778  10.833 -0.1359 -0.2472 -0.1704
 7320W        W23129   5.820   5.993   1.220 -0.1162  0.2013 -0.2748
 7321W        W23130  17.115  15.318   3.111  0.0324  0.0281  0.0938
 7322W        W23131  16.592   1.513  12.960  0.1026  0.0025 -0.0116
 7323W        W23132  16.797  17.537   4.761  0.0659  0.0809 -0.1857
 7324W        W23133  16.889   9.649  13.016  0.1975  0.2913  0.0734
 7325W        W23134  12.678   6.615  12.675 -0.0569 -0.1518  0.1726
 7326W        W23135  10.598  12.723   1.127 -0.0847 -0.1493  0.3738
 7327W        W23136   2.995   1.399   2.056  0.0522 -0.1169  0.2523
 7328W        W23137   8.483   8.103   1.006  0.4096 -0.3311  0.0213
 7329W        W23138   4.854   9.931   1.424  0.1800 -0.1465  0.1593
 7330W        W23139  12.824  16.879  11.482  0.0439 -0.0863  0.1888
 7331W        W23140   2.687   4.068   1.833  0.0099  0.0424 -0.1506
 7332W        W23141   4.242  14.388   0.148 -0.0115 -0.2605 -0.1102
 7333W        W23142   9.439   6.058   3.865 -0.0371 -0.1550  0.1638
 7334W        W23143   2.184  17.734  12.869 -0.0499 -0.0307  0.0864
 7335W        W23144  14.219  16.870  12.617  0.0796 -0.0502  0.1136
 7336W        W23145  15.361  10.452  15.413 -0.1424 -0.3660  0.2386
 7337W        W23146  11.226  12.269   3.979  0.1630  0.4712  0.3714
 7338W        W23147  12.150   1.672   3.525 -0.2001 -0.1260 -0.1834
 7339W        W23148  11.291  16.572   3.995  0.0504 -0.0486  0.1158
 7340W        W23149  14.319  10.588   1.585 -0.4547 -0.0671  0.0754
 7341W        W23150  14.671   6.097   4.021  0.0795 -0.0421 -0.1350
 7342W        W23151  13.291   7.566  15.808 -0.0214 -0.0497 -0.0974
 7343W        W23152   4.726   4.988   2.553 -0.1468  0.1515  0.0515
 7344W        W23153   6.719   5.611   2.732  0.1731 -0.1454 -0.0110
 7345W        W23154  13.587   3.615   0.379 -0.0336  0.3850 -0.0376
 7346W        W23155  18.022  16.286   4.079  0.0264  0.1476  0.1565
 7347W        W23156   1.359  14.804  15.126 -0.2379 -0.0177 -0.0576
 7348W        W23157   4.430   2.583   2.028 -0.0922  0.2595  0.2607
 7349W        W23158   3.558  17.642   1.000 -0.3064  0.2334 -0.0279
 7350W        W23159  11.248   2.761   0.274 -0.0795  0.1440  0.0207
 7351W        W23160   6.168  10.784  13.881  0.2296  0.0178  0.0070
 7352W        W23161   2.221  17.667  13.379  0.0588 -0.1870  0.1934
 7353W        W23162  17.514  17.607   5.376  0.0862 -0.0135 -0.3006
 7354W        W23163  11.345   3.668   2.535  0.1228 -0.2382 -0.0283
 7355W        W23164   2.229   2.619  11.702 -0.1650  0.0282 -0.0492
 7356W        W23165  10.495   3.658   2.121  0.4859  0.3560 -0.2847
 7357W        W23166   9.247   2.336   4.810  0.0399 -0.5427  0.0799
 7358W        W23167   4.967   2.081  14.964  0.2250 -0.0199  0.3107
 7359W        W23168   7.238  13.906   1.859 -0.0982 -0.1834  0.1148
 7360W        W23169   4.963  15.039  12.626  0.0576  0.2614 -0.3281
 7361W        W23170   0.380   9.194   0.130  0.1022  0.1086  0.1572
 7362W        W23171  11.837  16.998   2.815 -0.0970 -0.2674  0.3281
 7363W        W23172   9.841   0.235  14.641 -0.2128 -0.0807  0.2433
 7364W        W23173   7.882  11.158   5.287 -0.0211 -0.2108 -0.0762
 7365W        W23174  14.603   6.913  11.275  0.1128  0.0303  0.2174
 7366W        W23175  11.686   4.059  11.241 -0.2700  0.0270  0.1067
 7367W        W23176  10.838  16.092  15.661  0.3342 -0.0283 -0.1281
 7368W        W23177   1.090   5.695   1.763  0.0355 -0.2619  0.4761
 7369W        W23178  11.286   2.417  13.677 -0.1272 -0.0088 -0.1687
 7370W        W23179  18.088   6.833   5.046 -0.0211 -0.0028 -0.2318
 7371W        W23180  14.791   2.750  13.272  0.1023  0.0258 -0.0767
 7372W        W23181  15.055  17.183   3.481 -0.0239  0.3406  0.2009
 7373W        W23182   2.138  14.496  13.287 -0.0634  0.0147 -0.4355
 7374W        W23183  13.063   8.018  13.988 -0.3863  0.0409  0.1799
 7375W        W23184   9.046   5.111  11.477  0.2629 -0.0345  0.0975
 7376W        W23185   6.695   5.041   0.662 -0.2121  0.1240 -0.0228
 7377W        W23186  15.797  10.049  15.457 -0.1146 -0.1689 -0.2254
 7378W        W23187   6.115   9.734  13.329  0.3193  0.0618  0.0434
 7379W        W23188  10.283   5.585  11.637  0.2980  0.0662 -0.0652
 7380W        W23189   7.449  15.064   4.334 -0.0893  0.1692  0.5071
 7381W        W23190  16.569  14.137   1.320 -0.1512  0.1496 -0.0640
 7382W        W23191   6.991   3.935   4.393 -0.4170 -0.2947 -0.0868
 7383W        W23192   5.597   9.204   2.223 -0.1578  0.3238 -0.2042
 7384W        W23193  10.978   6.631  15.176  0.0026  0.0212  0.2222
 7385W        W23194   1.166   5.758   0.461 -0.2921  0.0531 -0.1193
 7386W        W23195   0.145   6.098   4.662  0.1215 -0.2516  0.3821
 7387W        W23196   8.793   5.750   2.214  0.5112 -0.0604  0.4782
 7388W        W23197   7.262  12.913   3.248  0.0955 -0.1818  0.0328
 7389W        W23198   6.741   0.595  12.012 -0.1407  0.5795 -0.0072
 7390W        W23199   9.816   1.393   3.119 -0.2514 -0.2529  0.2980
 7391W        W23200   3.069   7.944  14.858  0.3090  0.1717 -0.2159
 7392W        W23201   6.016  10.096   2.333 -0.0904 -0.2750 -0.2983
 7393W        W23202   6.429   6.336  11.981 -0.2332 -0.2263 -0.0456
 7394W        W23203   6.730   3.439  15.091  0.3454 -0.1229  0.1815
 7395W        W23204  16.147   8.423   2.592  0.0927  0.0446  0.0679
 7396W        W23205   1.396  12.398  15.065  0.1153  0.0958 -0.0742
 7397W        W23206  15.784   6.524  15.019  0.0242 -0.2198 -0.0087
 7398W        W23207   5.481  16.291  14.250 -0.1239 -0.0008 -0.3417
 7399W        W23208  12.232   4.268   0.660  0.0038 -0.1557 -0.2792
 7400W        W23209   7.092  14.527   2.588  0.2624  0.1484  0.0484
 7401W        W23210  17.704   4.576   2.703 -0.2868  0.1509  0.0448
 7402W        W23211  11.379   3.776   4.700 -0.1073 -0.2243  0.0228
 7403W        W23212   3.569  12.325   0.189  0.1961  0.2003 -0.0726
 7404W        W23213  16.552  14.213  11.322  0.3924  0.2707  0.1976
 7405W        W23214   8.848   3.447   2.543  0.1168 -0.2594  0.0677
 7406W        W23215  11.969   6.324   3.983  0.3902 -0.2146  0.0093
 7407W        W23216  17.959  12.839  12.507  0.1938 -0.2395 -0.1763
 7408W        W23217   1.127   7.046   0.875 -0.0267 -0.2719 -0.2986
 7409W        W23218   1.312  12.983   4.801 -0.0852 -0.0379 -0.0290
 7410W        W23219   4.557   4.146  13.502 -0.0907  0.1110  0.1779
 7411W        W23220  17.825  12.708   4.518  0.3706  0.1738  0.0015
 7412W        W23221  12.528  14.434   9.754 -0.2950  0.0026 -0.1143
 7413W        W23222   6.299   7.018  14.635  0.0768  0.4867 -0.2042
 7414W        W23223   1.814  14.945  15.099  0.0347 -0.3023 -0.1743
 7415W        W23224   9.616   4.888  14.737  0.1367 -0.0021 -0.2768
 7416W        W23225  14.220   5.560  14.492 -0.2989  0.0578  0.0730
 7417W        W23226   6.377   1.534  11.134 -0.0502  0.1683 -0.1423
 7418W        W23227   5.619  12.378  11.322 -0.1434  0.0070  0.2134
 7419W        W23228  17.003  14.878  10.963 -0.0417  0.1058  0.1140
 7420W        W23229  16.979   2.255   0.694  0.1242  0.1440 -0.0689
 7421W        W23230   4.966   9.908  13.468 -0.0446  0.0047  0.2261
 7422W        W23231   4.203  14.474   4.607 -0.0696 -0.0803 -0.1885
 7423W        W23232   8.799   2.014   1.046  0.2676  0.1727 -0.1119
 7424W        W23233  14.150  17.368  11.255 -0.1527  0.2438  0.0910
 7425W        W23234  12.545   8.503  11.736  0.0205  0.3776  0.1109
 7426W        W23235  12.622  14.772  13.273  0.1766 -0.3909 -0.1496
 7427W        W23236  17.346   0.521   4.761  0.3426 -0.2554  0.1127
 7428W        W23237   1.822   2.977  13.691 -0.4882 -0.2589 -0.0327
 7429W        W23238   3.886  15.026   1.906 -0.2723 -0.3323 -0.1428
 7430W        W23239   9.684   7.028   4.691  0.1615 -0.3419  0.1711
 7431W        W23240  14.988  14.935   4.535 -0.0850  0.2262 -0.0035
 7432W        W23241  16.612   8.856   9.733  0.0654 -0.2867 -0.1428
 7433W        W23242   8.032   5.586   2.656  0.1706 -0.0265  0.1410
 7434W        W23243  13.743   9.166   2.977  0.0113 -0.1259 -0.0161
 7435W        W23244   6.751   0.353  11.364 -0.3759 -0.1582 -0.1832
 7436W        W23245  11.424   8.899  11.216 -0.2454 -0.2882  0.2777
 7437W        W23246  13.893   4.776   2.584  0.0767 -0.1410 -0.2424
 7438W        W23247  11.453   1.150  13.525 -0.0201  0.0683 -0.0901
 7439W        W23248   6.651   3.508   5.586  0.5497 -0.2076  0.0672
 7440W        W23249   7.223   0.175   0.720  0.2157  0.1704 -0.0530
 7441W        W23250   3.408  10.664   4.591 -0.1524  0.1804  0.1449
 7442W        W23251   6.283   9.098   4.700 -0.0179 -0.2138  0.2220
 7443W        W23252   9.026   6.407  14.141 -0.1425  0.2107 -0.1629
 7444W        W23253   7.928   3.141  15.144  0.1136 -0.3877  0.0734
 7445W        W23254  10.347   5.951   0.848  0.0068 -0.0121  0.0894
 7446W        W23255  15.359  12.167  11.642 -0.1737 -0.0228 -0.0882
 7447W        W23256   7.416  10.923   3.723 -0.0807 -0.1163  0.0601
 7448W        W23257   7.555   1.490  14.745  0.1321 -0.1902  0.0755
 7449W        W23258  10.064   6.729  11.542  0.4090 -0.0144 -0.2477
 7450W        W23259   7.718  10.756  15.301  0.2504  0.0755  0.0517
 7451W        W23260   6.512   9.220  14.254  0.0158 -0.2491  0.0636
 7452W        W23261  12.836  17.143   1.700  0.2889  0.2565 -0.0797
 7453W        W23262   1.716  14.769  15.633 -0.2067  0.1180 -0.0130
 7454W        W23263  16.088   8.852   2.326  0.1821 -0.2344 -0.0394
 7455W        W23264   8.542  17.874   2.298  0.0428  0.2530  0.2487
 7456W        W23265   2.429  15.323  14.508 -0.0730  0.1883  0.0098
 7457W        W23266  14.738   1.062  14.965  0.1167  0.0843  0.1136
 7458W        W23267   7.815   4.168   1.050  0.0226  0.1851  0.0647
 7459W        W23268  16.103  13.087   1.787  0.2786  0.0807  0.1161
 7460W        W23269  17.773   5.853  14.070 -0.1506  0.0453 -0.2202
 7461W        W23270  12.859   5.578   0.587  0.2141  0.1564  0.0545
 7462W        W23271   3.136  18.239   0.210  0.4281  0.2829  0.1781
 7463W        W23272   5.923   9.493   0.969  0.1565  0.1251 -0.3034
 7464W        W23273   9.302   6.938   1.690 -0.0922 -0.1011  0.1790
 7465W        W23274  10.166  17.856   3.709  0.1419 -0.2936 -0.4389
 7466W        W23275   8.276   5.641  13.720  0.2584 -0.0440 -0.0023
 7467W        W23276   7.182  10.579   5.197  0.2748  0.1752  0.2922
 7468W        W23277   5.129   5.500  13.599 -0.0493  0.4349  0.0642
 7469W        W23278   1.480  11.006  13.872 -0.1629  0.0098 -0.2841
 7470W        W23279  14.153  14.719  10.071 -0.0753 -0.1598  0.3563
 7471W        W23280   6.655   2.940  15.084  0.0057 -0.0632 -0.0635
 7472W        W23281  13.683  14.031  14.416  0.0948 -0.1495  0.1510
 7473W        W23282   9.748   1.847  11.592 -0.2258  0.0142  0.0637
 7474W        W23283   9.435  11.520  14.061 -0.3528 -0.2363 -0.0060
 7475W        W23284   5.928   0.086  15.274 -0.3991 -0.0706  0.2747
 7476W        W23285   5.145   6.237  10.958 -0.1220  0.0268 -0.0322
 7477W        W23286   0.427  13.724   5.231  0.1301  0.2076 -0.0784
 7478W        W23287  10.096  11.366   1.733  0.2144 -0.0018  0.0818
 7479W        W23288   3.795   5.054   1.561 -0.2987  0.0900 -0.0269
 7480W        W23289  10.463   0.768   2.136  0.1406 -0.1558  0.0995
 7481W        W23290   8.236   2.949  13.570 -0.0123  0.1296  0.0263
 7482W        W23291   4.670   9.773  14.361 -0.0256  0.0067 -0.1717
 7483W        W23292   0.415  15.325   4.874 -0.1844 -0.1686 -0.3838
 7484W        W23293  12.893   9.900  12.670 -0.1915  0.1242 -0.2755
 7485W        W23294   8.412   7.083   5.268  0.3202 -0.1391 -0.1236
 7486W        W23295  18.377  18.215   5.829  0.4517  0.4767  0.1539
 7487W        W23296   8.696  17.025   2.349  0.0972 -0.2130 -0.0569
 7488W        W23297   0.592   1.661   0.571 -0.0647 -0.1223 -0.2969
 7489W        W23298  17.949   0.577   5.391  0.0414  0.0129 -0.0327
 7490W        W23299  14.654  12.492   5.567 -0.2419  0.1314 -0.0364
 7491W        W23300  15.681   9.673   3.863  0.0936  0.0749  0.1861
 7492W        W23301  15.349  16.668  14.405 -0.0933 -0.0084  0.0225
 7493W        W23302  12.046  10.639  10.954  0.3763 -0.0957  0.1113
 7494W        W23303   4.903  10.411  10.958  0.0443 -0.0047  0.1021
 7495W        W23304   3.111   9.363  15.802 -0.0061 -0.1267 -0.3956
 7496W        W23305  12.770   2.301   1.498 -0.1828  0.0296 -0.1774
 7497W        W23306   5.155  17.358   3.813  0.3545  0.1738 -0.2881
 7498W        W23307   6.171   5.661  13.978  0.0735 -0.1887  0.1400
 7499W        W23308  10.870   0.847   4.473 -0.1643  0.3561 -0.1505
 7500W        W23309   4.925   1.757  15.438  0.2325 -0.2498  0.0437
 7501W        W23310  18.262  11.772   5.408  0.1866 -0.0628  0.0203
 7502W        W23311  11.709   4.198   2.623  0.2326 -0.0894  0.3834
 7503W        W23312  14.970  17.484  11.486 -0.0991  0.3094  0.0494
 7504W        W23313  14.896  16.104  10.736 -0.2090 -0.0924 -0.0240
 7505W        W23314   8.327  14.493   4.460  0.0467  0.3113  0.0197
 7506W        W23315   0.803   5.954   3.327  0.0757 -0.0746 -0.0225
 7507W        W23316   3.195  10.964  14.932  0.3057  0.2657  0.0883
 7508W        W23317  13.272   8.791   4.206  0.3092  0.2669  0.0195
 7509W        W23318   7.664  12.183   3.103  0.1120 -0.0270 -0.0727
 7510W        W23319  17.399  13.770  14.717 -0.0788  0.2261  0.0568
 7511W        W23320  10.875   8.378  12.118  0.3174 -0.0055  0.0828
 7512W        W23321   7.781   9.006  11.903  0.2094  0.1131  0.2233
 7513W        W23322   8.260   7.116  14.687  0.3217 -0.0444  0.1074
 7514W        W23323  16.422   9.044   3.652 -0.2522 -0.0059  0.2475
 7515W        W23324  11.500   9.847  11.295 -0.0796  0.2821 -0.1225
 7516W        W23325   9.606   2.468   5.724  0.2336 -0.1023 -0.1222
 7517W        W23326   8.502   2.812   4.836 -0.1115 -0.3380  0.0730
 7518W        W23327   1.657  16.385   1.555 -0.2049  0.0191 -0.0523
 7519W        W23328  17.894   2.132   3.084  0.0214  0.0281 -0.0500
 7520W        W23329  13.922   0.162  10.683  0.0635 -0.1031 -0.3470
 7521W        W23330  12.306  14.151  14.445 -0.2351 -0.1413  0.0244
 7522W        W23331   3.302  14.438  15.476  0.0347  0.0719 -0.0348
 7523W        W23332   0.190   0.423   4.759  0.1438  0.0736  0.0273
 7524W        W23333   1.879   5.763   3.719  0.0540  0.0938 -0.1655
 7525W        W23334   7.564  13.401   1.189  0.1541 -0.0510  0.1175
 7526W        W23335   5.005  14.847  15.610  0.1737 -0.2638 -0.1124
 7527W        W23336  13.687  12.976  14.556 -0.0033 -0.0927 -0.0551
 7528W        W23337  11.048   0.391  11.154  0.0265  0.0025 -0.2115
 7529W        W23338  17.706  13.213   2.423 -0.4553 -0.1349 -0.2763
 7530W        W23339  10.479   0.949   0.687  0.4109  0.0299 -0.0152
 7531W        W23340  14.437   6.057  10.261  0.1922  0.4046 -0.0967
 7532W        W23341  14.841   8.401  14.128  0.2104 -0.0988 -0.2033
 7533W        W23342  15.920   0.660   1.802 -0.1212  0.0941  0.0106
 7534W        W23343   1.614   0.121  12.344  0.3957  0.0004 -0.0964
 7535W        W23344  11.812   0.448   0.043 -0.2197  0.0867  0.1589
 7536W        W23345   9.768   8.367   2.810 -0.1412  0.0474  0.0478
 7537W        W23346   4.762  11.090  11.653  0.2557 -0.1046 -0.0273
 7538W        W23347   5.827  10.315   4.231  0.2015  0.0086  0.1516
 7539W        W23348  17.640  14.400  13.043  0.3490  0.1775 -0.1298
 7540W        W23349   8.834  17.269  13.821  0.0300 -0.0165  0.1803
 7541W        W23350  18.183   7.879   2.027 -0.1683  0.2693  0.0474
 7542W        W23351  12.920   7.124  15.143 -0.2667  0.1546 -0.2407
 7543W        W23352   4.809  17.931   0.403 -0.1515 -0.0868  0.2480
 7544W        W23353   9.357   0.909  13.450  0.1722 -0.4338 -0.1412
 7545W        W23354  15.432  11.230   0.579 -0.0663  0.1279 -0.2351
 7546W        W23355   0.644  16.384  14.265  0.3131 -0.2167  0.3680
 7547W        W23356  17.242  18.381  14.770  0.1719  0.2170  0.0874
 7548W        W23357  10.241  12.594  11.468 -0.2920 -0.1944 -0.0291
 7549W        W23358   0.026  16.602   0.275 -0.1671  0.3331  0.1314
 7550W        W23359  16.499   3.574  14.472 -0.1347 -0.0296  0.0322
 7551W        W23360  12.782  13.633  11.954 -0.3741  0.1948 -0.1352
 7552W        W23361  11.458  12.631  14.031 -0.1360 -0.1775  0.0296
 7553W        W23362   3.912  17.194  14.837  0.0055 -0.0828 -0.1717
 7554W        W23363   2.908  16.948   5.208  0.1442 -0.2139 -0.3018
 7555W        W23364   4.464   2.739  15.461  0.0464  0.1600  0.0082
 7556W        W23365  14.232  18.023  14.558 -0.0304  0.3489 -0.2053
 7557W        W23366   5.373  17.392   5.035  0.3008  0.1380  0.1414
 7558W        W23367   7.953  13.550   3.737  0.0751  0.2057 -0.2410
 7559W        W23368   5.298  10.930   2.498 -0.0143 -0.3981  0.3440
 7560W        W23369   6.912   0.670   1.481 -0.1172  0.2773 -0.0013
 7561W        W23370  13.627  16.035   1.525  0.1743 -0.2425  0.1858
 7562W        W23371   1.034  14.244   3.806 -0.1552 -0.1614 -0.0899
 7563W        W23372  15.141   9.216   2.240  0.0785  0.1785  0.0283
 7564W        W23373   9.502   2.512   4.154 -0.3196 -0.3451  0.1337
 7565W        W23374  14.660   6.516   1.309 -0.1976  0.1647  0.0112
 7566W        W23375  11.971   2.123  12.221 -0.0158 -0.1049  0.0982
 7567W        W23376   2.559   1.706  15.010  0.0553  0.0267 -0.1592
 7568W        W23377   7.997   8.653  14.603  0.2564 -0.0438  0.3003
 7569W        W23378   8.393   5.181  10.249  0.3296  0.1322 -0.3357
 7570W        W23379   8.121   6.409   0.381 -0.0998  0.1057 -0.1900
 7571W        W23380  17.187   7.828  12.571  0.1539 -0.2265  0.1595
 7572W        W23381  16.609   1.749   1.432 -0.0963  0.4448  0.0301
 7573W        W23382  12.832   4.377   2.132 -0.1977  0.0935 -0.2263
 7574W        W23383   4.186  12.213   0.827 -0.2977  0.0978  0.0215
 7575W        W23384  12.064   3.357   3.301  0.2394 -0.0166 -0.2451
 7576W        W23385   2.548  11.387  14.130  0.0511  0.0311  0.0126
 7577W        W23386  14.723   0.424   4.156 -0.0672 -0.2015  0.1735
 7578W        W23387   7.572   5.151   2.638  0.0678  0.2246  0.0292
 7579W        W23388  16.058  10.187   4.427  0.0419  0.1492 -0.0187
 7580W        W23389   1.756  10.590  15.597  0.1732 -0.2502  0.1186
 7581W        W23390   9.410  13.999   5.207 -0.0096 -0.1789 -0.0163
 7582W        W23391  16.132   5.139  12.579 -0.2382 -0.0721  0.4024
 7583W        W23392  14.286  16.060   3.661 -0.1101 -0.0648 -0.1991
 7584W        W23393   2.756   1.329   3.032 -0.2518 -0.1976  0.1515
 7585W        W23394  13.606  10.650   1.933  0.1125  0.0053 -0.0392
 7586W        W23395   1.653   0.809  15.538  0.1373 -0.1907  0.2345
 7587W        W23396   9.701   0.785   1.300 -0.3573 -0.1002 -0.0034
 7588W        W23397  16.967  10.606  11.559 -0.1351  0.1371 -0.0779
 7589W        W23398   5.742   8.603   4.225  0.1584  0.1227  0.0742
 7590W        W23399   9.655   7.249  10.802 -0.1326  0.2792 -0.0006
 7591W        W23400  11.406  14.087   3.485 -0.0627 -0.0521  0.0302
 7592W        W23401  18.205   9.574  14.880 -0.5373  0.0376  0.0539
 7593W        W23402  17.471   1.142   2.145  0.0143 -0.2420  0.1192
 7594W        W23403   8.570   2.730   0.539 -0.2915 -0.0441 -0.0732
 7595W        W23404   1.620  16.845   5.331  0.0159  0.0945  0.2087
 7596W        W23405  17.860  13.727   2.467 -0.0691  0.1079  0.0973
 7597W        W23406  16.426   8.901   2.713  0.2211  0.1630 -0.0920
 7598W        W23407   4.024   1.284  13.164  0.1236  0.1012 -0.1968
 7599W        W23408   2.577  12.894   3.935  0.0821 -0.0120  0.0238
 7600W        W23409   4.668   0.984   0.393 -0.0348 -0.1994 -0.0696
 7601W        W23410  13.894   8.554   2.499 -0.0529  0.0931  0.1835
 7602W        W23411  14.824   3.665  12.329 -0.2782 -0.2245  0.1888
 7603W        W23412  16.785  17.091  13.993  0.1559 -0.0185  0.0616
 7604W        W23413  16.154  13.818   1.541  0.0918 -0.1995 -0.0565
 7605W        W23414   2.855   2.856   1.135  0.1172  0.0474  0.1074
 7606W        W23415   2.817  10.577  12.351 -0.0375  0.0763  0.2766
 7607W        W23416  16.263  13.780   1.068 -0.2649 -0.0851 -0.1353
 7608W        W23417  11.157   3.903   1.525 -0.3606  0.3166 -0.2169
 7609W        W23418   9.456  16.696   4.361  0.2050  0.0132 -0.1299
 7610W        W23419  17.279  16.784  12.247  0.1120 -0.1523  0.0677
 7611W        W23420   5.560  11.701   5.142  0.0670  0.0092  0.3706
 7612W        W23421   8.253   7.548  11.732 -0.1838  0.1558  0.0234
 7613W        W23422   6.876   2.498  13.623  0.0508  0.0926 -0.1670
 7614W        W23423  14.852   0.419  12.446  0.0027  0.0394  0.4324
 7615W        W23424  14.782  15.349   2.550 -0.0792 -0.2130 -0.0806
 7616W        W23425  14.119  16.178  15.378  0.0635  0.1294 -0.0389
 7617W        W23426   6.324  12.486   3.694 -0.0299  0.2799  0.3918
 7618W        W23427   3.742  10.974   4.274 -0.2199  0.1820  0.0464
 7619W        W23428   8.004   1.962  14.023 -0.2124  0.1645 -0.1020
 7620W        W23429  17.124  12.469  15.650  0.0574 -0.0886  0.0595
 7621W        W23430  12.044  14.522   2.479  0.1507  0.1255 -0.0781
 7622W        W23431   9.048  12.878  13.452 -0.0460  0.2470 -0.1128
 7623W        W23432   7.381  12.813  14.342 -0.2149 -0.2375  0.1871
 7624W        W23433   5.824  12.825  12.563  0.0238  0.4083  0.0526
 7625W        W23434  15.790   5.931   5.485  0.1277 -0.2934 -0.1499
 7626W        W23435   3.539  12.933  15.229 -0.0017  0.1494  0.0446
 7627W        W23436   6.952   1.487   3.752  0.0704  0.0865  0.0102
 7628W        W23437  12.473   4.689   3.885 -0.0996 -0.1884 -0.1025
 7629W        W23438   3.425  11.254   2.669 -0.0632  0.3365 -0.2263
 7630W        W23439  12.152   9.639   4.756  0.3155  0.0513  0.1377
 7631W        W23440  12.510  16.519  15.431 -0.1725 -0.0133 -0.0713
 7632W        W23441   4.291   3.793  13.276  0.1097  0.0662 -0.0867
 7633W        W23442   3.642   2.392   2.720  0.1499 -0.0839 -0.0088
 7634W        W23443  17.717   8.244   4.591  0.0621  0.0823  0.0530
 7635W        W23444   1.916  13.216   3.128 -0.0320  0.0858 -0.0479
 7636W        W23445   7.647  14.026  14.496 -0.0834  0.1299 -0.3354
 7637W        W23446  10.182   4.675   0.259  0.3710  0.0784  0.1597
 7638W        W23447   1.039   8.800  13.427 -0.0842 -0.0530  0.0321
 7639W        W23448   5.966   2.352  12.550 -0.0695  0.1634  0.0785
 7640W        W23449  15.740   4.409  12.392 -0.2831  0.1922 -0.3061
 7641W        W23450   8.873   6.198  13.393 -0.0376 -0.4270 -0.1172
 7642W        W23451  18.386   4.977  12.046  0.1345 -0.0265  0.0343
 7643W        W23452  17.745   7.645   0.375 -0.1341  0.0038 -0.2189
 7644W        W23453   8.294   2.713   2.620 -0.2116  0.0278 -0.0466
 7645W        W23454   0.684  10.092   0.071  0.2320  0.1186 -0.3606
 7646W        W23455   8.765  12.569   4.095 -0.1855 -0.0576 -0.1479
 7647W        W23456  16.434  14.004   0.066  0.0546 -0.5636  0.0110
 7648W        W23457  14.719  11.142  15.498  0.1543 -0.0735 -0.0909
 7649W        W23458  17.180   9.124   1.492  0.0885 -0.0198 -0.0977
 7650W        W23459   8.760   2.657   2.306 -0.4659 -0.2844 -0.2426
 7651W        W23460   1.197  15.066  11.426  0.1016 -0.1245 -0.2257
 7652W        W23461   3.588  10.755  11.722 -0.0490  0.4885  0.0230
 7653W        W23462  15.438   4.497   0.555 -0.1198  0.0548  0.0055
 7654W        W23463   8.309   3.298  12.712 -0.1106  0.0868  0.1350
 7655W        W23464   9.692   2.077   1.389  0.2167  0.0523  0.2088
 7656W        W23465   6.472   9.036  15.177  0.0114 -0.0470 -0.2970
 7657W        W23466   8.652   4.369  13.176 -0.3212 -0.1770 -0.0500
 7658W        W23467   1.136   3.013  11.620  0.2092  0.1574 -0.0643
 7659W        W23468  15.536   0.577  13.683 -0.1399  0.1861  0.2277
 7660W        W23469  14.797  13.474  15.609 -0.3570  0.1350 -0.1911
 7661W        W23470  18.303  14.529  15.204 -0.0013  0.1587 -0.1158
 7662W        W23471  15.459  18.112   0.583  0.0285  0.0774  0.0257
 7663W        W23472   5.015  14.085   2.650  0.2141 -0.4713 -0.2206
 7664W        W23473  11.599  14.373   2.706 -0.0068  0.1410 -0.0819
 7665W        W23474   6.330  14.818  13.253  0.1728 -0.0672 -0.0314
 7666W        W23475  14.420  12.729  11.420 -0.1183 -0.0313  0.0688
 7667W        W23476  18.450  11.458   2.208  0.0526  0.2411  0.1363
 7668W        W23477   7.785   4.228  14.472 -0.1835  0.1855  0.1125
 7669W        W23478  13.973   9.679   1.734 -0.2261 -0.1890  0.0816
 7670W        W23479   1.038   2.163  13.095 -0.0704  0.1109  0.2876
 7671W        W23480   5.279  15.244  12.271 -0.0540 -0.1959 -0.4543
 7672W        W23481  17.623  15.895  13.209  0.1701  0.1184  0.1799
 7673W        W23482  10.017  10.229  15.343  0.1299  0.0047 -0.0289
 7674W        W23483  13.710   4.501  14.827 -0.1183 -0.1082  0.1184
 7675W        W23484   7.253  11.528   3.006 -0.2759  0.5750  0.0822
 7676W        W23485  14.150  10.675  12.976 -0.0197 -0.1503  0.1938
 7677W        W23486  18.128  11.456   1.028  0.1119 -0.3400  0.0059
 7678W        W23487   9.431  17.097  10.690 -0.0831  0.4049  0.2230
 7679W        W23488   5.960   1.515  15.445  0.4829 -0.3160  0.0754
 7680W        W23489  11.917  10.870  15.681 -0.1844 -0.0193  0.3447
 7681W        W23490  12.900   5.084   1.577 -0.0516  0.0467  0.2774
 7682W        W23491  11.031  10.753  12.798 -0.1440 -0.0586 -0.0187
 7683W        W23492   7.679  13.125  13.716 -0.2423  0.1434 -0.1869
 7684W        W23493   4.535   3.544   9.428 -0.0889  0.1848  0.0712
 7685W        W23494  18.203  11.879   9.899 -0.0146 -0.2774  0.0033
 7686W        W23495   1.363  12.081  13.801  0.1345  0.2191  0.1526
 7687W        W23496   0.788   3.435  13.613 -0.0090  0.3035 -0.0547
 7688W        W23497  16.486   8.687   6.009  0.1114  0.1504  0.3103
 7689W        W23498   2.610   8.532   1.478  0.3584  0.1518  0.0041
 7690W        W23499  11.554  14.490   3.176 -0.4294 -0.0052  0.1798
 7691W        W23500  12.903  10.008   2.889  0.1176  0.2394  0.4749
 7692W        W23501  10.298   9.106   2.950  0.2711  0.0196  0.1004
 7693W        W23502   5.532   0.512  11.553  0.2413  0.2956  0.0958
 7694W        W23503  14.748  16.298  13.412  0.0726  0.2650 -0.1531
 7695W        W23504  11.789  14.302  12.904  0.1782 -0.1380 -0.1741
 7696W        W23505   4.845   5.639  13.968  0.0615 -0.2169  0.2343
 7697W        W23506  15.152   0.915  14.565  0.0326 -0.2173 -0.2352
 7698W        W23507   1.129  16.693   1.610  0.0024 -0.0185 -0.0491
 7699W        W23508   6.525   6.096   2.631 -0.0682 -0.0801  0.1801
 7700W        W23509   5.768   5.977  13.821 -0.0811  0.1419  0.0653
 7701W        W23510   6.007  13.410  11.428  0.1636  0.0092  0.0127
 7702W        W23511  12.577   9.425  11.055 -0.1154 -0.2767 -0.0109
 7703W        W23512   5.994   7.285   0.552  0.0393 -0.1450  0.2553
 7704W        W23513   7.681   7.288  14.742  0.1338 -0.0301 -0.0466
 7705W        W23514   2.322  13.062  11.231 -0.0983  0.2260  0.0260
 7706W        W23515   0.472   9.462  11.651 -0.2121  0.1726  0.1680
 7707W        W23516  10.802   0.603   1.818  0.1618  0.0869 -0.0630
 7708W        W23517  11.715   1.216   2.981  0.4417 -0.3037  0.0186
 7709W        W23518  18.434   7.900  14.496 -0.1426 -0.0401 -0.0627
 7710W        W23519   7.156  12.681  12.806 -0.1836  0.5412 -0.2448
 7711W        W23520   1.369  15.228  14.487  0.2355 -0.0443 -0.1053
 7712W        W23521   8.832   0.705   3.997  0.3802 -0.0499 -0.1278
 7713W        W23522  14.287   1.204   3.723 -0.1205 -0.0942 -0.0812
 7714W        W23523   5.726   2.938  14.296 -0.4428 -0.0846 -0.1370
 7715W        W23524   7.956   2.602   4.915 -0.0960 -0.0667 -0.1847
 7716W        W23525  15.291  11.698  10.819  0.0172 -0.0579 -0.2027
 7717W        W23526  10.211   9.132  13.797 -0.0164  0.2500  0.0405
 7718W        W23527  16.597  18.296   0.251  0.2175  0.0343  0.2707
 7719W        W23528  10.632  10.841   4.534 -0.0234  0.0021 -0.3396
 7720W        W23529   2.492   9.561  13.407  0.0861  0.1775 -0.1203
 7721W        W23530   4.586   9.531   1.321 -0.1552  0.1681  0.0926
 7722W        W23531  16.888   0.592   3.360  0.0129  0.1518  0.0703
 7723W        W23532  17.078   9.634  11.723 -0.3008  0.1721 -0.1868
 7724W        W23533  17.427   3.797  12.319  0.3526 -0.1270 -0.1117
 7725W        W23534   3.431   1.332   3.746  0.1923 -0.2466 -0.2124
 7726W        W23535   8.806  12.226  11.751  0.2151  0.1546  0.0598
 7727W        W23536  10.872   5.099   0.725  0.0912  0.2734 -0.4303
 7728W        W23537   1.440   2.432  12.847 -0.0514 -0.2561 -0.2202
 7729W        W23538  16.944  18.225  10.444  0.1466 -0.0269 -0.3095
 7730W        W23539   9.547  15.156  10.786 -0.0440  0.1490 -0.0089
 7731W        W23540   5.406  17.232  14.299 -0.1339 -0.0566  0.0678
 7732W        W23541  18.274   2.745  11.767 -0.0414 -0.1195  0.0943
 7733W        W23542   0.055   4.307  15.355 -0.2475 -0.0903  0.0780
 7734W        W23543   5.453   4.968   5.487 -0.3366 -0.0006  0.0682
 7735W        W23544  14.887  18.014   1.952  0.1532 -0.1139  0.1995
 7736W        W23545  16.281   4.673   9.893 -0.3523 -0.1167  0.0070
 7737W        W23546  18.387  11.308   4.500 -0.1026 -0.2489  0.3294
 7738W        W23547   3.651  15.714  15.853 -0.0838  0.1359  0.2693
 7739W        W23548   4.488   9.907  15.212  0.0275 -0.2893  0.2845
 7740W        W23549  11.508  17.451   1.058 -0.0424  0.1026 -0.0142
 7741W        W23550   6.686   0.876   4.772 -0.0124  0.2074  0.0532
 7742W        W23551   3.481  17.701  11.755 -0.2273  0.2574 -0.0946
 7743W        W23552  17.346  16.540   1.498 -0.1631  0.0642 -0.1218
 7744W        W23553  10.821  11.296   4.433 -0.0642  0.2165  0.0513
 7745W        W23554  13.218   9.296   4.282 -0.0085 -0.1676  0.0002
 7746W        W23555   8.760  16.546   3.255 -0.0423  0.0121 -0.1908
 7747W        W23556   5.221   6.760  14.356 -0.1114  0.2042 -0.0607
 7748W        W23557  15.473  12.545  12.169 -0.0053 -0.2417 -0.1719
 7749W        W23558   1.825   8.555   4.007  0.2018  0.1734 -0.0801
 7750W        W23559   5.508  14.554  11.368 -0.1940 -0.1259  0.0042
 7751W        W23560  17.310  15.060  12.174  0.0008  0.0066  0.2066
 7752W        W23561   9.215   3.632   4.904  0.2017  0.0635  0.1988
 7753W        W23562  12.779   3.928  14.825  0.0880  0.2636 -0.0396
 7754W        W23563   8.260  10.243  15.181 -0.3143 -0.0543 -0.1606
 7755W        W23564  13.735   0.720  15.368  0.0003 -0.1431 -0.3692
 7756W        W23565   9.855  11.821  14.670  0.2525  0.1527  0.0532
 7757W        W23566  11.546  17.784   2.249  0.0262  0.0724 -0.0975
 7758W        W23567  17.991   7.578  15.414 -0.2393  0.0371 -0.2152
 7759W        W23568  16.165   3.024  12.813 -0.2842  0.0688 -0.0819
 7760W        W23569  12.477  13.091   3.310 -0.1908 -0.1495 -0.1586
 7761W        W23570   2.339  14.051  12.588 -0.0118  0.0330 -0.1020
 7762W        W23571   0.929  11.435   0.953  0.0423  0.0077  0.1827
 7763W        W23572  10.430   3.548  11.882 -0.1369 -0.1752 -0.0544
 7764W        W23573   7.350   5.543  12.390  0.2139 -0.1639 -0.0662
 7765W        W23574   3.615   6.757  14.718 -0.1184 -0.2735  0.2191
 7766W        W23575   9.102   2.915  13.846  0.0860  0.4872  0.0472
 7767W        W23576   0.169  18.185   2.998 -0.0499 -0.0229 -0.1475
 7768W        W23577  14.890   2.167  13.738 -0.0211 -0.0384  0.1419
 7769W        W23578  17.070   5.406  14.361 -0.2010 -0.1559  0.0561
 7770W        W23579  14.505  13.427  10.372  0.0913  0.2758 -0.1835
 7771W        W23580  16.687   5.086  10.915  0.0907  0.1452  0.2856
 7772W        W23581  16.554   2.733   1.666  0.0883 -0.3020  0.2199
 7773W        W23582   9.597   7.378  15.226 -0.0792  0.0546  0.1133
 7774W        W23583  11.610   9.356  11.431 -0.1159 -0.1509  0.0693
 7775W        W23584   4.294  17.571   4.687 -0.0557 -0.0157 -0.0669
 7776W        W23585   9.098   2.221   4.191  0.2806 -0.2567  0.2359
 7777W        W23586   0.974   8.395  14.589 -0.1521  0.2668 -0.0555
 7778W        W23587   2.366  13.885   2.770  0.3553 -0.0460 -0.2254
 7779W        W23588   4.305   6.362   4.814  0.3218 -0.0356 -0.2792
 7780W        W23589   1.889  15.544  12.418 -0.0007  0.4733  0.0388
 7781W        W23590   2.949  14.892   1.521  0.4066  0.2684 -0.0289
 7782W        W23591  16.531   7.976   0.989 -0.0012  0.2159  0.0763
 7783W        W23592  17.121   5.769   2.944  0.1151  0.1473  0.3366
 7784W        W23593  15.492   2.348   3.173 -0.0173 -0.1885 -0.0103
 7785W        W23594  18.289  11.932   3.648  0.0756 -0.0540  0.2419
 7786W        W23595   7.861  15.414  15.095  0.1351  0.1581 -0.0004
 7787W        W23596  15.039  14.696  11.201 -0.0683  0.1551  0.1317
 7788W        W23597   9.938  18.189   2.994  0.0955 -0.4196  0.1019
 7789W        W23598   7.482   3.328  13.152 -0.1901 -0.0768 -0.2778
 7790W        W23599   5.033  13.161   3.973  0.2932 -0.1476  0.0691
 7791W        W23600  10.634   8.653   0.056  0.2760 -0.3320  0.1074
 7792W        W23601   9.625  15.666   5.237 -0.2742 -0.0072 -0.0253
 7793W        W23602  13.579   6.083   2.080  0.0213 -0.2052 -0.0359
 7794W        W23603  15.046   6.011  13.054  0.0562 -0.1490  0.0223
 7795W        W23604   6.322   0.096  11.569 -0.3156 -0.3776  0.2377
 7796W        W23605  13.233   4.343  15.699  0.0490 -0.1911  0.0204
 7797W        W23606   4.955  18.404   5.353  0.2547 -0.0158  0.1604
 7798W        W23607  16.017   4.855   2.924  0.1850 -0.0964  0.0328
 7799W        W23608   2.293  16.396  11.825  0.0581 -0.0886 -0.3018
 7800W        W23609   1.793  15.033  10.577  0.2183 -0.0249 -0.1269
 7801W        W23610   5.397  12.069   3.908  0.0443  0.2611 -0.3846
 7802W        W23611   2.611   2.029  11.101 -0.2077  0.0153  0.3137
 7803W        W23612  15.921   5.808  14.077  0.0421 -0.1103  0.1011
 7804W        W23613   5.276   5.653   2.057  0.3020  0.2445 -0.0882
 7805W        W23614   9.370   1.567   4.225  0.2010  0.0740  0.0788
 7806W        W23615  10.757   2.774   2.120  0.0182  0.0147  0.0640
 7807W        W23616   5.860   0.565  13.988 -0.0365 -0.2026 -0.1694
 7808W        W23617  13.491  10.520  11.830 -0.2892  0.0241  0.0143
 7809W        W23618  12.053  11.048  14.282 -0.2127 -0.2522 -0.2447
 7810W        W23619   3.336   1.721   1.864 -0.0234 -0.2075  0.0537
 7811W        W23620   7.932   2.646   4.394  0.1881  0.0542  0.0597
 7812W        W23621  10.637  18.419  15.826 -0.0196 -0.1900 -0.0658
 7813W        W23622   0.174  17.472  10.860  0.1038  0.3399  0.2325
 7814W        W23623  11.305  12.154   2.608 -0.0021  0.1965 -0.1365
 7815W        W23624   6.335   1.347  13.964  0.3270  0.0896  0.0055
 7816W        W23625   1.901  10.352   2.015  0.0225  0.2290  0.0082
 7817W        W23626   2.601   4.550  10.331  0.0132  0.0606 -0.2730
 7818W        W23627  17.502   2.976  15.843 -0.0222 -0.0118 -0.1872
 7819W        W23628  17.840  13.454  14.285 -0.0598 -0.1332  0.2801
 7820W        W23629   0.228   6.533  13.147  0.2351 -0.3402  0.1673
 7821W        W23630   6.206  12.147   4.560 -0.1385  0.1213 -0.2362
 7822W        W23631  16.458   0.439   1.964 -0.0465 -0.1573 -0.2311
 7823W        W23632   4.336  18.122  13.947  0.1279  0.3275 -0.1212
 7824W        W23633  13.489   3.104  12.881  0.0021 -0.1585 -0.1160
 7825W        W23634   6.997  17.336   2.526 -0.0123  0.0453  0.0849
 7826W        W23635   4.157  10.735  14.264 -0.2689 -0.1252  0.3129
 7827W        W23636   0.366   1.109   5.032  0.0774 -0.0979  0.0075
 7828W        W23637  15.222  17.743   2.332 -0.1268 -0.0160  0.0512
 7829W        W23638   9.157  13.882   4.465 -0.2004 -0.2944 -0.0421
 7830W        W23639   2.729  12.189  13.459 -0.0726 -0.2018 -0.1755
 7831W        W23640   5.015   6.654   5.354  0.0035  0.3185  0.2895
 7832W        W23641   9.535   9.667   4.701 -0.1056  0.0238  0.1846
 7833W        W23642   3.677   0.950   5.153 -0.0943  0.1546  0.1700
 7834W        W23643   4.476   3.888   2.220 -0.0465 -0.0050 -0.3318
 7835W        W23644   9.989   2.341   2.092  0.3709  0.0632  0.2246
 7836W        W23645  15.941  14.917   5.262  0.1246 -0.3145 -0.1054
 7837W        W23646  15.929  16.267   2.135  0.2532  0.0104 -0.0910
 7838W        W23647   8.841   7.797  12.442  0.0301  0.0054 -0.0690
 7839W        W23648   5.200  15.561   1.700  0.1297  0.2600 -0.1542
 7840W        W23649   1.550  17.382  12.311  0.0199 -0.1625 -0.2222
 7841W        W23650   0.145   2.061   4.240  0.0827  0.2437 -0.2173
 7842W        W23651  11.897   4.309  13.630  0.1538  0.1836  0.1191
 7843W        W23652   2.483   1.283  14.231 -0.0051 -0.2826  0.1525
 7844W        W23653   5.544  14.875  15.530 -0.1243 -0.0315 -0.2310
 7845W        W23654  12.188   7.133  15.057  0.0936 -0.3210  0.0828
 7846W        W23655  14.723   7.662  13.033 -0.1373  0.1439 -0.0317
 7847W        W23656  15.131   1.169   0.738  0.0653  0.0390  0.0492
 7848W        W23657   6.776  18.434  15.773 -0.0526 -0.0522  0.0774
 7849W        W23658   7.980   2.359   2.447  0.4881  0.0213 -0.4104
 7850W        W23659  16.431   4.497   1.458 -0.1202  0.1100  0.1337
 7851W        W23660   2.797   2.252   2.435  0.0746  0.1560  0.0397
 7852W        W23661  10.108   6.388  10.288 -0.0677  0.0163 -0.1017
 7853W        W23662   8.411  10.430  11.292  0.0770 -0.3083 -0.0929
 7854W        W23663  13.241   8.121   1.067 -0.5169 -0.0191  0.0503
 7855W        W23664   6.608   4.860  11.423 -0.0496  0.1649  0.2251
 7856W        W23665  14.543   5.779  13.075 -0.0789  0.1020 -0.2033
 7857W        W23666   5.661   3.814  13.103 -0.5372  0.3660 -0.1969
 7858W        W23667  12.554   8.117   4.044 -0.1344  0.0818 -0.0916
 7859W        W23668  12.961   6.496   0.682 -0.2636 -0.0199 -0.0961
 7860W        W23669  12.358   1.068  11.501  0.0095  0.0756  0.2578
 7861W        W23670  17.606   6.500  14.880  0.0708 -0.0164  0.0036
 7862W        W23671  10.775  15.651  13.561  0.3760  0.0522  0.2077
 7863W        W23672   3.853  13.246   5.630  0.0656 -0.1595  0.0455
 7864W        W23673   5.239  17.723  14.112 -0.0065 -0.2205  0.1699
 7865W        W23674   6.112  13.874  11.324 -0.0991 -0.1226 -0.2539
 7866W        W23675   8.708  16.050  13.545 -0.0067 -0.1697  0.2544
 7867W        W23676   5.997   4.194  13.050  0.1344 -0.0310  0.0048
 7868W        W23677  17.597  15.353   5.009 -0.0738  0.0889 -0.0022
 7869W        W23678   9.932  12.771  10.982 -0.0937 -0.0635 -0.0658
 7870W        W23679   5.905  15.323  11.668 -0.2816  0.2940 -0.1780
 7871W        W23680   2.834  11.781  11.777 -0.2482 -0.1328 -0.0069
 7872W        W23681  10.724  17.068  13.544  0.1054  0.0363 -0.1548
 7873W        W23682  14.589  13.924   6.094 -0.1102  0.1604 -0.0156
 7874W        W23683  14.566   0.849  15.830 -0.3908  0.2677  0.1189
 7875W        W23684   1.333  14.310  14.249 -0.1960  0.0107  0.2690
 7876W        W23685  12.707   3.611  14.311  0.0820 -0.2405  0.2091
 7877W        W23686   6.264  12.882  10.883 -0.1154  0.1487 -0.4273
 7878W        W23687   8.956   2.298  12.085  0.2652  0.1456  0.1926
 7879W        W23688   8.743  11.057  13.488 -0.0367 -0.1100  0.3830
 7880W        W23689  16.128  11.129  14.150  0.3406 -0.0208 -0.2383
 7881W        W23690  13.527   5.558   5.140 -0.1523  0.3697  0.0272
 7882W        W23691   3.859  15.500   5.385 -0.0610 -0.2967 -0.0654
 7883W        W23692  18.060  18.290   3.759 -0.3357  0.1311 -0.2980
 7884W        W23693   9.922   6.314  11.173 -0.1352 -0.1708  0.0824
 7885W        W23694   0.258   3.286  12.084  0.0595 -0.1495 -0.3129
 7886W        W23695   4.272  15.492   2.661  0.0643  0.0201  0.0834
 7887W        W23696   3.841   7.350   4.844  0.1547 -0.1626 -0.1150
 7888W        W23697  17.192  14.702  11.562 -0.1038 -0.1072  0.0125
 7889W        W23698   2.553   7.730  14.717  0.0319  0.1430  0.2700
 7890W        W23699   9.992   3.290  15.535  0.0088  0.0915  0.1303
 7891W        W23700  18.187  16.767  14.217 -0.0267 -0.0290  0.2942
 7892W        W23701   9.736  12.630  12.966 -0.0262  0.0898  0.0839
 7893W        W23702  12.316  10.885   1.689 -0.0734 -0.0607 -0.0211
 7894W        W23703  16.333   9.513  13.050  0.1512  0.0869 -0.0200
 7895W        W23704  11.153  12.703  12.366 -0.1916 -0.1758 -0.1180
 7896W        W23705  14.458   2.457   6.031 -0.2814  0.0703  0.1512
 7897W        W23706  16.874  16.904   5.665  0.2043 -0.2093  0.1523
 7898W        W23707  12.217   4.920  15.202  0.4835  0.1551 -0.0094
 7899W        W23708   1.501   1.338  11.090 -0.2170  0.0037 -0.0621
 7900W        W23709   0.712   1.639  11.007  0.0807  0.0184  0.0306
 7901W        W23710  10.177  11.654  12.623  0.2098 -0.1192  0.1514
 7902W        W23711   2.653   7.793   4.355  0.3196  0.1476 -0.0525
 7903W        W23712   7.818  12.254  11.368 -0.0989  0.1757  0.1735
 7904W        W23713  17.958  14.790  10.411 -0.1570 -0.0976  0.2636
 7905W        W23714  14.714   1.838   2.529 -0.1886 -0.2217 -0.2122
 7906W        W23715   9.367   2.168  11.449 -0.1742  0.1952 -0.3361
 7907W        W23716  15.423   4.134  14.529 -0.1935 -0.2968  0.3805
 7908W        W23717   4.133  16.568   2.193  0.1808  0.1845  0.1539
 7909W        W23718  10.807  11.618   3.074 -0.3494  0.1032 -0.1018
 7910W        W23719  15.905  10.134   2.535  0.4313  0.0466 -0.2364
 7911W        W23720  17.779   0.171   1.883  0.0235 -0.1936 -0.0699
 7912W        W23721  13.175  18.300  11.105  0.0151  0.1431 -0.0974
 7913W        W23722   5.707  10.637  12.475  0.1456 -0.1325 -0.0272
 7914W        W23723  13.766   1.696  13.117  0.2172 -0.0474 -0.2220
 7915W        W23724   0.305  13.591   2.370  0.2037  0.0013 -0.0553
 7916W        W23725   0.678   4.407   0.178 -0.3509  0.1019 -0.3441
 7917W        W23726  17.367  11.385   2.984  0.2978  0.0403 -0.3652
 7918W        W23727  13.508  10.028   0.644  0.0265 -0.1252  0.2519
 7919W        W23728   2.274   3.227   3.565 -0.1565  0.1008 -0.0659
 7920W        W23729   5.479   5.924  11.241 -0.0138  0.4587 -0.0591
 7921W        W23730   0.325  11.175  14.690 -0.2414 -0.0446  0.0113
 7922W        W23731  11.899  17.886  12.866 -0.0774  0.1488  0.0152
 7923W        W23732  16.890   9.920   1.036 -0.0228 -0.0927 -0.0571
 7924W        W23733   1.488  12.095  10.732  0.0908 -0.0065  0.0644
 7925W        W23734  14.123   5.138   2.917 -0.1566 -0.1081 -0.0693
 7926W        W23735   7.423   0.433   1.704 -0.1481 -0.0165 -0.0033
 7927W        W23736  12.132  18.292   5.016  0.2032  0.0829  0.0491
 7928W        W23737  14.525   6.711   2.700  0.2470 -0.1327 -0.1300
 7929W        W23738  16.145   6.638   0.126 -0.0715  0.0877  0.0166
 7930W        W23739   0.764  14.034   0.482 -0.0135 -0.1092  0.0183
 7931W        W23740   3.979  10.328   5.190  0.3008 -0.2362  0.2433
 7932W        W23741  16.934  11.383   4.955 -0.1609 -0.0782  0.1523
 7933W        W23742  14.902   3.458  15.154 -0.1357  0.0872 -0.0775
 7934W        W23743   5.247   1.029  14.068 -0.1684 -0.0749  0.0315
 7935W        W23744  14.568  12.186  14.654 -0.3010  0.2063 -0.1505
 7936W        W23745   2.226  10.846   2.996 -0.1865 -0.2126 -0.3336
 7937W        W23746  12.059  15.150   4.885 -0.0113 -0.1232 -0.0911
 7938W        W23747   1.704  14.482   0.704 -0.0035  0.2826 -0.1103
 7939W        W23748   8.080  15.000  11.230  0.1038 -0.1251 -0.1833
 7940W        W23749  17.225  13.857   1.781  0.1023 -0.0440 -0.3697
 7941W        W23750  15.593  18.386   1.017  0.3031 -0.0612 -0.0576
 7942W        W23751   8.352  14.086   0.230 -0.1293  0.0420 -0.0026
 7943W        W23752   3.917  13.129  13.490 -0.3663  0.0187  0.0864
 7944W        W23753  11.702  12.917   5.316 -0.0080  0.0107 -0.3070
 7945W        W23754   4.163  17.810  13.222  0.1718 -0.0760  0.2924
 7946W        W23755  14.065  14.428   1.430 -0.1226 -0.1992 -0.0979
 7947W        W23756  13.440   4.851  10.319 -0.1229 -0.0423  0.2678
 7948W        W23757   2.120  16.764   5.462  0.0268  0.2413 -0.0008
 7949W        W23758   1.257   6.497   3.102 -0.0744  0.1169 -0.0291
 7950W        W23759  10.794  14.499   3.788 -0.0430 -0.2185  0.1724
 7951W        W23760  14.684   7.273   3.760 -0.0297 -0.1958 -0.0509
 7952W        W23761   5.205  11.375   0.234 -0.0401 -0.1656 -0.1020
 7953W        W23762   1.622  16.786   2.519 -0.1374 -0.2549 -0.2788
 7954W        W23763  18.329   3.526  13.409  0.0145  0.1137  0.2206
 7955W        W23764   3.401   4.325  10.557  0.1141 -0.3182  0.0435
 7956W        W23765  10.943   7.091  14.849  0.0542  0.2524 -0.0451
 7957W        W23766  10.876  12.254   1.276  0.0078  0.0594  0.3233
 7958W        W23767   7.385   6.216  14.513 -0.4122 -0.1974 -0.1759
 7959W        W23768   5.872   0.741   1.386  0.0833 -0.0956 -0.0129
 7960W        W23769   0.719   9.081  10.785 -0.1492  0.1504  0.0449
 7961W        W23770  10.685  12.088   4.967  0.2212  0.0778 -0.3719
 7962W        W23771  18.018   8.422  12.531 -0.0322  0.0502 -0.3694
 7963W        W23772   5.609   0.890   3.946  0.1494 -0.0431  0.3333
 7964W        W23773  11.455   6.198   1.969 -0.3705 -0.0856  0.1111
 7965W        W23774  12.854   1.262   2.586  0.0637  0.0752 -0.2112
 7966W        W23775  16.188  10.555   2.558  0.2072 -0.2578  0.1736
 7967W        W23776   4.371   4.632  15.085  0.1428  0.0563 -0.0459
 7968W        W23777   8.358   1.354   2.349  0.0093  0.1355  0.3304
 7969W        W23778   2.740  17.489   0.314  0.0372 -0.1595  0.0991
 7970W        W23779   0.364   4.864   1.310  0.0269  0.2375  0.1387
 7971W        W23780   8.464   5.820   2.970  0.3268 -0.4600  0.2190
 7972W        W23781   0.056   0.463   0.135  0.4138  0.1523  0.1384
 7973W        W23782  16.061   5.408   0.864  0.0919  0.0179 -0.0974
 7974W        W23783   3.574   0.166  14.333 -0.0469 -0.1248  0.0518
 7975W        W23784  13.616  17.200  11.869  0.2093 -0.1477  0.0717
 7976W        W23785  14.295   3.804   4.267 -0.0861  0.4521 -0.0294
 7977W        W23786   5.410  16.674  14.578  0.1788 -0.0501 -0.0840
 7978W        W23787   3.294   5.880   2.518 -0.0665  0.0087 -0.1016
 7979W        W23788   6.570  12.405   4.783  0.2149 -0.0854 -0.1479
 7980W        W23789   3.119  14.908  12.796  0.0560 -0.1360  0.0268
 7981W        W23790  16.352   0.516   0.716  0.0325 -0.1678 -0.1211
 7982W        W23791  11.027  12.146   4.492 -0.1890  0.2703 -0.0622
 7983W        W23792   6.166   9.606  12.610 -0.0067 -0.0254 -0.1937
 7984W        W23793   3.448   0.503   3.579 -0.1363  0.1695  0.0752
 7985W        W23794   4.409   0.986  13.533  0.0187 -0.2233  0.2300
 7986W        W23795  13.637  16.204   2.578  0.0241  0.0604 -0.4920
 7987W        W23796  15.225   4.424   6.076  0.0296  0.0357  0.1825
 7988W        W23797   2.516   9.066  12.060 -0.3068  0.0881  0.2110
 7989W        W23798  17.367  17.143   3.589  0.2406 -0.1412  0.0714
 7990W        W23799   6.231  13.068  15.670  0.1167  0.0395  0.0980
 7991W        W23800  11.712   0.655  11.818 -0.1473 -0.0605 -0.0961
 7992W        W23801   9.300   7.539  12.584  0.1705  0.0939  0.2260
 7993W        W23802   2.351   9.035  14.149 -0.1777 -0.0063  0.1883
 7994W        W23803   6.366   3.929   2.655 -0.1650 -0.2855 -0.0801
 7995W        W23804   3.036   8.179  11.158 -0.0264  0.0733  0.2274
 7996W        W23805   1.393  11.819  15.012 -0.2197 -0.2870 -0.2461
 7997W        W23806   3.946   1.216  12.665  0.0767 -0.3463  0.0336
 7998W        W23807  10.099   7.476   0.671  0.3263 -0.0123  0.2005
 7999W        W23808  17.787  16.906  12.988  0.2132 -0.5459  0.1949
 8000W        W23809   7.653  17.654   3.358 -0.2831  0.2661 -0.0373
 8001W        W23810   2.774  13.305  15.006  0.4134 -0.1760  0.2378
 8002W        W23811   1.294  15.717   4.736 -0.0886  0.0843  0.2478
 8003W        W23812   4.518   0.713  14.303  0.1310 -0.2205  0.2343
 8004W        W23813   3.515  10.364  13.932  0.2069 -0.0749 -0.3141
 8005W        W23814   2.265   0.996  14.546 -0.0444 -0.0295  0.0343
 8006W        W23815   7.481   7.851   0.633  0.2113  0.2151 -0.2772
 8007W        W23816  11.020   2.944   2.585  0.1745 -0.1411  0.2126
 8008W        W23817   9.241  11.759  14.969  0.1662  0.1205 -0.1273
 8009W        W23818   1.143   6.883  13.218  0.1416 -0.2489  0.2699
 8010W        W23819  13.972  13.925  15.480 -0.2248 -0.0041  0.1405
 8011W        W23820  11.647   9.243   3.054  0.3782  0.2005  0.0769
 8012W        W23821  17.751  15.387   4.074  0.0600 -0.2509 -0.1637
 8013W        W23822   6.873   0.607  10.897 -0.0677 -0.2193  0.2413
 8014W        W23823   0.617  10.961  14.120  0.1325  0.0812 -0.1924
 8015W        W23824  14.728   4.506   1.759  0.0908 -0.0326 -0.3786
 8016W        W23825   7.602   2.956   1.021  0.0087  0.0995  0.2075
 8017W        W23826   8.297   6.077   1.122 -0.0294  0.1660 -0.3074
 8018W        W23827  16.679   8.338   1.858  0.1075 -0.1621  0.4007
 8019W        W23828  12.859   6.721  14.726  0.0227 -0.2588  0.0433
 8020W        W23829  11.311   0.664   1.507  0.0095 -0.1201  0.1000
 8021W        W23830  13.490  17.246   2.442 -0.0123 -0.0537 -0.1477
 8022W        W23831  17.458  11.371   5.096 -0.1108  0.0537  0.0204
 8023W        W23832  16.614   2.840  10.978  0.1305 -0.2793  0.0813
 8024W        W23833  14.914  14.795   0.726  0.1804 -0.1240  0.0771
 8025W        W23834  11.655   4.980   0.990  0.2709  0.0701 -0.1516
 8026W        W23835   9.601  16.075  12.665 -0.0653  0.0939 -0.0343
 8027W        W23836   4.795   0.925   3.261  0.2654  0.1604 -0.0661
 8028W        W23837   8.626   4.111  14.305 -0.1456  0.3167 -0.0859
 8029W        W23838  11.439   8.141   5.052  0.0572  0.2963 -0.1033
 8030W        W23839  14.693  15.386   3.813  0.0963 -0.0058  0.0958
 8031W        W23840  17.728  14.933   0.905  0.1103 -0.1386  0.2939
 8032W        W23841  13.143  15.449   0.474 -0.2881 -0.0292 -0.0204
 8033W        W23842  11.229   2.136   0.453 -0.5405 -0.1056  0.2252
 8034W        W23843  17.621  11.444   0.127 -0.0470 -0.2544  0.0400
 8035W        W23844  10.918   0.655   3.125  0.0402  0.1453  0.0905
 8036W        W23845  17.823   3.278   5.252  0.1531  0.3286  0.1648
 8037W        W23846  14.985   2.624   1.945  0.0567 -0.0248  0.3182
 8038W        W23847   0.018  13.775  15.645  0.1432  0.3111  0.1344
 8039W        W23848   6.854   6.773  13.895 -0.0220  0.3856 -0.0593
 8040W        W23849  15.035   1.704  12.433  0.0983 -0.1542 -0.1424
 8041W        W23850  11.990   2.676   3.991  0.1354 -0.0617  0.1998
 8042W        W23851  10.332   7.936   3.866 -0.1300 -0.1175 -0.1996
 8043W        W23852  17.223   6.873  11.257 -0.2858 -0.1645  0.3133
 8044W        W23853  10.219  12.601  12.932 -0.0845  0.2143 -0.1818
 8045W        W23854   6.858   1.223  14.345  0.1754 -0.2314 -0.1117
 8046W        W23855  15.796  10.482   4.865 -0.2484  0.1329 -0.3349
 8047W        W23856  10.295   3.955   4.794 -0.0138 -0.0710  0.0293
 8048W        W23857   5.334   0.829   2.259  0.0046  0.3429  0.1077
 8049W        W23858   1.884  11.677   3.401 -0.0456  0.0320 -0.5845
 8050W        W23859   1.689  12.334   2.341  0.2751 -0.0799 -0.1683
 8051W        W23860  16.651  12.464  12.684 -0.1115 -0.1673 -0.3722
 8052W        W23861  11.585   6.745   0.918  0.1758 -0.2077 -0.4300
 8053W        W23862  10.967   5.143  13.917 -0.3318 -0.0328  0.1512
 8054W        W23863  13.528   6.508   2.718 -0.0766 -0.2695 -0.2558
 8055W        W23864  15.469   9.285   4.460  0.0020  0.2228  0.1820
 8056W        W23865  16.788   2.675   1.227 -0.0096  0.2593  0.0156
 8057W        W23866  14.833  15.498  14.778 -0.0410 -0.0766  0.0982
 8058W        W23867  16.903  10.039  11.982  0.1288 -0.0069 -0.0934
 8059W        W23868  11.551  12.832   2.903 -0.1129 -0.0595  0.2220
 8060W        W23869  17.592   8.634   2.110  0.0808  0.0695 -0.0940
 8061W        W23870  16.665  13.965  10.406  0.0821  0.0199 -0.1384
 8062W        W23871   9.389   9.131  14.591 -0.0504  0.0204 -0.2617
 8063W        W23872   4.448  10.894  13.884  0.1407 -0.2469 -0.0225
 8064W        W23873   4.643  14.244  13.557 -0.2808 -0.2902 -0.0676
 8065W        W23874  15.745  16.461  12.196 -0.0221  0.0833  0.0523
 8066W        W23875  16.507   4.308   1.960  0.0532  0.1303 -0.2381
 8067W        W23876   2.740   2.563  13.880 -0.0546  0.2114 -0.0665
 8068W        W23877  13.872   0.958   3.428 -0.1389  0.2026  0.2330
 8069W        W23878  12.403  16.754  14.952 -0.3175  0.0697 -0.0360
 8070W        W23879  18.295  12.564  11.643 -0.0675 -0.0854 -0.2885
 8071W        W23880  17.645  14.848  14.592 -0.1564 -0.0842 -0.0345
 8072W        W23881  13.986  15.922   2.463  0.2456 -0.0972 -0.0393
 8073W        W23882  15.283   3.824   1.589  0.2585  0.1709 -0.0503
 8074W        W23883  13.409   2.599  13.366  0.0553  0.1699 -0.2395
 8075W        W23884   0.005   6.420  11.700 -0.2101 -0.1723 -0.0523
 8076W        W23885   2.758   7.773  11.382  0.1838 -0.1745 -0.0390
 8077W        W23886  12.909   7.682   1.998  0.1280  0.0414  0.0968
 8078W        W23887  11.443  16.913   2.277 -0.2827 -0.0701  0.2404
 8079W        W23888   2.558   3.555   3.130 -0.0836 -0.1734  0.1501
 8080W        W23889  17.992  16.602   0.232  0.1317  0.2723 -0.0170
 8081W        W23890   2.235  17.346   2.365  0.1042  0.2409  0.0090
 8082W        W23891  18.296   6.604  14.149  0.0651 -0.0781 -0.0383
 8083W        W23892   3.693   3.733  15.627 -0.1930  0.1577 -0.0957
 8084W        W23893   3.114   1.014   2.304  0.1605  0.1300 -0.0270
 8085W        W23894  12.296  10.683   5.077  0.0754 -0.1420  0.0930
 8086W        W23895  14.249   9.263  15.684  0.1327 -0.1113  0.2744
 8087W        W23896  10.346  10.941   5.753  0.3074 -0.2302 -0.0678
 8088W        W23897  14.842  12.442  14.115  0.4312  0.3597 -0.1485
 8089W        W23898  12.122   5.929   2.202  0.1563  0.0408 -0.2281
 8090W        W23899  18.379   1.146  14.862  0.1589  0.2468  0.1570
 8091W        W23900   2.974  11.760   4.377  0.0134  0.1758  0.1786
 8092W        W23901  17.705   6.807  12.088  0.0096 -0.1762  0.3100
 8093W        W23902   1.929   8.388  12.477 -0.0208  0.1626 -0.1371
 8094W        W23903   4.557   4.567  13.798  0.0911 -0.3041  0.1371
 8095W        W23904   9.683   6.798   2.670 -0.2684 -0.0271  0.1603
 8096W        W23905   4.315  16.881  13.003 -0.4368  0.1312  0.3730
 8097W        W23906   4.919  12.577  13.607 -0.1374  0.2148 -0.0961
 8098W        W23907  12.415  14.583   1.540  0.1079 -0.0499 -0.2730
 8099W        W23908   5.562  14.944   1.056 -0.0409  0.0916  0.1665
 8100W        W23909  16.477   9.762  14.884 -0.0652  0.2231  0.1905
 8101W        W23910   1.104   1.359   2.390  0.0227 -0.2724  0.0519
 8102W        W23911  18.095   7.969  11.332 -0.1598 -0.2059 -0.0223
 8103W        W23912  16.690   7.120  12.437  0.0531  0.1411 -0.3274
 8104W        W23913  11.726   4.056   4.299  0.2533  0.0589 -0.0592
 8105W        W23914  12.232  15.797   2.510  0.0871  0.2065  0.0897
 8106W        W23915  15.813   3.277   1.017 -0.3367 -0.0940 -0.0511
 8107W        W23916  13.419   9.006   4.723  0.0126  0.1328 -0.0679
 8108W        W23917   4.527  15.201  12.371  0.2023 -0.3807 -0.0862
 8109W        W23918   2.096   0.325  13.805 -0.1401  0.0602 -0.2300
 8110W        W23919   3.565   8.197   6.012 -0.2707 -0.1402  0.0493
 8111W        W23920   0.196  10.502  15.369 -0.1676 -0.0869 -0.0090
 8112W        W23921   3.801  15.539  12.624 -0.1898 -0.0811  0.1175
 8113W        W23922   1.000   1.885  15.562 -0.0866  0.0707 -0.1315
 8114W        W23923  14.688   5.001   0.970  0.0301  0.3378 -0.1398
 8115W        W23924  15.774  17.996   3.996  0.1029 -0.4070  0.0684
 8116W        W23925  17.733   3.364   4.349 -0.2215  0.0153 -0.1072
 8117W        W23926  11.429   1.532  11.839 -0.0604  0.0351  0.1911
 8118W        W23927   8.622  13.771   3.661  0.0939 -0.1639 -0.2070
 8119W        W23928   3.488   3.401   0.075 -0.2056  0.1226 -0.4061
 8120W        W23929  13.540  16.904   5.292  0.1208 -0.0525 -0.0478
 8121W        W23930  10.212   4.492   3.294 -0.1303  0.1064 -0.0731
 8122W        W23931  16.339  14.173  14.862 -0.0079  0.0515  0.1037
 8123W        W23932   9.654   3.962   3.271 -0.0579 -0.0211 -0.1672
 8124W        W23933   1.363  15.120   0.084  0.0989  0.1106  0.2549
 8125W        W23934   6.959   9.359  14.545 -0.3096  0.2554  0.0944
 8126W        W23935   0.225   3.434   4.126  0.3428 -0.1097 -0.2467
 8127W        W23936   0.856  12.427   4.071 -0.0170 -0.0722  0.1131
 8128W        W23937   9.082   4.162  13.367  0.1375  0.1550 -0.0827
 8129W        W23938   7.663   0.289  11.482  0.1448  0.2321  0.5504
 8130W        W23939   1.895   4.027   2.364  0.0933 -0.1951 -0.0374
 8131W        W23940   9.399  10.632   2.737 -0.1064  0.2056 -0.0597
 8132W        W23941   9.976   2.222  15.520 -0.0792  0.0550 -0.3006
 8133W        W23942   2.014   8.210  15.164  0.2853 -0.1108 -0.0302
 8134W        W23943   1.916  11.881   4.473 -0.2133  0.0331  0.1487
 8135W        W23944   9.845  16.034  13.901 -0.2356 -0.1834  0.0887
 8136W        W23945  14.808  14.460   4.442  0.0993  0.0671 -0.1189
 8137W        W23946  11.201   9.545   9.581 -0.1629 -0.2083 -0.0824
 8138W        W23947  11.515   1.663  13.637  0.1951 -0.2047  0.0298
 8139W        W23948   7.786  12.588   0.919  0.1100  0.1504 -0.2664
 8140W        W23949  10.727   5.609   3.977 -0.0482  0.4056  0.0348
 8141W        W23950   7.521  10.274  12.617 -0.0109  0.0046  0.2484
 8142W        W23951   9.563   1.501  11.241  0.1028  0.1350 -0.1852
 8143W        W23952  17.209   5.194   0.998 -0.0774  0.1269 -0.0336
 8144W        W23953  11.527   1.213   4.799  0.2639 -0.3501  0.0883
 8145W        W23954   6.885   6.219   2.112  0.1049 -0.1656 -0.0425
 8146W        W23955  13.494  15.695   2.666  0.1395 -0.1704 -0.2108
 8147W        W23956  12.627  16.347  14.806  0.4581 -0.0340  0.2631
 8148W        W23957   6.941   9.259  13.465  0.4250 -0.1133  0.0359
 8149W        W23958  13.471   6.794  10.833 -0.0573 -0.1449 -0.0965
 8150W        W23959  15.491  10.410   0.453  0.1516 -0.0528 -0.1715
 8151W        W23960   8.748  10.302   6.324 -0.1448 -0.1427  0.0844
 8152W        W23961   8.662   3.792   0.788  0.2477 -0.4131 -0.0700
 8153W        W23962   1.682  13.235   2.343  0.1446 -0.0645 -0.1246
 8154W        W23963   9.740  17.637   4.545 -0.0391 -0.0569 -0.0764
 8155W        W23964   8.937   4.739  13.345 -0.0370  0.0308 -0.3136
 8156W        W23965   1.072   6.829  14.423 -0.2276 -0.2595 -0.1100
 8157W        W23966   8.310   5.381   1.702 -0.2929  0.0941  0.2061
 8158W        W23967   7.571  12.821   4.171 -0.2327  0.0013 -0.1371
 8159W        W23968   0.628   9.197   2.546 -0.0976  0.2012  0.0372
 8160W        W23969   5.613   8.083   4.281  0.0092 -0.0757 -0.3721
 8161W        W23970   2.769   9.442   4.799  0.1022  0.2442  0.0315
 8162W        W23971  13.177  16.892   4.304 -0.4570 -0.0852  0.3188
 8163W        W23972  10.951  16.530   3.544 -0.0552 -0.0676 -0.1353
 8164W        W23973   6.339  10.973   3.897 -0.1332 -0.3285  0.1397
 8165W        W23974   6.250  10.802   0.824  0.3009 -0.1112  0.0166
 8166W        W23975   9.137   5.362   0.991 -0.5787 -0.0834 -0.0151
 8167W        W23976   1.582   2.884  12.329  0.1334  0.1953  0.0845
 8168W        W23977  15.575   0.265   1.853 -0.3178 -0.0083  0.0159
 8169W        W23978  13.560  15.124   1.485  0.1729 -0.3762  0.3225
 8170W        W23979  11.079  15.701   3.956 -0.1775 -0.0868  0.0213
 8171W        W23980   2.200  13.414   2.221 -0.2027 -0.1126  0.0645
 8172W        W23981   3.680  16.340   3.199 -0.2577  0.0514 -0.1393
 8173W        W23982   5.222   5.387  13.119 -0.2337  0.0749  0.1506
 8174W        W23983   1.712  13.164   3.641  0.1308  0.0173  0.1598
 8175W        W23984   7.383   8.479   2.549  0.1968  0.2461 -0.0657
 8176W        W23985  16.324   9.016  13.263  0.2723 -0.0185 -0.0244
 8177W        W23986   8.336  18.176   0.580 -0.1501  0.1768 -0.1916
 8178W        W23987  16.743   6.299  10.188 -0.1225 -0.1479 -0.2136
 8179W        W23988   1.933   0.172   3.468 -0.2600  0.1755 -0.2276
 8180W        W23989   5.429  15.031  10.036 -0.1147 -0.1178 -0.0121
 8181W        W23990   9.560  14.767  13.213  0.1123 -0.1437  0.0753
 8182W        W23991   5.428   2.450   2.489 -0.1719  0.1013  0.2159
 8183W        W23992  17.640   8.787  12.609 -0.3012 -0.2183  0.0373
 8184W        W23993  12.612  14.823   0.533 -0.1210  0.0743  0.0506
 8185W        W23994  12.039  11.125   4.642 -0.0933  0.0687 -0.2287
 8186W        W23995   6.623  13.294  15.445 -0.1214 -0.2598  0.1858
 8187W        W23996  14.469   0.765   1.736 -0.0864  0.2294 -0.1810
 8188W        W23997  10.747  10.279  11.929 -0.4736  0.0214 -0.2948
 8189W        W23998  11.108   9.112  12.476  0.1176 -0.0235 -0.2124
 8190W        W23999  11.166   1.839  15.377  0.2226 -0.1290 -0.1496
 8191W        W24000   7.076  10.473   0.045 -0.0819  0.0917 -0.1513
 8192W        W24001   2.332  11.554  13.061  0.0903 -0.1701 -0.0788
 8193W        W24002  12.593   9.853  10.092  0.3603  0.0903 -0.2871
 8194W        W24003   2.648   8.576   4.426 -0.0828  0.0936 -0.2233
 8195W        W24004  11.810  12.023  13.589  0.0628  0.3463 -0.0646
 8196W        W24005  18.207   3.499   1.730 -0.2660 -0.1254 -0.1586
 8197W        W24006   1.932   3.839  10.552 -0.1026 -0.0517 -0.1249
 8198W        W24007  14.368   7.117   0.662 -0.0081  0.0280 -0.1526
 8199W        W24008   5.602  15.081  13.192  0.0624  0.4688 -0.0921
 8200W        W24009   6.195  16.761   0.171 -0.2670 -0.0558 -0.1313
 8201W        W24010   5.941   3.360   2.033 -0.1252  0.1476 -0.4296
 8202W        W24011  13.739  15.589  12.313 -0.2916 -0.0373  0.1171
 8203W        W24012  14.917  14.408  15.418  0.2948  0.0689 -0.0928
 8204W        W24013  14.833   2.195   2.173 -0.0917  0.3164  0.0299
 8205W        W24014   5.157  11.842  12.070 -0.0596 -0.0809  0.0876
 8206W        W24015   2.476  14.268  15.848 -0.0437  0.0385  0.1572
 8207W        W24016   7.787   8.637  15.412  0.2162  0.1121  0.4201
 8208W        W24017  10.693   2.316   4.295  0.1219  0.1690  0.1435
 8209W        W24018   8.854   7.238   5.090  0.0200 -0.0477 -0.3714
 8210W        W24019  13.816  13.536  13.672  0.1888 -0.0231 -0.0166
 8211W        W24020  12.634   2.217  15.473  0.2105  0.2610  0.1860
 8212W        W24021   3.710   0.100   3.403  0.1332 -0.0946 -0.2779
 8213W        W24022  11.455   4.552   1.623  0.0520 -0.0052  0.0816
 8214W        W24023  17.669  11.943  15.739 -0.3308 -0.3122  0.3958
 8215W        W24024   4.378   2.632   4.717 -0.0549 -0.2713  0.2439
 8216W        W24025   3.724   1.166  10.993  0.0319 -0.2247  0.3430
 8217W        W24026   0.657   5.701   2.820 -0.0640 -0.2973 -0.1403
 8218W        W24027  16.179   1.191   4.348 -0.1604  0.0462  0.0191
 8219W        W24028   7.261  17.529   0.385 -0.0134  0.0196  0.2036
 8220W        W24029   6.501  16.339   1.763 -0.1095  0.3381 -0.0055
 8221W        W24030   7.241   7.748   3.398 -0.1548 -0.1198 -0.1090
 8222W        W24031  17.065  17.180   1.917  0.0016  0.0622  0.2606
 8223W        W24032  17.550   1.454   2.542 -0.0324  0.3228 -0.0774
 8224W        W24033   0.924  12.893   4.142 -0.0108 -0.1111 -0.1730
 8225W        W24034  10.916   4.592   4.607 -0.1110  0.0913  0.2919
 8226W        W24035  11.625  14.902   2.879 -0.1497  0.0549 -0.2101
 8227W        W24036  15.177   0.246   4.053 -0.1435  0.0401 -0.0811
 8228W        W24037  12.152  11.675  13.719 -0.0532  0.0287  0.0011
 8229W        W24038   7.201  10.733   1.880 -0.1780  0.1821 -0.0648
 8230W        W24039   2.022  15.477   2.326 -0.0978 -0.0127 -0.1805
 8231W        W24040   2.527   8.901   2.810 -0.0915 -0.1318 -0.1420
 8232W        W24041  13.858   3.537   1.799 -0.0102  0.1652  0.0950
 8233W        W24042   7.726  13.683  15.257  0.1868 -0.1173  0.0334
 8234W        W24043   3.498  15.417  15.278  0.1110 -0.1769 -0.2443
 8235W        W24044  18.261  13.131   1.003  0.0231 -0.1033 -0.2382
 8236W        W24045   1.155  10.947  14.307  0.0320 -0.1037  0.0500
 8237W        W24046   2.380  16.141  11.293  0.1830 -0.1794  0.1192
 8238W        W24047  15.559  11.839  12.644 -0.0697  0.0405  0.2202
 8239W        W24048  14.156   1.645  11.708  0.1554 -0.2878 -0.0831
 8240W        W24049   2.733  14.896   2.564 -0.0507  0.0313 -0.3937
 8241W        W24050  11.569  12.819   4.756 -0.0110 -0.1267  0.4564
 8242W        W24051  15.400   7.112   1.483 -0.0989  0.1404  0.1451
 8243W        W24052   0.208   7.346  12.743 -0.0619  0.1825  0.0184
 8244W        W24053   9.958   7.727   1.141 -0.0003 -0.0099  0.2051
 8245W        W24054  15.126   2.163  12.543  0.0564 -0.2649  0.2943
 8246W        W24055  17.875  17.960  15.009 -0.0868 -0.0878  0.1835
 8247W        W24056   7.576  17.799  15.764 -0.5215 -0.0528 -0.2713
 8248W        W24057  13.834  18.448   3.734  0.0143  0.0693  0.0418
 8249W        W24058  16.607  17.812   2.581  0.2157 -0.1705 -0.0283
 8250W        W24059   7.110  11.560  12.712  0.0213 -0.0041 -0.0311
 8251W        W24060  15.219  17.285   4.363 -0.0071 -0.1301  0.0392
 8252W        W24061   8.591   8.146   1.531  0.1170 -0.1191 -0.1834
 8253W        W24062   7.554   0.948   0.460  0.1518 -0.1892  0.0394
 8254W        W24063   6.275   2.377   4.196 -0.2875 -0.1497 -0.0934
 8255W        W24064  16.292  12.957  14.782  0.1812 -0.0889  0.0469
 8256W        W24065  13.711  10.521  13.171 -0.0596 -0.1824  0.1467
 8257W        W24066  11.446   0.647  13.853 -0.3056 -0.1658 -0.4147
 8258W        W24067  10.795   6.780  12.603 -0.2376  0.4146 -0.1707
 8259W        W24068   4.461  12.800  12.657 -0.0064 -0.0449 -0.1121
 8260W        W24069  10.927  16.489   1.812  0.1768  0.3818  0.0486
 8261W        W24070  12.591  13.411  15.278 -0.0701  0.0567 -0.2372
 8262W        W24071  17.289  16.860  11.647 -0.0380 -0.2806  0.2952
 8263W        W24072   6.073   3.992   2.226  0.1817  0.3126  0.0425
 8264W        W24073   7.826  18.410  12.330 -0.1322  0.0378  0.1325
 8265W        W24074   9.154  11.502   3.111 -0.0052  0.1504  0.1911
 8266W        W24075  12.819   0.878   1.822  0.1171  0.2141  0.0711
 8267W        W24076  15.324  13.185  12.657 -0.1005  0.3419  0.1123
 8268W        W24077   5.716   1.435   3.228  0.1569 -0.0495  0.0951
 8269W        W24078  10.891   8.032   0.068 -0.0317 -0.1322 -0.2594
 8270W        W24079   0.063   7.507   5.726  0.2211  0.0882 -0.0745
 8271W        W24080  18.313  18.299  15.113  0.1168 -0.0084  0.0339
 8272W        W24081  10.826  10.380  10.994  0.0418  0.0303  0.1176
 8273W        W24082   4.681  15.425   4.569  0.0035 -0.1217  0.2591
 8274W        W24083  17.637  16.421   2.693 -0.1987  0.0373 -0.2294
 8275W        W24084   0.996  13.193   5.096  0.2329  0.0541  0.0161
 8276W        W24085  10.511  12.803   0.486  0.0765 -0.2631  0.2409
 8277W        W24086   7.002  10.300  14.040  0.1778 -0.0732  0.0058
 8278W        W24087  10.879   7.853   1.251 -0.2139 -0.0114 -0.2311
 8279W        W24088   9.414  16.261   3.987  0.1195 -0.0634 -0.1872
 8280W        W24089   2.790   9.161  13.352 -0.0913  0.0988 -0.0623
 8281W        W24090   9.928  16.279  15.531 -0.1895 -0.2681  0.3024
 8282W        W24091   4.201   9.931   5.874 -0.2539 -0.0956 -0.1812
 8283W        W24092   2.327   3.081   5.148 -0.1398  0.0102  0.2204
 8284W        W24093   1.267   8.775   0.248  0.2315 -0.0851  0.0018
 8285W        W24094   6.815   1.637  12.723 -0.1265  0.0481  0.3072
 8286W        W24095  11.359   6.583  12.625 -0.2425  0.2997 -0.0885
 8287W        W24096   7.272   2.655   1.309  0.1742  0.1117  0.0620
 8288W        W24097  10.147   7.325  15.572 -0.4946 -0.1684 -0.0407
 8289W        W24098   3.816   3.642  11.515  0.0147  0.3758 -0.0365
 8290W        W24099   2.936   4.957   9.984  0.1908 -0.2102 -0.0560
 8291W        W24100   4.503   4.753   2.939  0.2319  0.0314  0.2012
 8292W        W24101   8.115  10.876  13.093 -0.0070 -0.1364 -0.3309
 8293W        W24102  16.374   4.524  14.373 -0.2459 -0.0482  0.0113
 8294W        W24103  17.144  11.132   5.943 -0.0574 -0.2051  0.0692
 8295W        W24104   1.959  15.248  14.694  0.1609 -0.1371  0.2411
 8296W        W24105   0.396   2.386   1.041 -0.2399 -0.0649 -0.1209
 8297W        W24106   0.695   8.227   2.358 -0.3469  0.1576 -0.0695
 8298W        W24107   3.262  18.060  10.499 -0.0735  0.1291 -0.0882
 8299W        W24108   4.659   1.171  14.476 -0.0565  0.2189 -0.0107
 8300W        W24109  12.795   5.566  11.277  0.1943  0.0373 -0.0551
 8301W        W24110  12.460  16.685  12.191 -0.1921  0.0604  0.0757
 8302W        W24111  17.863   1.017   9.993  0.0937 -0.2156  0.0636
 8303W        W24112  10.296   5.501   3.735  0.3833  0.0435  0.0977
 8304W        W24113   6.852   8.535  13.937 -0.1746  0.0256  0.2013
 8305W        W24114   5.177   8.714   3.829  0.0631  0.4578 -0.2825
 8306W        W24115  17.275  11.749  11.064 -0.1463 -0.2856  0.0858
 8307W        W24116  11.947  17.591   2.785 -0.1390 -0.1780 -0.0031
 8308W        W24117   1.309  11.106   3.010 -0.0081 -0.0293  0.1801
 8309W        W24118   9.109  17.988   4.651  0.2567  0.1658  0.1323
 8310W        W24119   9.417   7.413  11.289 -0.2021  0.0024  0.2145
 8311W        W24120   2.114  12.732   3.203  0.1335  0.1228  0.0126
 8312W        W24121   2.895  15.671   0.557 -0.1503  0.1948  0.0094
 8313W        W24122  15.876  16.118  15.617 -0.1869 -0.0207  0.0696
 8314W        W24123   1.181  12.821  11.054  0.1012 -0.2149 -0.0080
 8315W        W24124   9.284   8.393  14.559 -0.1706  0.0708 -0.1267
 8316W        W24125   3.272   6.139   0.196  0.2851  0.2299  0.0059
 8317W        W24126  11.204  10.040  15.653  0.3019  0.3273 -0.0980
 8318W        W24127  16.268  10.815   5.166 -0.0200  0.0807  0.0757
 8319W        W24128  15.782  16.654   2.455  0.0840  0.0274  0.0583
 8320W        W24129  11.687  18.386   4.061 -0.2152  0.2630  0.0149
 8321W        W24130   8.604   2.479   4.147 -0.0650 -0.2283 -0.1880
 8322W        W24131   7.540  17.768  13.802 -0.0779 -0.1377  0.2133
 8323W        W24132   6.014   1.128   2.924 -0.0607 -0.1306  0.1330
 8324W        W24133  16.339   3.595  13.385  0.2354 -0.1203  0.0424
 8325W        W24134   1.506   9.710   1.713  0.3091  0.0972 -0.1525
 8326W        W24135   8.867  14.191   2.543  0.0166 -0.0285 -0.0219
 8327W        W24136   7.396  10.782  12.516 -0.3237  0.1221 -0.3391
 8328W        W24137  15.500   2.676   3.905  0.1877  0.1883  0.1160
 8329W        W24138  13.337  16.249  11.821  0.1440 -0.0536  0.3023
 8330W        W24139   0.990  11.979  14.634 -0.0508  0.1649  0.0769
 8331W        W24140   7.468   3.629   5.032 -0.1158  0.2383  0.0804
 8332W        W24141  13.885  17.059   3.359  0.1811 -0.1754 -0.1320
 8333W        W24142   9.459  13.166   1.355  0.3110 -0.1115 -0.3813
 8334W        W24143   7.389  11.332  14.251  0.1877  0.0780  0.0105
 8335W        W24144  17.182   8.926   5.328 -0.1443 -0.2491 -0.1475
 8336W        W24145   0.299   5.103   0.423 -0.0384 -0.2730 -0.2155
 8337W        W24146   0.259  17.509   4.830 -0.0727  0.2116 -0.0606
 8338W        W24147   3.529   5.021  12.226 -0.0782 -0.5111 -0.2162
 8339W        W24148   8.760  17.178   4.553 -0.0016  0.2892 -0.0773
 8340W        W24149   7.035   3.841  13.736  0.0995 -0.1566 -0.0874
 8341W        W24150  15.947  17.102  15.537  0.0087  0.2356 -0.3164
 8342W        W24151   2.544  13.015   2.269  0.2304  0.0649 -0.3929
 8343W        W24152   1.967  16.134  12.240 -0.2223  0.0082  0.1224
 8344W        W24153   6.053   8.230   3.131 -0.1960  0.1403 -0.2745
 8345W        W24154   4.783  12.283  11.832  0.2931  0.0405 -0.1624
 8346W        W24155  12.605   1.613  13.488  0.2588  0.3037 -0.1753
 8347W        W24156  13.157  17.830  12.903  0.1524  0.0793 -0.2815
 8348W        W24157   9.162  13.826   0.456  0.0160  0.2682  0.0693
 8349W        W24158   3.824  15.574   5.907 -0.2919  0.1258  0.0762
 8350W        W24159  10.404  13.645   3.512 -0.0751 -0.3427 -0.1370
 8351W        W24160  14.887  12.117   0.447  0.0207 -0.1363 -0.0275
 8352W        W24161   9.526   6.971  13.734  0.1056 -0.0583  0.0497
 8353W        W24162  13.769  13.425   1.543 -0.1752  0.1274  0.0437
 8354W        W24163  12.211   8.959  11.041 -0.0972  0.1056 -0.3480
 8355W        W24164   9.581   0.168  12.536 -0.0382  0.0791  0.1047
 8356W        W24165   0.832  13.971   1.427 -0.1313 -0.1236 -0.2332
 8357W        W24166  11.337   7.717  15.836 -0.1943 -0.1110  0.2995
 8358W        W24167  17.596  17.355  13.889 -0.0048 -0.1133  0.2840
 8359W        W24168   2.824   8.826  14.699  0.2223 -0.0011  0.1832
 8360W        W24169   0.471   1.146  11.003  0.1872  0.0176 -0.2260
 8361W        W24170  17.597  18.076  11.152 -0.0195 -0.2481 -0.2232
 8362W        W24171   0.316  17.857  13.806 -0.0430  0.0704  0.1634
 8363W        W24172   4.684   8.248   0.997  0.0692 -0.1610  0.1270
 8364W        W24173  17.865   9.802   4.660 -0.2364 -0.1088 -0.3699
 8365W        W24174   2.984  17.943  11.343 -0.1342  0.3224 -0.0829
 8366W        W24175  18.129   4.218   2.712  0.0226 -0.2418  0.4761
 8367W        W24176   5.820  17.229   1.710  0.0453 -0.1523  0.0011
 8368W        W24177  14.959  15.638  12.601 -0.2481  0.2278  0.1803
 8369W        W24178   8.142  10.598  15.560  0.2040  0.0030  0.3095
 8370W        W24179   0.927  17.990   4.271  0.1797  0.0191  0.3106
 8371W        W24180  14.906   1.419   5.997 -0.4413 -0.1314  0.3718
 8372W        W24181   2.134   9.414  12.404 -0.1426  0.0485  0.0957
 8373W        W24182  14.145   0.896   0.817  0.2431  0.4394  0.1250
 8374W        W24183   2.188   8.402   3.656  0.1255 -0.0680  0.0138
 8375W        W24184  13.114  14.928  13.718 -0.0249 -0.0871 -0.1587
 8376W        W24185   2.843   9.578  15.390  0.0008 -0.1681 -0.2521
 8377W        W24186   8.835  13.637  13.673  0.1038 -0.0639 -0.4391
 8378W        W24187   1.696  11.620  12.665  0.0565 -0.0831  0.0644
 8379W        W24188  11.858   4.867  14.884  0.2434 -0.1944  0.0461
 8380W        W24189  12.946   5.429  14.193 -0.6278  0.0627  0.2646
 8381W        W24190  18.257  12.813  14.584 -0.0424  0.0000 -0.1517
 8382W        W24191   3.470   1.559   5.170  0.1589 -0.1400  0.0296
 8383W        W24192  18.373  13.956  14.879 -0.2608 -0.2183  0.4224
 8384W        W24193  15.266  10.009   4.021  0.1641 -0.2206 -0.1060
 8385W        W24194  12.427  16.640   3.342 -0.1788  0.1265  0.1332
 8386W        W24195  15.880   7.569  14.382  0.1219  0.2701  0.0308
 8387W        W24196  10.959   7.428  13.584 -0.0032 -0.3926  0.1894
 8388W        W24197  11.636  14.338   0.065  0.1311  0.0439 -0.0196
 8389W        W24198  13.530   5.211   5.913 -0.1428  0.0391 -0.1541
 8390W        W24199   1.671  14.308   5.082 -0.0835  0.2040  0.0106
 8391W        W24200   4.251  13.934  13.678  0.0535 -0.1412 -0.2507
 8392W        W24201   3.196  10.858   1.848  0.1675  0.3265  0.1963
 8393W        W24202  10.180   3.748  15.447 -0.2586  0.0582 -0.3563
 8394W        W24203  14.723   4.609   4.098 -0.0330 -0.3828  0.0153
 8395W        W24204  12.601   1.822  14.508 -0.1184  0.0282 -0.0402
 8396W        W24205  14.830   4.360  14.088 -0.2026 -0.0950  0.2108
 8397W        W24206  12.253  15.193   5.319 -0.0486 -0.0728 -0.3933
 8398W        W24207   1.813   1.516   1.657  0.1123  0.0700  0.0264
 8399W        W24208  10.699   8.307   2.552 -0.0601 -0.0769  0.0102
 8400W        W24209   6.379  13.329  12.427  0.0242  0.1700 -0.3576
 8401W        W24210  13.137  17.199   2.117  0.1501  0.3913 -0.0118
 8402W        W24211   2.125  11.597   5.965  0.1872  0.0043 -0.1663
 8403W        W24212   5.998   4.072   0.825  0.3143 -0.1069  0.0902
 8404W        W24213   8.941   4.020   3.125 -0.1663 -0.1035  0.3144
 8405W        W24214   2.669   7.023   3.706 -0.2481 -0.0773 -0.1096
 8406W        W24215  10.316  13.326  15.669  0.2634  0.2555  0.2540
 8407W        W24216   2.721   9.218  13.851 -0.4185  0.4906 -0.0880
 8408W        W24217  10.476   4.722   0.826 -0.3980 -0.3516 -0.1112
 8409W        W24218  17.720  12.826   6.017  0.1130 -0.2977 -0.1985
 8410W        W24219   3.624   1.013   9.404 -0.1382 -0.0229  0.0534
 8411W        W24220   1.932  12.777  11.844 -0.1693  0.0600  0.1593
 8412W        W24221   2.857   3.368  14.787 -0.1818 -0.1293 -0.3852
 8413W        W24222   8.012   3.288  13.155  0.0255 -0.2551 -0.1319
 8414W        W24223   6.587   5.085   2.951  0.1115 -0.1523 -0.1585
 8415W        W24224   7.527   8.785  10.543  0.1804 -0.0521  0.1091
 8416W        W24225   3.112   6.745  12.055  0.2837  0.0945 -0.1663
 8417W        W24226  18.440   9.827   4.821 -0.1792 -0.1190 -0.0711
 8418W        W24227  11.947  13.035   1.615 -0.2040  0.1442 -0.0724
 8419W        W24228   6.974  17.157  11.843  0.3329 -0.4637  0.1709
 8420W        W24229   7.583  18.261  11.471 -0.0974  0.0303 -0.2114
 8421W        W24230  15.011   8.530   3.976  0.2089  0.4260 -0.0347
 8422W        W24231  11.049  18.143  15.147  0.1680  0.0509 -0.0879
 8423W        W24232   6.421   8.540  13.625  0.1160  0.0531 -0.1402
 8424W        W24233   3.796   4.214  12.716  0.2877  0.4661  0.1032
 8425W        W24234   5.466  16.106   2.483  0.0847  0.1003  0.0312
 8426W        W24235   9.439   1.686  10.789 -0.1235 -0.0692  0.2827
 8427W        W24236  10.621  17.904  13.321  0.1909  0.2425 -0.2049
 8428W        W24237  18.442  10.036   5.801  0.2311  0.1117 -0.3433
 8429W        W24238   6.699  17.358   3.417 -0.3404  0.1089  0.1689
 8430W        W24239   8.264  17.259  13.761 -0.0045 -0.2998 -0.0021
 8431W        W24240   0.491  16.750   3.980  0.1022  0.2149  0.0680
 8432W        W24241   1.421   6.176   0.327  0.1844 -0.0258  0.0221
 8433W        W24242  17.977   5.707  13.199 -0.1120 -0.3303  0.1178
 8434W        W24243  16.561  15.894   4.828  0.0039  0.1323  0.0521
 8435W        W24244   8.260  10.804   2.272 -0.0319 -0.0221 -0.1544
 8436W        W24245  15.878   7.438   0.631  0.1061  0.0724 -0.2054
 8437W        W24246  18.239   2.897   4.833 -0.0578 -0.1474  0.2197
 8438W        W24247   7.135   0.647   0.554 -0.2334  0.0539 -0.1343
 8439W        W24248   8.016  13.195  14.956  0.0848  0.0328 -0.0654
 8440W        W24249  15.529   1.577  14.031  0.0144 -0.0632  0.1576
 8441W        W24250  13.010  13.211   4.133  0.3656 -0.2351 -0.0207
 8442W        W24251   9.894   3.367   4.001 -0.3406  0.1477  0.0392
 8443W        W24252  18.377  14.524  10.619  0.0295 -0.1082  0.1909
 8444W        W24253  17.044   7.201   1.926  0.1446  0.0981 -0.2533
 8445W        W24254   2.282  11.878  11.406 -0.0511  0.2489 -0.0977
 8446W        W24255  12.055  12.139  11.437 -0.0806 -0.1565 -0.1178
 8447W        W24256  10.024   3.485   0.521  0.2189 -0.2201 -0.0251
 8448W        W24257  12.246   8.725  12.975  0.0986  0.0205 -0.0220
 8449W        W24258  16.954  11.279  15.339 -0.0964 -0.2779 -0.1932
 8450W        W24259  12.790   9.804   3.436 -0.1090  0.1744 -0.4238
 8451W        W24260  14.513   2.922  12.638  0.0647 -0.0089  0.2873
 8452W        W24261  13.612   8.214   2.232 -0.0921  0.2533  0.0821
 8453W        W24262  13.112   9.756   1.970  0.0577 -0.1022 -0.2333
 8454W        W24263   1.260  15.706  14.883  0.0035 -0.0512 -0.3691
 8455W        W24264  16.102  13.058  11.520 -0.1264  0.0772  0.0424
 8456W        W24265   5.211  14.754  12.272 -0.1459  0.2236  0.0800
 8457W        W24266   0.284   8.543  14.089 -0.1219  0.1424  0.1151
 8458W        W24267  10.386   8.826   5.251  0.0171  0.1749 -0.5348
 8459W        W24268   2.080  14.530   3.764 -0.2454 -0.0614  0.2187
 8460W        W24269   5.489   4.712  15.811  0.0752  0.0661 -0.3995
 8461W        W24270  14.473  10.096  10.030  0.1439 -0.1707 -0.2862
 8462W        W24271   9.592   8.888   1.869 -0.0188  0.0658  0.4219
 8463W        W24272   9.331  15.561   1.672  0.2653 -0.0118 -0.1682
 8464W        W24273   3.685   3.776   2.652  0.1775  0.0525  0.1229
 8465W        W24274   4.241   2.838  11.143 -0.1243 -0.0354  0.0491
 8466W        W24275   7.263   5.258   0.698  0.4321  0.1183 -0.0169
 8467W        W24276  15.886   6.118   4.083  0.0451 -0.2139  0.1435
 8468W        W24277   8.209  15.272  14.375 -0.0464 -0.0499 -0.0106
 8469W        W24278   6.893   7.945  14.503  0.0153  0.2380  0.0086
 8470W        W24279  15.042   1.332   4.594 -0.3787 -0.0652  0.0800
 8471W        W24280   3.845  12.212   1.919 -0.0393  0.0171 -0.0633
 8472W        W24281   8.851   2.322  13.005  0.1238  0.0719 -0.0042
 8473W        W24282  10.286   6.462   4.110 -0.1491  0.0109 -0.0214
 8474W        W24283  15.530  15.752   3.696  0.0255  0.4742  0.0148
 8475W        W24284  13.854   7.266  12.623 -0.0042  0.2407  0.0702
 8476W        W24285  12.250  17.304   3.460 -0.0212 -0.2053  0.1419
 8477W        W24286   5.408  14.986   2.465 -0.0204  0.1477  0.0888
 8478W        W24287   1.072  14.997   2.591 -0.0189 -0.2543  0.1929
 8479W        W24288   1.846   7.236   3.547 -0.2070 -0.2324 -0.2072
 8480W        W24289  17.242  12.222  10.831 -0.0487 -0.2145  0.2265
 8481W        W24290   2.200  17.974   2.010  0.3063  0.3232  0.0344
 8482W        W24291  12.743   8.920   0.219  0.0494  0.0428 -0.3442
 8483W        W24292  12.820   8.772  14.263  0.2249  0.0428  0.1380
 8484W        W24293  14.080   3.085   2.968  0.0872 -0.0495 -0.0593
 8485W        W24294  12.508  14.296   3.886  0.0189 -0.0360 -0.1490
 8486W        W24295  18.126  18.057  14.587  0.2164 -0.2653 -0.1737
 8487W        W24296  18.279  12.327   5.544  0.3126 -0.0705  0.3201
 8488W        W24297  17.852  12.809  11.738 -0.0348 -0.0158 -0.0439
 8489W        W24298   9.388  13.223  13.141  0.0812  0.1491 -0.0208
 8490W        W24299   7.847   8.103   1.019 -0.3399 -0.0539 -0.4787
 8491W        W24300   4.670  17.598  13.312 -0.1114  0.2147  0.0379
 8492W        W24301   4.500  16.841   0.046 -0.1401  0.0536 -0.1017
 8493W        W24302  17.885   2.452   3.863 -0.0644  0.0650 -0.2776
 8494W        W24303  16.138   5.577  14.479  0.1840  0.0757  0.0962
 8495W        W24304  16.908   0.206   2.292 -0.2175 -0.2917  0.1244
 8496W        W24305  13.738  10.556   2.457  0.0841  0.1081 -0.3153
 8497W        W24306   6.086  13.619   5.074  0.0088  0.2432  0.1000
 8498W        W24307  17.402  11.336  11.377  0.2016  0.0316 -0.1310
 8499W        W24308   7.117   4.182   2.482 -0.1804  0.0757  0.0971
 8500W        W24309  11.873  10.887   5.038 -0.2267 -0.0991  0.1671
 8501W        W24310  15.823  14.169   0.676  0.1613 -0.0430 -0.0653
 8502W        W24311  13.800   2.049   0.353 -0.2105  0.2067 -0.0173
 8503W        W24312  14.533   7.712   4.028  0.0752  0.0311  0.0530
 8504W        W24313   3.695   7.746   1.594  0.2161  0.2180  0.0283
 8505W        W24314  17.482   7.465  14.607 -0.0141  0.0457  0.1764
 8506W        W24315   1.182   8.200  10.377 -0.3028  0.3844  0.1464
 8507W        W24316   9.155   7.243  11.915  0.2348  0.0049 -0.2507
 8508W        W24317   7.378   1.201  15.119 -0.0278 -0.0125  0.0890
 8509W        W24318  14.059   2.084  11.462 -0.0936 -0.1066 -0.1135
 8510W        W24319  12.176   2.066  14.282 -0.1346  0.2280 -0.1663
 8511W        W24320   2.322   5.584  14.810  0.0228 -0.0859  0.0444
 8512W        W24321  17.935  11.201  13.624 -0.2255 -0.0746 -0.1022
 8513W        W24322  16.440  14.069  14.008  0.0296  0.2180 -0.2148
 8514W        W24323   2.204   0.532  14.825 -0.1681 -0.0742 -0.0517
 8515W        W24324   3.332   4.409   4.088  0.2540  0.0282 -0.4237
 8516W        W24325  10.952   5.114   0.209 -0.1717 -0.0930 -0.2603
 8517W        W24326  13.850  17.602   2.455  0.3159  0.2210  0.0315
 8518W        W24327  16.444  15.453   2.644  0.2603  0.0597 -0.1624
 8519W        W24328   0.400  15.395  10.746 -0.0884  0.2321 -0.1830
 8520W        W24329  17.034   4.391   1.976 -0.0707 -0.2366 -0.0158
 8521W        W24330  11.728  14.905   0.257  0.1011  0.0738 -0.0306
 8522W        W24331  10.699  11.238   2.564  0.3593 -0.0226  0.2203
 8523W        W24332   6.229   7.943  11.359 -0.1002 -0.2173  0.0777
 8524W        W24333   9.127   0.089   3.524  0.3068  0.4137  0.2470
 8525W        W24334  15.723   0.994   0.294 -0.0097 -0.0067  0.0559
 8526W        W24335  14.321   4.925  12.603 -0.0664  0.0048  0.0044
 8527W        W24336   2.163   4.041   5.556 -0.3255 -0.2343  0.0302
 8528W        W24337   3.595  18.150   1.074 -0.1706  0.0434 -0.2199
 8529W        W24338  12.763  13.660  11.368 -0.1639 -0.1815 -0.0576
 8530W        W24339   9.791   5.868   0.862 -0.1112 -0.1908 -0.2319
 8531W        W24340   3.847  17.547   0.251 -0.0773  0.2476 -0.3247
 8532W        W24341   1.990   2.490   2.488 -0.1319  0.0974  0.1014
 8533W        W24342  16.261  14.950  15.622  0.0412  0.0707  0.2001
 8534W        W24343   0.471  16.894   4.471 -0.0312  0.3438 -0.3661
 8535W        W24344   0.885   5.592  13.798  0.1611  0.1677  0.1127
 8536W        W24345  16.767  18.221  10.892 -0.3448 -0.1228  0.1546
 8537W        W24346   7.949  15.438   3.227 -0.0599 -0.1845  0.1905
 8538W        W24347   6.291  13.798  11.775 -0.0538 -0.2508  0.2544
 8539W        W24348  11.942   2.379  10.611 -0.1776  0.0879 -0.0973
 8540W        W24349   6.582   7.059  11.381  0.0379  0.1580  0.5142
 8541W        W24350  14.841  15.374   4.728  0.1070  0.2009  0.0860
 8542W        W24351   5.478   8.588  13.089  0.0168  0.0913 -0.0489
 8543W        W24352   9.920   1.446  10.752 -0.0296 -0.1173  0.1672
 8544W        W24353   6.638  14.651   4.140  0.0794 -0.0957 -0.0478
 8545W        W24354   1.961   5.021  10.655  0.0504  0.1573  0.0076
 8546W        W24355   5.384   5.398   2.950 -0.0018  0.0815  0.2095
 8547W        W24356  13.674  16.435  13.639  0.0333 -0.0188 -0.2110
 8548W        W24357   0.965   6.395   2.241  0.0230 -0.1094  0.3343
 8549W        W24358   2.385  16.751   1.108  0.0872 -0.1025 -0.1485
 8550W        W24359   9.067  12.403   3.357 -0.0996 -0.0669 -0.0110
 8551W        W24360  12.651   2.814   1.950  0.0784  0.2208  0.0645
 8552W        W24361  11.323   6.322   4.162 -0.0135 -0.1346 -0.1136
 8553W        W24362   7.842   6.095   0.156  0.2493  0.2207  0.0145
 8554W        W24363  13.033   0.665  10.895  0.1065 -0.1563  0.0872
 8555W        W24364   4.023   6.571  13.956 -0.0669 -0.1020 -0.1073
 8556W        W24365   5.622  17.330   4.589 -0.1404 -0.0945  0.3247
 8557W        W24366   3.184  11.081   0.836 -0.0062  0.0382  0.4081
 8558W        W24367   9.781   0.581   3.262 -0.0912  0.2774  0.0221
 8559W        W24368   9.378  14.323   4.840 -0.0296  0.1905  0.0319
 8560W        W24369   9.785   5.013   2.537  0.1988 -0.3374  0.0031
 8561W        W24370   5.202  15.697   4.512 -0.0396 -0.2251  0.5390
 8562W        W24371   2.077   1.375  10.434  0.0259  0.0926 -0.0080
 8563W        W24372   3.300  17.766  14.597  0.0427  0.1349  0.2529
 8564W        W24373  16.576  13.634   3.617 -0.0060  0.1804  0.3704
 8565W        W24374  16.801  11.578   2.184  0.0065  0.1169 -0.2058
 8566W        W24375  17.961   4.734   3.669 -0.1791  0.2585  0.0026
 8567W        W24376   2.582  16.042  10.867 -0.0110 -0.1989 -0.0748
 8568W        W24377  14.343   1.271  14.630  0.0501  0.1516  0.1191
 8569W        W24378   3.456   4.346  13.966 -0.1156  0.1075 -0.0408
 8570W        W24379   0.002  16.113   4.835 -0.0506  0.0959  0.1340
 8571W        W24380  10.596  11.629  13.714  0.0672  0.0843 -0.1169
 8572W        W24381  14.102  12.306  11.287 -0.2736 -0.0833  0.0045
 8573W        W24382   5.019   3.259  13.586  0.2245 -0.2620  0.1884
 8574W        W24383   7.014   7.081   4.920 -0.0046 -0.0188  0.1186
 8575W        W24384   1.395   9.087  12.730 -0.4526 -0.0285 -0.1901
 8576W        W24385  17.984  17.318   5.319 -0.0520 -0.1569 -0.0058
 8577W        W24386   0.065   9.819   1.950  0.2885 -0.2311  0.0621
 8578W        W24387  10.889   1.362  11.812  0.0414 -0.1937 -0.1200
 8579W        W24388   0.899  15.300  10.982  0.3054  0.1796 -0.0068
 8580W        W24389  11.831  12.156  12.630 -0.1387 -0.3740  0.1104
 8581W        W24390  12.683   5.046  15.503  0.1480  0.2312  0.3143
 8582W        W24391   6.094  12.991   2.437  0.0488  0.0263  0.1689
 8583W        W24392  11.586   3.443   4.308  0.0257 -0.1716  0.1610
 8584W        W24393   1.214   5.181  13.047 -0.0582  0.2642  0.1127
 8585W        W24394   7.446  17.310  11.078 -0.1444  0.0540  0.2091
 8586W        W24395   3.353  14.978  14.653 -0.1961  0.2501  0.3068
 8587W        W24396  11.502  18.194   0.508 -0.2395  0.1629 -0.2029
 8588W        W24397  17.203   5.360  13.491 -0.1314 -0.3448 -0.2048
 8589W        W24398   5.579   8.095  10.968  0.3169  0.1903  0.0910
 8590W        W24399  15.134   3.622   0.373 -0.3930 -0.2162  0.0250
 8591W        W24400  18.121   0.579  12.767  0.0511 -0.1396  0.0017
 8592W        W24401  15.505   4.410   4.647  0.0772  0.0819 -0.1508
 8593W        W24402  10.723   2.184   3.346 -0.1091 -0.1433 -0.1341
 8594W        W24403  12.000   2.747   0.644  0.0231  0.0167 -0.4417
 8595W        W24404  13.770  14.516   2.892 -0.3326 -0.0255 -0.2831
 8596W        W24405   8.846  11.001  14.929  0.2010 -0.2303 -0.2482
 8597W        W24406  17.580  11.763   4.711  0.1952  0.1624 -0.1887
 8598W        W24407   7.014  16.255   3.110 -0.1887 -0.0995  0.2585
 8599W        W24408   7.385   4.838  15.721 -0.0668  0.1416  0.1264
 8600W        W24409  15.653   9.914  13.684  0.2108  0.1712 -0.0431
 8601W        W24410  15.223  12.703   4.636  0.1086  0.2972 -0.2400
 8602W        W24411  17.659   9.348   0.835  0.0729 -0.2918 -0.0043
 8603W        W24412  12.651   8.552  14.805  0.0266 -0.1220  0.2197
 8604W        W24413  13.764  15.927   3.002  0.2121  0.0250  0.2006
 8605W        W24414   3.644  14.937   5.292 -0.1455 -0.3636 -0.0404
 8606W        W24415  14.664  14.836   2.533 -0.2020  0.1160  0.0021
 8607W        W24416  13.767   3.318  12.289  0.0220 -0.1755 -0.0930
 8608W        W24417  10.948   8.133  11.273 -0.1297  0.1454 -0.1063
 8609W        W24418   5.937  17.874   0.586 -0.0063  0.2444 -0.0682
 8610W        W24419  10.984  16.565  12.477 -0.1008  0.3363  0.1382
 8611W        W24420   2.322   5.868  12.698  0.0941  0.0116 -0.0711
 8612W        W24421   5.964  11.445  10.086  0.3727  0.0995 -0.0869
 8613W        W24422  18.398   8.942  10.288 -0.0432 -0.0413 -0.0001
 8614W        W24423  10.554  15.329  10.226  0.1569  0.0043  0.1619
 8615W        W24424  10.137   5.574   1.164 -0.1893 -0.0700 -0.0234
 8616W        W24425  17.497   1.010  13.316  0.0520 -0.2020  0.4381
 8617W        W24426  14.444   5.187   4.923 -0.1473  0.0710 -0.1906
 8618W        W24427  13.110  10.704   2.042 -0.0748  0.2922  0.2077
 8619W        W24428   6.485   9.393   2.744 -0.0797  0.0038 -0.2407
 8620W        W24429   3.495   4.036  13.132  0.0249 -0.0237 -0.3134
 8621W        W24430  17.581   5.746  11.200 -0.0744 -0.1481  0.2879
 8622W        W24431   3.698  16.103   1.335 -0.1013 -0.3081 -0.0251
 8623W        W24432   7.241   7.566  13.839  0.1005  0.1405  0.1956
 8624W        W24433  11.929   3.188   5.350  0.0026  0.1210  0.3159
 8625W        W24434  14.947  12.521  12.110 -0.1005  0.1659 -0.2421
 8626W        W24435   8.037   2.278  11.956 -0.2504  0.0134 -0.4153
 8627W        W24436   9.003  11.502   0.008 -0.0927  0.1387 -0.0638
 8628W        W24437   8.652   3.971   4.001  0.1514 -0.1864  0.0389
 8629W        W24438  10.280   6.258   2.113  0.2212  0.1941 -0.2153
 8630W        W24439  14.643   7.115   5.121  0.2171 -0.0803 -0.4001
 8631W        W24440   8.401   7.964  12.158 -0.0684 -0.1143  0.0336
 8632W        W24441  16.735   6.835  11.199 -0.1222  0.0498  0.4077
 8633W        W24442   4.684   3.872   4.658  0.1430  0.2331 -0.1324
 8634W        W24443  15.895  18.347   2.758 -0.0394  0.0253  0.3051
 8635W        W24444  13.332  13.395   5.897  0.1216  0.0947 -0.1135
 8636W        W24445   9.140  15.094  10.507 -0.0314  0.0125 -0.3352
 8637W        W24446  16.925   0.534   2.705 -0.0544 -0.1173  0.0208
 8638W        W24447  12.809  16.047  10.920 -0.0547 -0.5117  0.2055
 8639W        W24448  14.422  10.048   5.173 -0.0009  0.0611  0.0549
 8640W        W24449   8.460   8.089   3.858 -0.0425 -0.2642 -0.2075
 8641W        W24450  14.916  14.923  13.863 -0.3830  0.0020 -0.0337
 8642W        W24451   9.043   8.155   3.571 -0.2366 -0.3412 -0.0148
 8643W        W24452  16.714   4.543   2.343  0.2144 -0.0716  0.1508
 8644W        W24453   5.777   1.928  10.719 -0.0215  0.0083  0.0123
 8645W        W24454  10.140  13.593  15.232  0.0183 -0.2415 -0.0571
 8646W        W24455   2.982  11.597   0.206 -0.1098  0.0608  0.1175
 8647W        W24456   1.928   3.213  14.216  0.2824 -0.2173 -0.0581
 8648W        W24457   9.462   2.712   0.811  0.0801 -0.0968  0.0629
 8649W        W24458   9.834   5.028  11.745  0.0073 -0.0228 -0.2195
 8650W        W24459   7.786   9.193   1.705  0.1113  0.2521 -0.1430
 8651W        W24460  12.011   2.539  14.509 -0.2152  0.0066 -0.0483
 8652W        W24461   8.382  10.131  12.539 -0.0980  0.0345  0.1802
 8653W        W24462  16.943   4.284  11.063 -0.0549 -0.0158 -0.0203
 8654W        W24463  14.265  17.538  10.777 -0.2120 -0.1183 -0.0081
 8655W        W24464   0.434  13.589  14.398 -0.1221 -0.0149 -0.2656
 8656W        W24465   8.163  14.870  11.736 -0.1049  0.3837  0.2390
 8657W        W24466   6.084   8.249  10.985  0.2349 -0.2255  0.1213
 8658W        W24467  12.404  14.981  14.578 -0.1551  0.3703 -0.1230
 8659W        W24468  15.683   3.674   2.709  0.0477  0.1076  0.2551
 8660W        W24469   6.051  17.743  11.331 -0.1598  0.0773  0.1615
 8661W        W24470  18.417  10.060  11.691 -0.0848  0.3167  0.2519
 8662W        W24471   2.019   5.891  14.969  0.3891  0.2525  0.1121
 8663W        W24472   4.250   8.958   0.690 -0.0845 -0.2494  0.1576
 8664W        W24473  13.956  11.287  14.416  0.1409  0.1082 -0.2740
 8665W        W24474   6.701   7.902   4.995 -0.0990  0.1921 -0.0754
 8666W        W24475  14.844   2.628   2.482  0.0630  0.4157  0.0695
 8667W        W24476   7.786  18.313   0.285 -0.1220  0.1320 -0.0358
 8668W        W24477  14.279  10.517   5.263 -0.0504 -0.0566  0.0758
 8669W        W24478   2.580  11.908   2.181  0.0723  0.1557 -0.1978
 8670W        W24479   8.867  16.141   5.263  0.4214 -0.0352  0.0486
 8671W        W24480   8.688  15.787  11.082 -0.0510  0.1858  0.0337
 8672W        W24481   2.342   3.810  10.978 -0.1107  0.0215 -0.3554
 8673W        W24482  10.980  13.826   3.275 -0.0178 -0.1243  0.1633
 8674W        W24483   5.402   5.670  12.243 -0.0228 -0.0837 -0.0077
 8675W        W24484  15.698   4.282  13.762  0.3437 -0.0597 -0.0414
 8676W        W24485   8.745   0.658  11.479  0.0727  0.3879 -0.0963
 8677W        W24486   9.479  14.968  15.444  0.1977 -0.3671  0.0375
 8678W        W24487   0.582  11.666  14.746 -0.0646  0.2709  0.0512
 8679W        W24488   4.581  17.402   1.904  0.3577  0.0116  0.1495
 8680W        W24489  14.565   3.966  14.616 -0.3008  0.1654  0.0054
 8681W        W24490  15.661   9.839   4.858 -0.0122  0.1162  0.2078
 8682W        W24491  12.049  15.845   2.984  0.1324 -0.0643 -0.1060
 8683W        W24492   7.010  17.613  13.871  0.0373  0.1722 -0.1305
 8684W        W24493  10.490   4.300   3.808 -0.0544 -0.1371 -0.2059
 8685W        W24494   5.377   9.874  12.103  0.0851  0.0802 -0.0935
 8686W        W24495  16.601  15.489  10.122  0.0432  0.1096 -0.0779
 8687W        W24496  17.946   8.567   3.810 -0.3835  0.1773 -0.1776
 8688W        W24497   7.621  13.693   3.131 -0.2711 -0.2115  0.0438
 8689W        W24498   2.095  12.456   4.700 -0.0018 -0.1250 -0.2355
 8690W        W24499  15.341   9.193  12.398 -0.0329  0.0100 -0.1011
 8691W        W24500   5.508   5.094   2.101  0.2851 -0.3100 -0.0902
 8692W        W24501   0.497   0.473  15.706 -0.1098 -0.0753  0.0508
 8693W        W24502   8.653  11.512   3.239  0.2114  0.1254  0.1905
 8694W        W24503  13.528  17.035  10.531 -0.1892 -0.1747 -0.2950
 8695W        W24504  11.730   3.106   1.941  0.0792  0.0656  0.2736
 8696W        W24505   9.035   0.941   4.993  0.1538 -0.2666  0.0136
 8697W        W24506   6.387   1.301   1.357 -0.0900 -0.3498  0.0759
 8698W        W24507   9.255   6.878  12.231 -0.2617 -0.0517  0.1187
 8699W        W24508  15.510  16.272   0.055 -0.2336 -0.2096  0.3310
 8700W        W24509   6.695  16.133  10.692 -0.2441  0.0354  0.1175
 8701W        W24510  10.998  12.620  10.177 -0.2724  0.0637 -0.0959
 8702W        W24511  13.023  11.532  13.784 -0.0583 -0.1868 -0.0200
 8703W        W24512  13.252   3.629   2.661  0.0136  0.0522  0.1979
 8704W        W24513  15.002  12.782  12.556 -0.0313  0.2084  0.1064
 8705W        W24514   3.866  16.167  13.352 -0.1622 -0.0840 -0.4444
 8706W        W24515  10.610  17.729  11.245  0.0683  0.1355  0.1480
 8707W        W24516  16.707  12.530   0.675 -0.4239  0.3976 -0.0570
 8708W        W24517   6.691  18.009  13.177 -0.3935 -0.2786  0.0104
 8709W        W24518   9.291   9.215   3.697 -0.0105 -0.1035 -0.0260
 8710W        W24519   5.542  10.785  12.018 -0.1160  0.0582 -0.0681
 8711W        W24520  13.577   2.381  11.372 -0.2740 -0.1902 -0.2030
 8712W        W24521   1.315  11.793  13.018  0.0737  0.0891 -0.0721
 8713W        W24522   4.631  17.601   2.699 -0.2295  0.0119  0.4051
 8714W        W24523  14.604  11.539  13.820 -0.2294  0.2994  0.4514
 8715W        W24524  17.461  16.216   5.478  0.1349  0.0506  0.2670
 8716W        W24525   6.591  11.989  14.139  0.0588  0.1738 -0.3176
 8717W        W24526  13.293  11.494  15.188  0.1476 -0.1333  0.2772
 8718W        W24527  16.157   4.891  13.109  0.0893  0.1902  0.2115
 8719W        W24528   8.595  14.998  11.503  0.3110  0.2288  0.0849
 8720W        W24529   2.027   3.572  13.000 -0.0183 -0.1356  0.0286
 8721W        W24530   5.778   9.055  11.947 -0.1061  0.3035  0.0063
 8722W        W24531   4.436   0.150   3.164 -0.0565 -0.1216 -0.2203
 8723W        W24532  13.523   3.784   4.031 -0.0627 -0.0146  0.1344
 8724W        W24533  12.633  14.103  11.840 -0.3139 -0.0934  0.1418
 8725W        W24534  12.333   1.240   0.964  0.0366 -0.1151 -0.0492
 8726W        W24535   3.549   5.241   2.061  0.0685 -0.2578 -0.1332
 8727W        W24536  15.092  16.596  10.654 -0.0543  0.0753  0.1574
 8728W        W24537   7.909   4.860  11.603 -0.0849  0.2639  0.0816
 8729W        W24538  14.455  17.949   0.452  0.0684 -0.1019  0.2218
 8730W        W24539   0.095   9.442  15.646 -0.0955 -0.0521 -0.1585
 8731W        W24540   8.145   6.497   3.957  0.1054 -0.0431  0.0938
 8732W        W24541   5.861   9.137  15.852  0.3071 -0.1388  0.2243
 8733W        W24542   7.340   9.557   4.427  0.1798  0.0458  0.1347
 8734W        W24543  10.308  11.255  11.239 -0.1143 -0.0555 -0.1147
 8735W        W24544   0.485   1.152  11.822 -0.3373  0.2424 -0.0379
 8736W        W24545   1.892   4.959  15.614 -0.1461  0.1489  0.3394
 8737W        W24546  15.694   7.578   4.983 -0.1397  0.0056  0.1676
 8738W        W24547   3.899   7.517  11.581 -0.0548 -0.1204  0.1835
 8739W        W24548   2.788   0.480  13.237  0.0139  0.3561  0.0156
 8740W        W24549  17.727  12.217   4.666 -0.0469  0.0526 -0.1010
 8741W        W24550  16.888   8.725   1.363  0.2705 -0.0751  0.0155
 8742W        W24551  13.686  17.544   2.007  0.0735  0.0947 -0.1426
 8743W        W24552  11.420  18.446  15.058 -0.0912 -0.1280  0.2937
 8744W        W24553   0.611   3.160  15.812 -0.0918 -0.2265  0.0054
 8745W        W24554  14.177  15.946   4.466  0.1139 -0.0314 -0.0410
 8746W        W24555  11.125   1.948  13.582 -0.1213 -0.2862 -0.1344
 8747W        W24556  17.076   7.627  11.653  0.1162 -0.0528  0.0248
 8748W        W24557  15.514   3.624   3.320  0.1004  0.1585 -0.0839
 8749W        W24558  14.563  14.000   0.219  0.0335 -0.0715  0.1397
 8750W        W24559   0.542   6.319  12.779  0.2282 -0.3168 -0.0304
 8751W        W24560  15.671   3.173   2.543 -0.1224 -0.2171 -0.1000
 8752W        W24561  12.280  16.282   5.023  0.2255  0.0811 -0.1096
 8753W        W24562   7.071  17.116   3.006 -0.3147 -0.1654 -0.0148
 8754W        W24563   6.885  10.218   5.372  0.1020  0.1944 -0.2881
 8755W        W24564   5.761  14.952   0.157  0.0165  0.0086  0.1782
 8756W        W24565  12.904   1.065  12.468  0.0215 -0.0733 -0.2208
 8757W        W24566   6.199   8.915   3.860 -0.1633  0.1847 -0.0448
 8758W        W24567   5.140   2.217  14.065 -0.3615  0.0236 -0.0530
 8759W        W24568  15.195  14.771  12.797 -0.0454  0.0092 -0.1909
 8760W        W24569   6.679   3.194  13.527  0.1714 -0.2333 -0.1289
 8761W        W24570  10.143   2.966  13.181 -0.1667 -0.2447  0.1622
 8762W        W24571   5.344  16.399   4.783  0.0108 -0.2908  0.1793
 8763W        W24572   7.287  16.058   2.585 -0.1771 -0.0834 -0.0966
 8764W        W24573   4.038   9.394  14.688  0.1638  0.0818  0.2069
 8765W        W24574   2.476  11.050  13.047 -0.0821 -0.0313  0.1087
 8766W        W24575   7.863   8.663  10.927 -0.1320  0.0749 -0.1908
 8767W        W24576   3.463  14.738   3.171 -0.0671 -0.0000  0.0172
 8768W        W24577   8.518  11.170  10.624  0.2201 -0.0010 -0.0059
 8769W        W24578   7.069   3.813  15.083  0.1731  0.2410 -0.1627
 8770W        W24579   3.711   8.227   0.193 -0.0551  0.0182  0.1257
 8771W        W24580  17.265  11.490  14.926 -0.2917  0.3608  0.0757
 8772W        W24581  12.587   5.856   4.916 -0.1679 -0.0691  0.1699
 8773W        W24582   3.736  11.382  10.500  0.1558  0.1033 -0.2662
 8774W        W24583   7.462  16.169   3.211 -0.0301  0.0747 -0.0086
 8775W        W24584  14.709  11.444  11.491 -0.1152  0.1448  0.0465
 8776W        W24585  10.987   0.292   2.779 -0.3216  0.2226  0.0075
 8777W        W24586  17.887  13.699   5.696  0.1388  0.2339 -0.2253
 8778W        W24587  10.045  18.396   0.124 -0.0823  0.0756 -0.0910
 8779W        W24588  13.996   3.671   0.960  0.0713  0.0022 -0.1209
 8780W        W24589   3.059  15.232  12.121 -0.0726  0.1984  0.0399
 8781W        W24590   8.572  11.494  13.907 -0.0332 -0.1110 -0.1220
 8782W        W24591  14.261   9.138  15.209  0.0441  0.0997 -0.0027
 8783W        W24592  14.873  17.955   4.867 -0.0515  0.1516 -0.0929
 8784W        W24593  10.142  11.770  13.138  0.3395 -0.1544 -0.0527
 8785W        W24594  15.630  12.339  13.635 -0.1845 -0.1911  0.0252
 8786W        W24595   9.678  16.916   2.309 -0.0849  0.1901 -0.3520
 8787W        W24596   8.223   8.834   4.707  0.1998 -0.1207  0.0244
 8788W        W24597  13.673  16.857   2.188  0.2481  0.1755  0.0670
 8789W        W24598   5.104  10.286  11.395 -0.0814  0.1450  0.1155
 8790W        W24599   6.691  18.143  13.742  0.0338 -0.0597 -0.0132
 8791W        W24600  17.523   1.272   3.005  0.1185  0.4978  0.0235
 8792W        W24601   3.776   5.233  13.927  0.1491 -0.0311 -0.0223
 8793W        W24602   1.425  14.028   4.054  0.2262 -0.3667 -0.0983
 8794W        W24603   5.957   9.330   5.047 -0.0925 -0.1175  0.4514
 8795W        W24604  13.325  17.914  14.754 -0.2140 -0.0383  0.0121
 8796W        W24605  12.620  12.409   0.705 -0.1135  0.1348  0.0253
 8797W        W24606  10.108   2.791   4.488 -0.4623 -0.2148  0.2864
 8798W        W24607   2.002  13.892   2.412 -0.1098  0.1216 -0.0660
 8799W        W24608   5.306  15.010  13.637  0.0728  0.0078  0.0868
 8800W        W24609  16.392  14.588  15.161  0.0357  0.2615  0.2151
 8801W        W24610   6.379   0.514  13.160  0.1537 -0.0587 -0.0533
 8802W        W24611  13.182   6.939  13.546  0.4521 -0.0031 -0.0729
 8803W        W24612   6.358   5.024   5.390  0.0548  0.1605 -0.3834
 8804W        W24613   0.948   2.255   3.649 -0.2737  0.2071  0.1512
 8805W        W24614   5.718  11.484  14.451 -0.0599  0.2674 -0.1773
 8806W        W24615   9.583  12.957   4.530  0.2088 -0.0703  0.0984
 8807W        W24616   7.230  12.623  12.105  0.0379  0.2444  0.0015
 8808W        W24617   3.983  15.288   3.086  0.0603 -0.1254  0.1266
 8809W        W24618   6.409   3.279   4.314 -0.2117 -0.1139  0.1299
 8810W        W24619   7.222   0.433  11.743 -0.1496  0.0045 -0.2473
 8811W        W24620  13.314   9.881   3.368 -0.1380  0.1926 -0.1380
 8812W        W24621  10.662   2.792  10.736 -0.0614 -0.3947 -0.2223
 8813W        W24622   1.294   1.195   5.050  0.0956 -0.2252  0.0514
 8814W        W24623   0.116   4.117  10.580  0.0767 -0.1643  0.0588
 8815W        W24624  10.000  16.335   5.302  0.0838 -0.0839 -0.0526
 8816W        W24625   2.126   1.394  12.210 -0.1568 -0.0248 -0.3599
 8817W        W24626  16.303   0.959  12.168  0.2334 -0.3524  0.1661
 8818W        W24627   3.100   0.387  11.401  0.0389  0.0214 -0.1494
 8819W        W24628   9.850  14.157   4.990  0.1184  0.0024 -0.1602
 8820W        W24629   2.887   0.427   3.565 -0.1200 -0.0688  0.1379
 8821W        W24630  18.039   9.603   4.041 -0.0844  0.0514 -0.0787
 8822W        W24631  14.122   0.280  14.709  0.0630 -0.0620 -0.1308
 8823W        W24632  16.811   8.453  10.029 -0.0035  0.2482 -0.1766
 8824W        W24633  12.694  13.468   3.061  0.1913 -0.1734 -0.1060
 8825W        W24634  12.002   5.903  13.140  0.1956  0.0753 -0.0679
 8826W        W24635  11.502  14.352  13.881  0.0016  0.0045 -0.1559
 8827W        W24636   3.845   6.779   2.535  0.0562 -0.0298 -0.0616
 8828W        W24637   7.967  16.078   5.047  0.2958 -0.2266  0.0632
 8829W        W24638   1.421  18.125  12.359  0.1129  0.0842 -0.1485
 8830W        W24639   5.821   8.508  11.922 -0.2686 -0.1550 -0.0817
 8831W        W24640   9.237   6.239   3.262 -0.0041  0.0225  0.0090
 8832W        W24641   0.954   7.754  10.385 -0.2374  0.1133 -0.0282
 8833W        W24642   0.587  17.039  11.185 -0.0375 -0.0854 -0.1433
 8834W        W24643  10.026   7.387  13.966  0.2713 -0.2150 -0.0608
 8835W        W24644   2.687  14.441   4.515 -0.1798  0.2119 -0.1975
 8836W        W24645  13.430   5.516  10.836 -0.0299  0.0205 -0.1841
 8837W        W24646   5.585  14.572  11.894 -0.1999 -0.1419  0.1713
 8838W        W24647  11.556   5.308   5.256  0.3380 -0.0826 -0.5328
 8839W        W24648   1.974   9.446  13.433  0.0598  0.1582  0.0258
 8840W        W24649  12.586   8.318   3.600  0.1683  0.0194  0.2228
 8841W        W24650  15.929  15.683  10.541  0.0683  0.1253 -0.0516
 8842W        W24651  17.352   4.642  15.793 -0.0436  0.1189 -0.2159
 8843W        W24652  10.815   7.717   5.174  0.0566  0.1379 -0.0450
 8844W        W24653   1.272   8.629   3.998 -0.2906 -0.2735  0.0174
 8845W        W24654  16.903  12.944  15.775  0.1105  0.3206 -0.1547
 8846W        W24655  17.134   4.250   0.688 -0.3427 -0.0344  0.2821
 8847W        W24656  10.476  12.757   4.043 -0.0623  0.1770 -0.2423
 8848W        W24657  17.761   7.088   2.505 -0.0366 -0.0180 -0.0177
 8849W        W24658  10.609   5.048   1.806  0.0041  0.0075  0.2140
 8850W        W24659   3.877  17.588  12.870 -0.0920 -0.1270  0.1075
 8851W        W24660   4.243   9.923  12.906  0.0488 -0.0183 -0.0084
 8852W        W24661  16.393  13.107  15.797 -0.3596 -0.2014 -0.0413
 8853W        W24662  14.327   3.519  13.933  0.1649  0.0412 -0.0637
 8854W        W24663   9.759  11.424   2.790 -0.2447  0.0083 -0.1945
 8855W        W24664  16.879   3.629  11.118 -0.4870  0.0380  0.2280
 8856W        W24665  12.865  10.727  14.398 -0.1949  0.3652  0.2435
 8857W        W24666  12.849  14.277  12.879 -0.3098  0.1452  0.0613
 8858W        W24667   2.787  17.479  11.173 -0.0733  0.0950 -0.0771
 8859W        W24668  11.768   6.194  14.249  0.1870  0.2772  0.0247
 8860W        W24669   6.158   6.246  13.686 -0.0018  0.0090  0.2867
 8861W        W24670   6.882  13.003   2.816  0.1462 -0.1416 -0.1576
 8862W        W24671   0.715   6.017   2.419 -0.1129  0.2664  0.2793
 8863W        W24672  12.394   2.524  12.155 -0.1995 -0.0358 -0.0145
 8864W        W24673  13.153  16.106  14.774  0.1188 -0.1478  0.2128
 8865W        W24674   5.612   5.522   0.783  0.1263 -0.1712 -0.1386
 8866W        W24675  16.770   6.468  15.265  0.0431 -0.3481  0.0625
 8867W        W24676  15.386   8.687   1.490 -0.0483  0.0255  0.3354
 8868W        W24677   0.160   5.293   3.065  0.1352  0.1871  0.0057
 8869W        W24678  16.774   7.785   0.355  0.0185 -0.0584 -0.4076
 8870W        W24679   9.056   6.830   1.067  0.3063 -0.1809 -0.2457
 8871W        W24680   3.987   9.032  13.163  0.0054  0.2804  0.2240
 8872W        W24681  15.420  15.670   1.545 -0.1077 -0.0287  0.1642
 8873W        W24682  18.419  12.018   0.174 -0.1103 -0.1334  0.0437
 8874W        W24683  12.081  15.605   3.466  0.1734  0.4091 -0.2527
 8875W        W24684   4.871  16.692  11.548  0.2178  0.0577 -0.1816
 8876W        W24685   6.041   2.642   0.049  0.4096  0.0727 -0.1985
 8877W        W24686   4.649   5.901  14.355  0.0353  0.1139  0.0180
 8878W        W24687   5.187   3.161   4.828  0.0276 -0.2172  0.0615
 8879W        W24688   1.897   3.877   0.054  0.2909 -0.0879 -0.0151
 8880W        W24689  13.936   2.521  14.701  0.0176  0.5974  0.1879
 8881W        W24690  13.631   0.871   0.037 -0.0504  0.0463 -0.2873
 8882W        W24691   4.239   1.097  14.232 -0.0614 -0.1020 -0.2756
 8883W        W24692   2.706   4.022   3.906  0.1122  0.1224 -0.0068
 8884W        W24693   2.743   4.889  11.823 -0.0009 -0.1722  0.1319
 8885W        W24694  16.128  11.369   5.984 -0.1454  0.0836  0.0732
 8886W        W24695   0.953   2.097   3.130 -0.1315  0.3013  0.1389
 8887W        W24696   4.591   7.157  15.474 -0.2001  0.2497 -0.0328
 8888W        W24697   5.221   4.781   3.681  0.1003 -0.0270 -0.0479
 8889W        W24698  12.974  17.763  15.641  0.0577 -0.1387  0.2547
 8890W        W24699   9.507  17.428  15.172 -0.0012  0.1460 -0.0461
 8891W        W24700  16.288   2.033  12.123  0.0889 -0.1027 -0.1498
 8892W        W24701   8.466   8.602   1.782  0.1614  0.1944 -0.2403
 8893W        W24702  13.475  13.345   9.878 -0.1557  0.1095 -0.1499
 8894W        W24703  15.325   0.443  14.547 -0.0064 -0.0704 -0.1845
 8895W        W24704   3.159   4.012   4.764  0.4606  0.0472 -0.0552
 8896W        W24705   6.480  11.506  13.891 -0.1463 -0.0468  0.0103
 8897W        W24706   4.266  11.238   4.154 -0.1464 -0.2004 -0.0883
 8898W        W24707  15.030  12.728   5.201  0.0417 -0.2522 -0.1258
 8899W        W24708   1.658   9.284   4.574  0.2064  0.2008 -0.0620
 8900W        W24709   1.283  10.484   4.787 -0.0056 -0.2111 -0.3158
 8901W        W24710  17.917   1.618   4.175 -0.3696  0.1012  0.1211
 8902W        W24711   6.814  13.994   3.944 -0.1586 -0.0634  0.2460
 8903W        W24712   4.968   1.097   5.469  0.0532 -0.0743 -0.2753
 8904W        W24713   7.197  16.360   0.555  0.1049 -0.0308 -0.2580
 8905W        W24714   5.803  17.189   5.079  0.1671 -0.0924  0.1773
 8906W        W24715  12.101  14.049   4.153 -0.1229  0.1689 -0.2131
 8907W        W24716   5.123  13.420   1.912 -0.0656  0.0577 -0.0147
 8908W        W24717   5.833   2.962  13.773  0.2466 -0.0968 -0.0651
 8909W        W24718  15.240  12.704  11.737 -0.2457  0.2541 -0.2169
 8910W        W24719  11.172  10.906  13.283 -0.0055  0.1241 -0.0472
 8911W        W24720   3.491   5.724   4.217 -0.1825  0.2635 -0.1866
 8912W        W24721   6.217  14.283   4.778 -0.0892  0.2276 -0.0523
 8913W        W24722  11.468  11.352   1.886  0.0590  0.4138 -0.1545
 8914W        W24723  17.903   8.439  11.651  0.0031 -0.0064  0.2893
 8915W        W24724  10.751   8.523   5.441 -0.1977 -0.0436 -0.2255
 8916W        W24725   7.472   2.920  12.287 -0.1523 -0.0696 -0.0050
 8917W        W24726   8.920   7.191   0.193  0.1871  0.1049 -0.1863
 8918W        W24727   3.773  13.861  10.625 -0.2603 -0.0934  0.0864
 8919W        W24728  17.453   4.562  13.671  0.1004  0.0172  0.0150
 8920W        W24729   1.975  13.303  11.626  0.0640  0.1778  0.0223
 8921W        W24730  14.446   0.022   4.986  0.0446  0.2649  0.0858
 8922W        W24731  17.777   0.953  12.562 -0.1075  0.1122  0.0748
 8923W        W24732  17.962   2.156   0.451 -0.0842  0.1335  0.1235
 8924W        W24733   2.129   4.721  12.487  0.2303 -0.3832 -0.0962
 8925W        W24734  15.754  17.284   5.638  0.0537  0.2215  0.1353
 8926W        W24735  16.276  14.917  11.127  0.1658  0.0614  0.2239
 8927W        W24736  14.594   2.693   0.783 -0.0834  0.0820 -0.0056
 8928W        W24737   5.631   1.841  11.219  0.2039 -0.0266 -0.1437
 8929W        W24738   8.687   6.821  15.728  0.0133 -0.0556  0.2414
 8930W        W24739   6.627   0.834   3.996 -0.2585 -0.1829  0.2500
 8931W        W24740  14.492  10.797   4.811  0.3076  0.0729  0.0160
 8932W        W24741  11.567  14.867  14.164 -0.2771  0.3229  0.0461
 8933W        W24742   4.261   2.498  12.987 -0.2124  0.1551  0.1050
 8934W        W24743  15.884   3.007  15.340  0.3118  0.0735 -0.2850
 8935W        W24744  14.240   3.867  15.104  0.2078  0.0649 -0.0818
 8936W        W24745   7.558   0.182  10.903 -0.1930  0.0836 -0.1430
 8937W        W24746   2.425   9.449  10.465 -0.4417  0.1526  0.0005
 8938W        W24747   6.223  12.497   1.075 -0.0193 -0.3368  0.2251
 8939W        W24748  12.130   0.926   4.854 -0.1634  0.1428 -0.0109
 8940W        W24749   4.913   4.826  11.253 -0.1735 -0.1730  0.4838
 8941W        W24750   8.304   0.079  13.353  0.1935 -0.2823  0.1790
 8942W        W24751  14.494  11.982   0.078 -0.1031 -0.3266  0.0356
 8943W        W24752   9.339   3.409   3.851  0.1738 -0.0935 -0.2596
 8944W        W24753  13.144  12.444  13.146 -0.1907 -0.0436  0.4783
 8945W        W24754  11.355  15.014  12.503 -0.2705  0.1210  0.1511
 8946W        W24755  17.186  14.706  13.202 -0.1830  0.1048  0.0163
 8947W        W24756  12.176   2.953  12.746  0.1979  0.0335 -0.1762
 8948W        W24757  15.085  10.413  14.955  0.0412  0.1645  0.1204
 8949W        W24758  11.812   5.228   4.379  0.1475 -0.0130  0.0103
 8950W        W24759   4.600   7.480  14.699  0.0395 -0.0796  0.2756
 8951W        W24760   9.609   0.129  15.715 -0.2518  0.0291  0.2925
 8952W        W24761   7.270   0.613   0.063  0.0035 -0.2737  0.2214
 8953W        W24762  11.220  16.844  13.345  0.1383 -0.1887  0.0143
 8954W        W24763   5.942  16.291   1.800  0.0382 -0.0148  0.1016
 8955W        W24764   7.327  10.357   1.022  0.0498  0.0318 -0.3249
 8956W        W24765   1.083  17.409  14.898 -0.0642 -0.0222 -0.2194
 8957W        W24766   5.053   0.352  15.201  0.2244  0.0652 -0.0040
 8958W        W24767   5.116  15.427   2.160 -0.1100  0.0480 -0.2734
 8959W        W24768   1.413   8.326   3.193  0.2375 -0.2245  0.2012
 8960W        W24769   1.756  13.038   0.652  0.0802  0.1279  0.0353
 8961W        W24770   1.297   1.569   1.885  0.0155 -0.2609  0.1525
 8962W        W24771   8.509   1.946  14.156 -0.2932 -0.0099 -0.0321
 8963W        W24772  14.690   7.862   5.975 -0.2848 -0.1741  0.2268
 8964W        W24773   3.861   6.103   3.650 -0.0315 -0.0033 -0.1406
 8965W        W24774  14.600   0.157  14.652  0.1093 -0.1877 -0.0852
 8966W        W24775   6.959  18.435  14.648 -0.2664  0.0822  0.0467
 8967W        W24776  15.443   0.863  15.625 -0.2698  0.0016  0.2643
 8968W        W24777   3.404   9.758   2.900 -0.1600  0.0603  0.1094
 8969W        W24778   6.411  12.498  13.117  0.0637 -0.1182  0.0825
 8970W        W24779   6.945  14.034   2.618  0.0368 -0.1862  0.3331
 8971W        W24780   0.283   1.875   1.141  0.2133  0.1516 -0.1068
 8972W        W24781   7.497  10.966   3.237  0.0201  0.3263 -0.1426
 8973W        W24782  12.387   2.781   4.385 -0.0436  0.2401 -0.0932
 8974W        W24783  11.370   8.987  12.982 -0.2133 -0.0083 -0.5009
 8975W        W24784  16.393  10.759   1.250  0.0801 -0.0391 -0.2503
 8976W        W24785   3.659   6.334   3.195 -0.0814  0.0766 -0.1025
 8977W        W24786   4.075  12.636  13.388 -0.1165  0.0049  0.1069
 8978W        W24787   4.030   2.456   3.738  0.0179  0.0281  0.0637
 8979W        W24788  10.624   0.517  15.539 -0.2070 -0.2351  0.1290
 8980W        W24789   7.634   2.778  14.446  0.0175  0.0246  0.1799
 8981W        W24790  14.892  16.778  15.196  0.0792  0.0552  0.0207
 8982W        W24791   0.240  12.252  11.693 -0.1165 -0.0017 -0.2958
 8983W        W24792  18.294   4.135  11.392 -0.0383 -0.2283 -0.0022
 8984W        W24793  17.039  10.262   5.983 -0.2511  0.1408  0.0779
 8985W        W24794   0.816  15.188  11.757  0.3997 -0.1987 -0.2029
 8986W        W24795   7.918  14.311   1.640 -0.0900  0.0228  0.2825
 8987W        W24796   0.854  10.433  12.942 -0.0620  0.3106 -0.2245
 8988W        W24797  16.430  10.599  15.364  0.0028 -0.1477 -0.0156
 8989W        W24798  16.916  15.053  11.824  0.0936 -0.1328  0.1141
 8990W        W24799   8.656   7.376   0.672  0.1168  0.2935  0.2589
 8991W        W24800  16.529   8.452   3.533 -0.0320 -0.0326  0.1325
 8992W        W24801  12.556  11.802  13.522 -0.1423  0.0239 -0.2916
 8993W        W24802  17.943   7.221   3.250  0.1608 -0.4080 -0.2293
 8994W        W24803   8.415   2.076  14.627 -0.0239 -0.0827  0.3390
 8995W        W24804  15.467   9.727  13.238  0.2817 -0.3425  0.0715
 8996W        W24805  10.054   5.438  13.250  0.0642 -0.0752 -0.0802
 8997W        W24806   4.529   3.335  15.650  0.0849  0.2496  0.2856
 8998W        W24807  12.378   7.851   3.625 -0.3347 -0.0276 -0.0938
 8999W        W24808   6.034   2.368  10.788  0.1238 -0.1224 -0.3146
 9000W        W24809   4.561   9.406   0.826 -0.0846  0.0271 -0.2285
 9001W        W24810   8.290  11.928  11.466  0.0106  0.1535  0.4096
 9002W        W24811   1.102   0.021   2.824  0.0520  0.1313 -0.2569
 9003W        W24812  14.457   9.417   1.752 -0.1590  0.1521  0.2449
 9004W        W24813   9.088  10.889  14.028  0.1325  0.0020  0.3293
 9005W        W24814  18.076   2.222  13.854  0.3562 -0.0027  0.0761
 9006W        W24815   8.324  18.119   3.631 -0.0277  0.0376  0.0211
 9007W        W24816  17.725  14.963   2.809 -0.0410 -0.2027  0.1108
 9008W        W24817  17.447  14.688   4.872  0.0976 -0.1566  0.0915
 9009W        W24818   5.133  17.385  10.627  0.2365 -0.2453 -0.0466
 9010W        W24819   8.003   9.455   1.214  0.1177 -0.1306  0.0181
 9011W        W24820   5.994   2.109  14.153 -0.0073  0.2089 -0.0624
 9012W        W24821   6.551   6.457   1.717  0.0117 -0.0012  0.0012
 9013W        W24822   5.643   7.398   2.911  0.1776 -0.2693  0.3549
 9014W        W24823   1.468  10.552   3.914  0.0313  0.2619  0.0182
 9015W        W24824  10.160   0.598  11.389  0.1789 -0.0465  0.1955
 9016W        W24825   1.632   6.284  11.604 -0.1381  0.0457 -0.2173
 9017W        W24826   8.676  11.922   2.947  0.2369  0.3017  0.1304
 9018W        W24827  18.449   5.123  14.094 -0.0699  0.0307 -0.1175
 9019W        W24828   9.945   7.896  14.460 -0.1896 -0.1963 -0.1191
 9020W        W24829   8.408  12.066  11.935  0.2334 -0.0167  0.0622
 9021W        W24830  11.685  10.909  13.936  0.2790  0.1509  0.0335
 9022W        W24831   5.737   8.612  15.545  0.1535 -0.0008  0.0135
 9023W        W24832   5.554   7.977   2.877  0.0068  0.3923 -0.0752
 9024W        W24833   6.118   3.768   4.300  0.0060 -0.0707 -0.0163
 9025W        W24834   7.785   8.434   3.770 -0.1021 -0.1925  0.1677
 9026W        W24835   1.780   5.188  10.225 -0.1502  0.0741 -0.2010
 9027W        W24836   6.572   6.444   1.067  0.0498 -0.0976 -0.0324
 9028W        W24837   7.977  17.057   3.515 -0.1737 -0.1896 -0.0421
 9029W        W24838   5.772  15.210   3.784 -0.1763  0.0154 -0.0178
 9030W        W24839   1.458   4.996  13.483 -0.3747  0.1851  0.0023
 9031W        W24840  12.240  14.565   2.034 -0.0402  0.0078  0.1570
 9032W        W24841   6.370  18.037   0.868 -0.3246 -0.0912 -0.1347
 9033W        W24842   4.674  15.594   2.303 -0.1024 -0.3132 -0.0095
 9034W        W24843   7.680   2.128   4.253 -0.2251  0.1046  0.1177
 9035W        W24844  18.287   8.885  14.959 -0.0036 -0.6070  0.0263
 9036W        W24845   1.562   4.354  12.039  0.0485 -0.2408  0.0811
 9037W        W24846  15.201   9.629  11.793 -0.0155  0.2677 -0.1220
 9038W        W24847   4.990   7.678   1.155  0.1423 -0.0011 -0.1525
 9039W        W24848   6.557  15.440  13.161 -0.2009  0.1817  0.2093
 9040W        W24849  17.119   0.308   5.202  0.1243  0.3076 -0.0878
 9041W        W24850   4.855   5.727   2.308 -0.0488  0.0463 -0.2209
 9042W        W24851   0.528   2.020  14.771 -0.3295 -0.1232 -0.0243
 9043W        W24852   7.532   6.030  12.365 -0.0063  0.2384  0.0190
 9044W        W24853   6.987  16.006   1.473  0.2023  0.0417  0.0141
 9045W        W24854  11.807   2.686   1.137  0.0198 -0.2306 -0.0583
 9046W        W24855  16.536  16.362   5.027 -0.1763 -0.2564  0.0695
 9047W        W24856   4.924  15.960  13.681 -0.2117  0.1064  0.2014
 9048W        W24857   0.951  17.468   4.306  0.0691  0.1790 -0.1044
 9049W        W24858  10.556   1.059   1.753  0.1249 -0.2093  0.1657
 9050W        W24859   0.909  16.048  11.400  0.3402  0.1031  0.0448
 9051W        W24860   5.438   4.144  13.812 -0.2974  0.0987 -0.0233
 9052W        W24861   6.111  17.787   2.783 -0.2354  0.2264  0.0381
 9053W        W24862  13.400   1.090  11.656  0.1761 -0.0338 -0.1807
 9054W        W24863   3.319  15.846   4.817  0.2667 -0.1481  0.4828
 9055W        W24864   6.621  11.297   3.592  0.0169  0.4777  0.0256
 9056W        W24865   3.256   2.089   1.566 -0.0493  0.0510  0.0378
 9057W        W24866  10.959   7.858   3.874 -0.2490  0.1973 -0.0245
 9058W        W24867   3.221  10.776  15.715  0.0376  0.0308 -0.1848
 9059W        W24868   5.348  15.851   4.094 -0.3464 -0.1518 -0.2355
 9060W        W24869   3.138  12.944  14.908 -0.0902 -0.1180  0.3584
 9061W        W24870   8.684  17.558  11.959  0.4074  0.0377 -0.2728
 9062W        W24871   1.656   0.903   4.464  0.1255  0.1587 -0.0005
 9063W        W24872   1.213   8.357   4.535 -0.0388  0.6003  0.1303
 9064W        W24873   4.651   6.095   1.890  0.0340 -0.1006  0.0453
 9065W        W24874  13.758   6.088   2.959  0.0944  0.0809  0.0545
 9066W        W24875  12.087   6.651  14.388 -0.3835  0.0360  0.0551
 9067W        W24876  18.058  16.298  14.432 -0.0524 -0.1071  0.2682
 9068W        W24877   9.517  16.166   5.164 -0.0294 -0.4322  0.1598
 9069W        W24878   6.851   1.136   1.670 -0.1236 -0.1307 -0.1599
 9070W        W24879  13.860   5.830   1.000 -0.0499  0.4925  0.2289
 9071W        W24880   9.291  11.708   4.032 -0.0372 -0.0581 -0.0517
 9072W        W24881   0.330   6.432   6.615  0.1651 -0.1339 -0.1617
 9073W        W24882   5.421  10.483  13.239 -0.1380 -0.4193 -0.2211
 9074W        W24883  18.362  15.900   3.108  0.1167 -0.0316  0.2059
 9075W        W24884   0.892   0.859  14.321  0.1197  0.1573  0.1514
 9076W        W24885  16.294  15.135   3.634  0.0500 -0.1773 -0.0764
 9077W        W24886   4.186   1.797   4.039  0.0709  0.1402  0.0257
 9078W        W24887  15.495  17.374  15.473 -0.2987  0.2134 -0.0447
 9079W        W24888  10.947   2.092  12.347 -0.1515 -0.1219 -0.4436
 9080W        W24889   1.598  16.847   1.381 -0.1190 -0.0334 -0.1308
 9081W        W24890   6.707  17.098  13.051  0.0216  0.0380  0.3652
 9082W        W24891  15.374   4.921   3.666 -0.0855 -0.0475 -0.0363
 9083W        W24892  16.766  17.763  14.383  0.0011 -0.1627 -0.1721
 9084W        W24893   1.330  14.348   1.093  0.1404 -0.1200  0.2881
 9085W        W24894  17.550  10.370  11.462  0.1924 -0.1813  0.1855
 9086W        W24895   5.547  15.368   4.806 -0.0317  0.2000  0.1439
 9087W        W24896   1.398  10.072   4.595  0.1335 -0.1094 -0.3537
 9088W        W24897   6.475   8.503  10.784 -0.1904  0.3102  0.0403
 9089W        W24898   3.169  17.505  13.660 -0.0841 -0.1151  0.0862
 9090W        W24899  16.163  10.760   3.002  0.2018 -0.0153  0.0678
 9091W        W24900   1.345  18.016  11.386 -0.3579 -0.2428 -0.0280
 9092W        W24901   0.658  10.877  10.897 -0.0560 -0.2287  0.0245
 9093W        W24902   0.732   7.722   3.676  0.1493 -0.0671  0.1293
 9094W        W24903  14.252   8.580  14.351  0.2761  0.0217  0.0307
 9095W        W24904  10.087   7.584  10.643 -0.1273 -0.1991  0.0340
 9096W        W24905   4.527   8.951  13.959 -0.0133 -0.3575 -0.1574
 9097W        W24906  12.699   4.821   1.172 -0.2528 -0.1965 -0.1959
 9098W        W24907  12.500   3.577  13.471 -0.0406  0.0040 -0.0731
 9099W        W24908  13.716  11.567   4.580  0.0038 -0.0074  0.0303
 9100W        W24909  18.331   8.491   2.392 -0.0209 -0.3075  0.2166
 9101W        W24910   3.401   7.542  15.172 -0.0077  0.0279  0.1417
 9102W        W24911  12.599   7.148  14.774 -0.4422  0.1001 -0.1583
 9103W        W24912  12.140  13.966   0.231 -0.1954 -0.0920  0.1418
 9104W        W24913   8.219   5.504   1.195 -0.4650 -0.1061  0.0311
 9105W        W24914   7.824  18.114   3.407  0.0332 -0.2054  0.2043
 9106W        W24915   5.132  18.274   5.781  0.2726  0.0403  0.0086
 9107W        W24916   6.593   0.131  12.964  0.0007 -0.0735 -0.0207
 9108W        W24917   4.650   3.249   1.626 -0.2276  0.5715 -0.3487
 9109W        W24918  12.216  10.125  14.472 -0.0940  0.0747 -0.3445
 9110W        W24919   8.913   3.184   3.466 -0.0180  0.1249 -0.0104
 9111W        W24920   3.569   4.160  11.115  0.3144 -0.1888 -0.1979
 9112W        W24921  11.896  16.077   1.624  0.0490  0.0571  0.0407
 9113W        W24922  16.714   5.037   4.752  0.1859  0.0587  0.0528
 9114W        W24923  12.804  13.023   2.891  0.1849 -0.2904 -0.0427
 9115W        W24924  10.037   1.060   1.574 -0.1510 -0.2588  0.0262
 9116W        W24925  17.015  12.172   1.095 -0.0833  0.0175 -0.1151
 9117W        W24926  16.833   1.380  14.497 -0.0660 -0.0105 -0.1223
 9118W        W24927   3.020   5.378   1.170 -0.0340 -0.3222  0.4348
 9119W        W24928  15.881   8.910   4.314 -0.1752 -0.1309  0.2458
 9120W        W24929   2.426   4.300  11.183 -0.1951  0.1273 -0.3069
 9121W        W24930   1.686   0.890   3.969 -0.5764 -0.1319 -0.0452
 9122W        W24931   4.462   9.282   0.301 -0.2136 -0.2543 -0.0435
 9123W        W24932   7.291   2.387  12.154  0.4347 -0.0715  0.1165
 9124W        W24933   5.589   6.058   0.701 -0.3343  0.1517  0.2930
 9125W        W24934  10.231   5.022  13.031 -0.1528  0.2276  0.1464
 9126W        W24935  17.459  16.856   2.694  0.0933 -0.1795  0.1402
 9127W        W24936  13.318   4.620  15.037  0.0522  0.0072 -0.1764
 9128W        W24937  13.310   5.837   9.617 -0.0136 -0.1313  0.1111
 9129W        W24938  12.603  14.687   1.059 -0.1137  0.1289  0.1226
 9130W        W24939   2.596   4.692  14.952 -0.1192  0.0986 -0.1199
 9131W        W24940   7.613   8.903   2.151  0.0585 -0.1141  0.2483
 9132W        W24941   4.809   7.134  11.317  0.1721 -0.3806 -0.2354
 9133W        W24942   2.739  12.290   3.871 -0.1228  0.1323  0.2489
 9134W        W24943   4.113  11.542  14.724  0.0476  0.2604  0.1664
 9135W        W24944  17.412  13.877  13.659  0.0163  0.2678 -0.2464
 9136W        W24945   5.729  16.698   3.783 -0.2099 -0.0404 -0.2081
 9137W        W24946  13.467   4.883  13.081 -0.1345 -0.2785 -0.0900
 9138W        W24947  11.300  14.601  15.319 -0.2433  0.1156 -0.1979
 9139W        W24948   0.859  12.187   2.641  0.1487  0.2177  0.0562
 9140W        W24949  11.449  16.341   1.791  0.1568 -0.1146 -0.1012
 9141W        W24950  17.890  18.437   0.077 -0.0445  0.2557 -0.1049
 9142W        W24951   6.440  15.901  12.324  0.1101 -0.1296  0.1233
 9143W        W24952  13.705   9.068   0.599 -0.1613 -0.0489  0.1715
 9144W        W24953  12.437  12.014   0.487  0.3558  0.0656 -0.0443
 9145W        W24954   7.223   0.936   4.701 -0.1259  0.2214  0.2800
 9146W        W24955  18.210  10.119   4.413 -0.3536  0.3187 -0.0046
 9147W        W24956  14.162  10.274   2.340 -0.2187 -0.0574 -0.2391
 9148W        W24957   4.062   7.163  13.591 -0.1425  0.1848  0.1985
 9149W        W24958   6.645  13.681  15.017 -0.0593  0.0648  0.0439
 9150W        W24959  16.723   0.339   0.390  0.2723  0.1220 -0.1594
 9151W        W24960   9.361   7.036   0.267 -0.2189 -0.0422  0.1418
 9152W        W24961  17.474  14.471   0.145 -0.0296 -0.1937  0.1251
 9153W        W24962  15.090  10.766   2.225 -0.0777  0.1824  0.4868
 9154W        W24963  10.737   9.931   4.633  0.2225 -0.1396  0.0774
 9155W        W24964   8.215   6.087   4.829  0.2340 -0.0007  0.0661
 9156W        W24965  11.346   7.991   0.979 -0.2551 -0.0914 -0.0808
 9157W        W24966   3.500   3.157   4.309  0.0112 -0.1221  0.0158
 9158W        W24967  13.746   5.589  13.766 -0.0121  0.3035 -0.0419
 9159W        W24968  11.336  11.595   0.897  0.3275  0.4480 -0.1419
 9160W        W24969  15.001   8.481   9.712 -0.0624 -0.1120 -0.1034
 9161W        W24970   5.125   8.752   1.124  0.2018  0.2709 -0.3331
 9162W        W24971   6.466   2.380  10.482 -0.0701  0.0154 -0.0844
 9163W        W24972   0.413   9.017   5.750  0.0080 -0.1448  0.0638
 9164W        W24973   7.277   1.107  15.709 -0.1671 -0.0447 -0.0912
 9165W        W24974  16.712  14.873   5.908 -0.2041 -0.0503  0.1352
 9166W        W24975   7.503   7.303   1.785 -0.1356  0.0111 -0.0393
 9167W        W24976  15.843  12.090   0.238 -0.0972 -0.1974  0.1887
 9168W        W24977   4.199  15.032   2.741 -0.2043 -0.0735  0.2606
 9169W        W24978  10.094   9.796   0.448 -0.2206 -0.0552  0.0279
 9170W        W24979   0.506  13.607   1.232 -0.1746  0.0352  0.1141
 9171W        W24980  12.258   0.365   2.615  0.4149 -0.3684  0.3934
 9172W        W24981  13.967  14.160  14.847  0.3053 -0.4986 -0.0788
 9173W        W24982   7.245  14.654   5.258  0.5134  0.0113  0.0253
 9174W        W24983  12.894  16.776   2.353 -0.2994 -0.0678 -0.0359
 9175W        W24984  15.408   1.787   1.635 -0.1281 -0.0475 -0.3737
 9176W        W24985   3.018   4.091  12.259  0.1885  0.0871  0.1424
 9177W        W24986  13.726  16.561  15.454  0.0467  0.3475 -0.0689
 9178W        W24987  12.951  13.279   0.248  0.2328 -0.1946 -0.2877
 9179W        W24988  18.255   7.189  14.140  0.1267 -0.1876 -0.1875
 9180W        W24989   6.249  14.453  15.422  0.0778 -0.0200 -0.2090
 9181W        W24990   5.136   0.368   0.870 -0.2127 -0.0780  0.1174
 9182W        W24991   8.240   2.556   2.034 -0.0020 -0.3078  0.2025
 9183W        W24992  11.595  14.932  11.950  0.0785 -0.3191 -0.1586
 9184W        W24993   2.206  18.213  13.659  0.2317 -0.2590  0.0784
 9185W        W24994   4.062   7.299   2.889 -0.2220  0.1292 -0.0437
 9186W        W24995   9.349   4.974  10.697 -0.1029 -0.0626  0.0343
 9187W        W24996   1.170   1.696  13.271  0.0546 -0.4793  0.0922
 9188W        W24997  18.169  10.084  15.011 -0.4577 -0.0027 -0.2350
 9189W        W24998   0.811   3.330   3.886  0.1152  0.1588  0.4821
 9190W        W24999  10.488   3.058  11.957  0.1094 -0.0860 -0.0690
 9191W        W25000  11.999   5.691  14.442 -0.2815 -0.0032  0.3713
 9192W        W25001  12.174  15.040  13.327 -0.1022  0.0360  0.0193
 9193W        W25002   9.850   1.988   2.918  0.4055 -0.2305  0.0613
 9194W        W25003  14.195   1.527  11.234  0.2169  0.2467 -0.0028
 9195W        W25004   9.622  17.996   1.727  0.1904  0.0679 -0.0941
 9196W        W25005   6.404   1.422   4.530 -0.4447  0.3464 -0.0811
 9197W        W25006  15.495   8.378  14.208 -0.0882 -0.0683 -0.0101
 9198W        W25007   4.621   1.629   0.599  0.2303 -0.3866 -0.0462
 9199W        W25008   9.545   0.797   0.806 -0.2751  0.2402 -0.1317
 9200W        W25009   9.051  12.366   1.616 -0.0030 -0.0350 -0.1370
 9201W        W25010   9.922   7.362   4.979 -0.2253  0.2542 -0.0714
 9202W        W25011  14.458  11.460   3.127 -0.0722  0.0081  0.2555
 9203W        W25012  10.915  10.890   1.340 -0.0135 -0.1815 -0.1799
 9204W        W25013  13.739   5.227   0.087  0.4356  0.1019  0.0364
 9205W        W25014   2.937  17.464   0.995 -0.0047  0.0164  0.2831
 9206W        W25015   0.275   5.317   2.156  0.0517 -0.1449 -0.0524
 9207W        W25016   3.964  13.309  15.250  0.1542  0.2764 -0.2600
 9208W        W25017  15.516   1.889  10.794 -0.2089 -0.0725  0.1607
 9209W        W25018   1.160  10.044  12.485 -0.1946 -0.0279 -0.0583
 9210W        W25019   6.643   6.255  14.613 -0.0142  0.0286  0.2878
 9211W        W25020   2.890   8.206   1.853  0.2992 -0.1176 -0.1159
 9212W        W25021   6.784  13.733  10.774  0.1255 -0.0522 -0.1938
 9213W        W25022  17.497  10.147  14.772 -0.0413  0.3439 -0.1058
 9214W        W25023   2.674  13.156   9.800  0.0481 -0.1150 -0.1101
 9215W        W25024   7.226   6.969   1.485  0.0486  0.0969 -0.1293
 9216W        W25025   8.381  16.977  14.437 -0.1898 -0.0749  0.2324
 9217W        W25026  17.871   5.290   6.191  0.0418  0.3531  0.0978
 9218W        W25027   8.924   9.720  13.298 -0.1859 -0.1688  0.0419
 9219W        W25028   2.243   2.888  14.074  0.2117 -0.1103  0.1163
 9220W        W25029  17.816  12.152   5.476 -0.1505  0.0346  0.2539
 9221W        W25030  12.334  15.739   1.687  0.1968  0.1092  0.0507
 9222W        W25031  14.936   1.810   4.409  0.1698  0.0327 -0.2810
 9223W        W25032   9.737  13.174  14.088  0.2545 -0.2258 -0.1137
 9224W        W25033   4.848   7.589  11.048  0.1683 -0.0289 -0.1638
 9225W        W25034   1.768   1.770   4.862  0.1226  0.2269 -0.0261
 9226W        W25035  13.482  15.318  10.616 -0.0702  0.1128  0.0827
 9227W        W25036   6.179  17.537   3.995  0.2011 -0.1651  0.0182
 9228W        W25037  11.797   7.795  12.649  0.2057  0.1673  0.2312
 9229W        W25038   4.581  11.818  12.138  0.2279  0.1881 -0.0536
 9230W        W25039  16.943   4.756   5.128  0.1296  0.0997 -0.0272
 9231W        W25040  16.689   7.773   2.552 -0.0161  0.0798 -0.1779
 9232W        W25041  12.508   6.666   3.452 -0.0117 -0.2540 -0.0105
 9233W        W25042  12.821  15.769  14.684 -0.2216 -0.0499  0.0584
 9234W        W25043  15.837   0.430  13.273  0.0619  0.1039 -0.2094
 9235W        W25044   3.200   8.577  12.719 -0.2389 -0.0041  0.1309
 9236W        W25045   9.115  17.491   1.195  0.0837  0.0729 -0.0544
 9237W        W25046   2.995   5.998  15.542 -0.0135  0.0302  0.0797
 9238W        W25047  16.970  14.085   4.993 -0.2069 -0.1128  0.1333
 9239W        W25048  16.990   7.325  11.272 -0.1314  0.1538 -0.2326
 9240W        W25049   5.727   5.419   2.487  0.1326  0.1103  0.0017
 9241W        W25050   2.626   5.738   1.166 -0.2812  0.0565 -0.2322
 9242W        W25051  10.505   8.687   3.546 -0.1958  0.1360 -0.2836
 9243W        W25052   6.472  13.766  15.814  0.0563 -0.3008  0.0324
 9244W        W25053  12.363  10.454   3.545  0.3616 -0.0302  0.4775
 9245W        W25054   6.603  11.848  15.187 -0.2600  0.0481  0.0309
 9246W        W25055   9.642  11.826   1.900  0.1470  0.1411  0.1968
 9247W        W25056  16.908  18.353   1.755  0.2822 -0.3908  0.0405
 9248W        W25057  13.123  16.510   4.606 -0.0240 -0.1765 -0.0143
 9249W        W25058  13.445  15.639   0.041  0.2875 -0.0398 -0.0930
 9250W        W25059  10.137  13.077  11.352  0.1545  0.2352 -0.1158
 9251W        W25060   2.803  12.669   3.165  0.1979 -0.0108  0.1827
 9252W        W25061  13.355  13.228  13.299  0.0253  0.0407 -0.0864
 9253W        W25062  13.795   0.785  13.367  0.0187 -0.1275  0.1113
 9254W        W25063  14.009   0.342   5.884 -0.1020 -0.0634  0.4104
 9255W        W25064   8.896   4.933  10.534  0.0911 -0.0280 -0.4619
 9256W        W25065  16.977  17.978  14.787 -0.0706 -0.3173 -0.1603
 9257W        W25066  16.215  11.271  12.716 -0.1782  0.1147  0.2783
 9258W        W25067  15.372  17.424  12.526  0.0565  0.0346  0.0380
 9259W        W25068  14.387  15.207  10.863  0.1744  0.2075 -0.4528
 9260W        W25069   1.012  10.929   2.097 -0.1512  0.1546  0.0894
 9261W        W25070   9.470   3.573   1.012  0.0166  0.0960  0.1008
 9262W        W25071   5.342  15.947   0.474 -0.1472 -0.0885  0.1634
 9263W        W25072  17.313   2.804   1.101  0.0148  0.3024  0.2277
 9264W        W25073  14.745  14.343   2.523  0.2821 -0.0393 -0.0270
 9265W        W25074  15.644   7.532  15.224 -0.0184 -0.1420 -0.2292
 9266W        W25075   3.662  17.589   5.100 -0.0916 -0.1409 -0.1150
 9267W        W25076  13.309   3.108  12.344 -0.0414 -0.1469 -0.2471
 9268W        W25077   2.237  12.381  12.959  0.3334  0.1687  0.1973
 9269W        W25078  13.289  11.405  14.241 -0.0665 -0.2014 -0.0166
 9270W        W25079  13.531   7.186   0.125 -0.1053 -0.0490 -0.1558
 9271W        W25080   3.187   7.161  13.045 -0.4697  0.0085 -0.0670
 9272W        W25081  14.829  11.119  11.107 -0.1088  0.0749 -0.0314
 9273W        W25082   4.802  10.666  15.680  0.2589 -0.0427 -0.0682
 9274W        W25083   2.324  15.876   3.397 -0.2036 -0.2012  0.1223
 9275W        W25084  10.099  11.815   1.035 -0.1867 -0.0581 -0.2072
 9276W        W25085  15.480  15.239  11.778  0.0008 -0.0901  0.3110
 9277W        W25086   7.598  17.249  14.749 -0.0338 -0.0760 -0.1645
 9278W        W25087  12.785   9.073  14.657 -0.1639 -0.5894  0.1247
 9279W        W25088   3.051   4.698  10.423 -0.1222 -0.1923  0.1875
 9280W        W25089  11.138  11.644   3.755  0.2748 -0.2713  0.0130
 9281W        W25090  11.883   9.597  12.867  0.1792  0.1266  0.1755
 9282W        W25091  18.214  12.379  15.629  0.1010 -0.2264  0.5179
 9283W        W25092  15.161   2.085   2.517  0.2976  0.1269  0.0684
 9284W        W25093  17.171  10.040   2.010 -0.0356 -0.1793  0.0029
 9285W        W25094  17.836  11.654  13.477  0.2589 -0.0317  0.2305
 9286W        W25095  18.449  11.341  14.394 -0.1179 -0.1785 -0.0824
 9287W        W25096   2.547   7.558  15.571 -0.0868  0.1085 -0.2281
 9288W        W25097   9.803  11.096  11.132  0.0801 -0.1352  0.2770
 9289W        W25098   4.151   7.064   5.638 -0.0373 -0.1417  0.0038
 9290W        W25099  12.748   9.929   0.001  0.1604  0.0248  0.0430
 9291W        W25100   2.366  18.224   3.935  0.1278  0.0119  0.1013
 9292W        W25101  14.051   3.903  13.889  0.1569  0.2081 -0.0286
 9293W        W25102   9.996  15.326  13.780 -0.3401 -0.1570 -0.1162
 9294W        W25103  13.048   2.320   5.874 -0.1811  0.1103  0.0011
 9295W        W25104   5.935  12.794   3.809  0.1627  0.0437  0.1608
 9296W        W25105  11.123   4.372  13.745 -0.1570  0.0452  0.3266
 9297W        W25106  16.592   8.626  14.692  0.2194  0.1094  0.0113
 9298W        W25107   1.179   8.688  12.987  0.0049 -0.0111  0.1753
 9299W        W25108   4.856   0.650   4.666 -0.0214  0.1604  0.1089
 9300W        W25109  15.553  11.562   3.046 -0.1250  0.0720 -0.0696
 9301W        W25110  10.961  16.945   2.142 -0.1253 -0.3103  0.1138
 9302W        W25111   7.022  14.715  12.110  0.0060 -0.1412 -0.0821
 9303W        W25112  16.960  17.824  13.325 -0.0231 -0.3059  0.2611
 9304W        W25113   0.686   4.373   4.376 -0.3157 -0.2717 -0.2748
 9305W        W25114   7.970   6.587  13.075  0.0143 -0.1045  0.0124
 9306W        W25115   7.298   6.511  13.747 -0.1402 -0.0726  0.1961
 9307W        W25116  15.388  11.768  13.788  0.0201 -0.1142 -0.0516
 9308W        W25117   8.954   2.393  11.385 -0.0728  0.1264 -0.2694
 9309W        W25118   9.668  16.821   3.399  0.0248 -0.0595 -0.0757
 9310W        W25119   4.349  13.050   2.745  0.1923 -0.0903  0.0182
 9311W        W25120   0.880   0.210   4.819  0.1499  0.2743  0.1021
 9312W        W25121  17.236  10.755  14.098  0.3219 -0.1314  0.1487
 9313W        W25122  12.899   2.874  10.765  0.0023 -0.1782 -0.2576
 9314W        W25123  12.595  11.152   3.033  0.0195  0.1475 -0.0173
 9315W        W25124  12.891   7.127   4.639 -0.1850  0.4003 -0.2085
 9316W        W25125   6.659  15.591   4.266  0.0921 -0.0867 -0.0710
 9317W        W25126   2.303   0.578  13.400 -0.0399  0.0025  0.1537
 9318W        W25127   0.314   0.747  12.113  0.1413 -0.0381 -0.1552
 9319W        W25128   2.319  11.148   0.957 -0.1357 -0.2729  0.0065
 9320W        W25129  13.145  13.937  14.153 -0.1471  0.0674  0.1837
 9321W        W25130  13.687  17.352  13.212 -0.1576  0.0327 -0.1896
 9322W        W25131  13.771  14.621  14.637 -0.4300  0.3101 -0.1046
 9323W        W25132  12.534  10.664  11.656  0.2199 -0.1496  0.4073
 9324W        W25133   5.307  17.035  15.756  0.1889  0.0077 -0.3869
 9325W        W25134  18.108  17.772   5.168  0.0037  0.0384 -0.1455
 9326W        W25135  15.934  12.136   4.345  0.2106  0.2997  0.2117
 9327W        W25136   0.707   5.771  15.624 -0.1171 -0.1485  0.0510
 9328W        W25137   8.470   8.456   0.118  0.0459 -0.0420  0.1052
 9329W        W25138   6.549   7.072  13.635 -0.0447  0.0388  0.0173
 9330W        W25139   2.142   7.703  14.975 -0.2201  0.0597 -0.0974
 9331W        W25140  14.369   6.418   2.257  0.1891 -0.0925 -0.1904
 9332W        W25141   0.985   0.569   4.379 -0.1316  0.3200 -0.2453
 9333W        W25142   5.962   7.844  14.653  0.1717 -0.0184  0.3161
 9334W        W25143   4.242   6.911   3.880 -0.0525 -0.2917  0.4248
 9335W        W25144   1.674  11.441  12.001 -0.0820 -0.1962  0.1124
 9336W        W25145  15.022  11.918  11.291  0.1052 -0.1892 -0.1638
 9337W        W25146   3.835   2.325   0.287 -0.1861 -0.0495  0.2077
 9338W        W25147  11.311  13.998  14.194 -0.0782  0.2313 -0.2771
 9339W        W25148   4.236   7.151  10.651  0.1017 -0.2207 -0.0733
 9340W        W25149   2.176   8.477   0.303 -0.2290  0.1171 -0.0225
 9341W        W25150   2.804   3.907  15.028 -0.0641 -0.5380 -0.1796
 9342W        W25151   8.504  12.695   2.884 -0.2426 -0.0293 -0.2207
 9343W        W25152   9.567  10.202  12.933 -0.1209  0.0964  0.1528
 9344W        W25153   1.230  16.265  13.482  0.0447  0.0707  0.2934
 9345W        W25154  11.691  15.260  14.439 -0.1632  0.6124  0.2218
 9346W        W25155  15.739  11.368  12.508 -0.1306  0.4882  0.2701
 9347W        W25156  15.363   7.721  14.283  0.0155  0.0282  0.0957
 9348W        W25157  13.845   2.743  12.911  0.0555 -0.0150 -0.3927
 9349W        W25158   9.147   5.383   2.083 -0.0776 -0.1479  0.2302
 9350W        W25159  15.985  13.148   4.761 -0.1435  0.1631  0.0157
 9351W        W25160  15.000  12.122  15.797 -0.2573 -0.1962  0.0324
 9352W        W25161   6.996   7.379   2.015  0.0611  0.4417 -0.0415
 9353W        W25162  14.058   8.863   2.037  0.0229 -0.0131  0.0948
 9354W        W25163   1.026  10.784   5.969 -0.1311  0.0409 -0.3356
 9355W        W25164  12.561   9.233  14.212  0.1201  0.1661 -0.0709
 9356W        W25165  17.437   0.456   2.491 -0.1628  0.0237  0.0750
 9357W        W25166  15.220  15.673  14.449 -0.1192  0.3220  0.0885
 9358W        W25167   1.113  15.749   2.508 -0.1696 -0.2455 -0.2193
 9359W        W25168  10.040   6.778  13.158 -0.0353  0.2255  0.0481
 9360W        W25169   3.577   4.886   4.013  0.1585  0.2228 -0.0598
 9361W        W25170   2.593   3.198   0.445 -0.0891  0.0266 -0.1144
 9362W        W25171   9.744  17.091   1.780 -0.0666 -0.1782 -0.1341
 9363W        W25172  15.516  11.901   4.135 -0.0536 -0.3164  0.0273
 9364W        W25173  12.637   8.515  15.325 -0.2846 -0.0322 -0.2436
 9365W        W25174   9.224   4.307   0.183 -0.0186 -0.1848  0.0961
 9366W        W25175   3.620  11.099   4.774  0.0764  0.1353  0.0893
 9367W        W25176  15.720   6.628  10.903  0.0033 -0.1124 -0.0036
 9368W        W25177  12.120   7.294   0.454  0.3082  0.0689 -0.0626
 9369W        W25178   0.496   4.219   5.075 -0.0820 -0.0283 -0.0652
 9370W        W25179   8.838  14.664   4.364 -0.0788  0.0027  0.0008
 9371W        W25180  11.442   3.123  12.335  0.2056 -0.1673 -0.1455
 9372W        W25181   7.729  11.580  14.704  0.0336 -0.1694 -0.0937
 9373W        W25182   6.962   8.985   5.518  0.0074  0.0638 -0.0926
 9374W        W25183   0.665   5.973  11.176 -0.0741  0.1851  0.4477
 9375W        W25184  12.127  10.443   5.993 -0.0192 -0.0273  0.1223
 9376W        W25185  13.650  15.493   1.772 -0.0664 -0.0139 -0.0364
 9377W        W25186  16.463   1.142   3.910 -0.0645 -0.2851 -0.0574
 9378W        W25187   8.846   2.387  13.931  0.1642 -0.0364 -0.1293
 9379W        W25188   9.928   4.707  14.264 -0.0459  0.0911  0.1051
 9380W        W25189   5.661  15.760  14.262 -0.3218 -0.0120  0.2611
 9381W        W25190   1.312  10.078   5.584  0.0908  0.2017  0.1187
 9382W        W25191  11.073  11.336  15.749 -0.0196 -0.1731  0.2362
 9383W        W25192  10.078  12.417   5.159 -0.0752 -0.0277 -0.1464
 9384W        W25193   8.220   0.539   4.230  0.0527  0.2770 -0.0363
 9385W        W25194  14.934   8.971   0.464 -0.3363  0.0446 -0.3181
 9386W        W25195   1.422  11.295  12.901 -0.2395  0.1117  0.5083
 9387W        W25196  13.160   9.332   2.216 -0.3071 -0.1909 -0.0804
 9388W        W25197  13.374   1.126   4.286  0.0317  0.2030  0.2088
 9389W        W25198   2.946   5.918   4.432  0.1244  0.0341  0.2498
 9390W        W25199  15.505  13.959  11.040 -0.2583 -0.0499 -0.1246
 9391W        W25200  13.233   6.922   3.367  0.0798 -0.1333 -0.1396
 9392W        W25201  10.118  10.498  13.630  0.1870  0.0344 -0.1574
 9393W        W25202   0.870  13.947  12.947 -0.0092  0.0830  0.1010
 9394W        W25203   0.596   4.597  15.089  0.1934 -0.2183  0.0178
 9395W        W25204   3.337   6.335   1.659  0.2561 -0.1201  0.0033
 9396W        W25205  12.583  16.660   1.917 -0.0257 -0.1279 -0.1201
 9397W        W25206  15.076   0.587  15.847 -0.2312 -0.0521 -0.0135
 9398W        W25207   1.928  14.415   0.022  0.1674  0.1063 -0.1472
 9399W        W25208   9.418  17.503   1.646  0.0628 -0.1041  0.2034
 9400W        W25209  12.398   0.273  15.563  0.1155  0.1418 -0.3305
 9401W        W25210  16.033   8.741  12.894  0.2069 -0.0216 -0.1045
 9402W        W25211   0.287  17.845  11.174 -0.0977 -0.0731  0.2605
 9403W        W25212  13.324  17.361  12.859  0.0568  0.0927  0.0955
 9404W        W25213   9.598   5.500  13.722  0.4671  0.1163  0.3397
 9405W        W25214   9.077   1.902  11.116  0.0862  0.1466  0.1128
 9406W        W25215   3.689  10.386   4.186 -0.0154 -0.3578  0.0879
 9407W        W25216   3.849   1.734  12.857  0.0342 -0.2120  0.0117
 9408W        W25217   2.312   8.114   1.707 -0.1783 -0.1275  0.2620
 9409W        W25218   1.697  12.383   0.431  0.0245  0.1559  0.0405
 9410W        W25219  13.947   1.900  13.515  0.1368  0.3554 -0.1684
 9411W        W25220   8.739   8.592   4.753 -0.0388  0.2341 -0.0544
 9412W        W25221  16.781  12.486   1.919 -0.3766 -0.1832  0.1787
 9413W        W25222   6.390  17.779  15.169  0.0552  0.0390  0.3212
 9414W        W25223   7.016   3.444  14.233  0.1166 -0.1177  0.0711
 9415W        W25224  12.960   2.921  12.825 -0.1996 -0.0765  0.1395
 9416W        W25225   6.876   3.611   1.063 -0.0064 -0.0356 -0.0461
 9417W        W25226   0.539   8.304   5.002 -0.0994 -0.0108  0.1236
 9418W        W25227  13.691  13.177  12.885  0.3204 -0.0138  0.0626
 9419W        W25228   0.033   1.604  12.078 -0.1543 -0.2013 -0.0387
 9420W        W25229  18.281   0.764   4.266  0.0263 -0.1068 -0.2873
 9421W        W25230  18.093   2.089   4.283 -0.1869 -0.1552  0.2909
 9422W        W25231  16.329   9.224   3.099 -0.0320 -0.0666  0.0393
 9423W        W25232  10.377  16.635  13.795  0.4101 -0.1648  0.0630
 9424W        W25233   9.303   4.779   1.696  0.0986 -0.2075  0.1702
 9425W        W25234   6.308  12.575  14.686  0.0942  0.1055 -0.0948
 9426W        W25235  17.115   7.638   4.888 -0.3029 -0.0458  0.0302
 9427W        W25236   7.527  15.266   3.007  0.2575 -0.3652 -0.2290
 9428W        W25237   3.137   5.548   0.692 -0.1544 -0.1915  0.0268
 9429W        W25238   3.771   4.263   1.234 -0.0072  0.2529  0.2698
 9430W        W25239  15.763  14.890  13.805 -0.0398 -0.1234 -0.0466
 9431W        W25240   7.801  17.447   0.245 -0.0901 -0.1554  0.0936
 9432W        W25241  12.654  17.650   0.195  0.0450 -0.0864  0.0293
 9433W        W25242  13.467   0.391   1.266  0.2309 -0.1016  0.1638
 9434W        W25243   5.445   6.590  11.865 -0.0369  0.0337  0.0169
 9435W        W25244   1.664  18.323   3.677 -0.0694  0.0797 -0.1985
 9436W        W25245   0.683   4.242   5.578 -0.2277  0.1052 -0.1001
 9437W        W25246   4.137   7.723   3.218 -0.2150 -0.0413  0.4361
 9438W        W25247   2.902  14.995  11.142 -0.0353  0.1962 -0.0753
 9439W        W25248   8.788   3.672  15.011 -0.3786  0.0785  0.1824
 9440W        W25249   9.827   1.945   2.444 -0.4147 -0.1844 -0.1193
 9441W        W25250   4.430  16.690   1.738  0.0693  0.2855  0.1555
 9442W        W25251  11.887  16.418  13.711 -0.1259  0.2042 -0.4347
 9443W        W25252  15.228  12.803  10.219 -0.3525  0.1684  0.2956
 9444W        W25253   0.100  11.183   0.851 -0.0773 -0.1564  0.1512
 9445W        W25254  11.864  14.880   1.914 -0.0138  0.0099 -0.0919
 9446W        W25255  17.056  17.831   1.793 -0.0140  0.2636  0.0974
 9447W        W25256  14.909   1.726   1.711 -0.2070  0.0816  0.0986
 9448W        W25257   1.660   4.593  12.549  0.0482  0.2061  0.1900
 9449W        W25258   8.386   6.940  12.678  0.2350  0.1979 -0.0832
 9450W        W25259   2.961   4.083   1.229  0.0336 -0.0921 -0.2377
 9451W        W25260  15.024   3.981  14.298 -0.2592  0.1872  0.0569
 9452W        W25261   4.488  13.931   3.049  0.2443 -0.0658 -0.5006
 9453W        W25262   0.499  13.845   2.759 -0.2524 -0.0874  0.0650
 9454W        W25263   5.786  15.706   4.537  0.1565 -0.1785 -0.0576
 9455W        W25264   2.453   4.937  13.034  0.2882  0.2577 -0.1026
 9456W        W25265   3.620   1.200   4.283  0.0225 -0.1852  0.2120
 9457W        W25266  10.824  13.397  11.299  0.1138 -0.1144  0.0591
 9458W        W25267   4.719   6.040   3.781 -0.1723  0.0207 -0.0386
 9459W        W25268  15.909   2.621  12.653  0.0753 -0.1793 -0.0501
 9460W        W25269  17.823   3.833   2.589 -0.3691  0.1637  0.2786
 9461W        W25270   6.670  12.329   6.004 -0.0551  0.1507  0.1558
 9462W        W25271  17.068   4.753  11.021  0.1166 -0.0480 -0.0917
 9463W        W25272  11.107  17.458   3.152 -0.3664  0.0717 -0.1571
 9464W        W25273  15.676  18.252   4.460  0.1169  0.4480  0.2734
 9465W        W25274   9.423   2.089   2.111  0.0664  0.4264 -0.0210
 9466W        W25275   2.105   1.417   3.446 -0.0456 -0.0191  0.0048
 9467W        W25276  14.064   8.467  12.530  0.0539  0.1340 -0.3825
 9468W        W25277   3.580   9.089  15.758  0.2874 -0.1564 -0.0626
 9469W        W25278  13.266   0.434  13.995 -0.1691  0.1156  0.2394
 9470W        W25279   0.271   7.689  14.847  0.1543 -0.0905 -0.1024
 9471W        W25280   0.544   7.597   5.610  0.2519 -0.1587 -0.2069
 9472W        W25281  12.862   0.311   2.537  0.2216  0.1364  0.0149
 9473W        W25282  11.206  11.743   2.208 -0.1904 -0.0334  0.2221
 9474W        W25283   6.156  15.490   4.186 -0.0632 -0.1560  0.1494
 9475W        W25284   2.819   1.587  12.916  0.0888  0.0363 -0.0135
 9476W        W25285  14.188  11.155   0.354  0.1027 -0.1199 -0.0659
 9477W        W25286   6.423  10.397   1.293 -0.0254  0.3022 -0.1374
 9478W        W25287   4.588  12.704   2.400 -0.0473  0.0564  0.1690
 9479W        W25288   0.294  12.693   1.764  0.1661 -0.3798 -0.3928
 9480W        W25289  16.768   8.828   1.922  0.2202 -0.2871  0.0090
 9481W        W25290   6.910  16.233  13.463  0.1264  0.1897 -0.0980
 9482W        W25291  18.213   3.425  15.247  0.0605 -0.1705 -0.0724
 9483W        W25292  12.891  10.220   1.261  0.0290 -0.1480  0.1127
 9484W        W25293  12.691   9.456  15.124  0.0312 -0.2606  0.2871
 9485W        W25294  10.844   3.385  15.674 -0.0467 -0.3843 -0.2471
 9486W        W25295   6.337  10.978  15.580  0.1166 -0.3638  0.2593
 9487W        W25296   6.986  18.341   1.083  0.1178 -0.2275 -0.0105
 9488W        W25297  13.661   7.792   1.344 -0.0323  0.1516 -0.0711
 9489W        W25298  14.782  10.412   4.961  0.0013  0.2001  0.2858
 9490W        W25299  11.697   8.699   2.323 -0.1459 -0.0770 -0.0575
 9491W        W25300   2.152   1.119   3.853 -0.0936 -0.1325  0.2003
 9492W        W25301   4.275  18.008   0.436  0.2329 -0.1074  0.0091
 9493W        W25302  10.597  11.257   1.583  0.2098 -0.2902 -0.1904
 9494W        W25303  15.034   2.373   1.038  0.0001 -0.0069  0.1535
 9495W        W25304  13.469  13.636  15.485 -0.2240  0.4131  0.2271
 9496W        W25305   7.960  15.211   4.510  0.1883 -0.0990  0.3259
 9497W        W25306   4.496  17.151   0.673 -0.3367 -0.0415 -0.1886
 9498W        W25307   9.248   3.247   1.449  0.1692 -0.1933 -0.1052
 9499W        W25308   9.236   0.541  13.199  0.1643  0.2273  0.1460
 9500W        W25309   6.871  10.498   6.036 -0.0741 -0.0680 -0.0059
 9501W        W25310  15.995   4.215   2.813  0.0904 -0.0338  0.1475
 9502W        W25311  15.198  15.788   4.514 -0.1579 -0.0335 -0.0227
 9503W        W25312  13.032   1.405  15.589 -0.1279  0.1288  0.2286
 9504W        W25313  18.368   0.183  14.736 -0.1228  0.2434 -0.0181
 9505W        W25314   1.992  13.813   1.470  0.2134 -0.3181  0.4414
 9506W        W25315   3.285  17.158  12.446 -0.0737 -0.0408  0.0968
 9507W        W25316  18.237   0.010   2.183 -0.0361 -0.0474  0.1685
 9508W        W25317   1.630   6.324   1.495 -0.1832 -0.2224  0.2385
 9509W        W25318   8.240   9.753  14.547 -0.0255 -0.0063 -0.4100
 9510W        W25319   2.420   6.230   5.624  0.0485  0.0220 -0.1249
 9511W        W25320   0.531  15.971   3.650 -0.3187  0.1385  0.0342
 9512W        W25321   3.568  13.121   4.228 -0.2532 -0.0117 -0.0394
 9513W        W25322   5.184   8.518  15.532  0.2067  0.1838 -0.0864
 9514W        W25323   9.304   7.910   0.078 -0.1372 -0.2420 -0.1448
 9515W        W25324   8.457   3.382   3.545 -0.1563 -0.3146  0.1083
 9516W        W25325  11.682   4.427   0.550  0.0431  0.1597 -0.1053
 9517W        W25326  18.120   3.706  11.547  0.2170  0.1940  0.0659
 9518W        W25327   9.914   5.121   4.048 -0.3564 -0.0740 -0.0673
 9519W        W25328  14.367   0.279   1.626 -0.0222  0.2249 -0.1900
 9520W        W25329   9.528  15.650  13.781 -0.1596  0.0072  0.1270
 9521W        W25330  10.721   5.763   0.201  0.1609  0.0180 -0.0685
 9522W        W25331  11.363   3.398  11.904 -0.0751 -0.1676  0.2316
 9523W        W25332   0.967   9.456  15.367 -0.1130 -0.1736  0.4479
 9524W        W25333   0.721   6.254  15.366  0.1522 -0.1200  0.0106
 9525W        W25334   9.010  14.151   3.071 -0.3917  0.0018 -0.0794
 9526W        W25335  14.484  10.341   0.538 -0.2175  0.1054 -0.0573
 9527W        W25336   9.838   9.680   3.065  0.2415 -0.1026  0.0752
 9528W        W25337   1.018   4.257   1.397  0.2125  0.2775  0.0581
 9529W        W25338   0.519   6.369  13.667  0.1339 -0.2233 -0.3229
 9530W        W25339   0.934  15.858   2.979  0.1102 -0.1580  0.2113
 9531W        W25340  14.809  10.244  11.699  0.1442 -0.2295  0.1616
 9532W        W25341  17.212  14.133   2.185  0.0056  0.1784 -0.1134
 9533W        W25342  16.040  14.677   0.554 -0.1406  0.1640  0.1862
 9534W        W25343  15.358  14.971  10.902  0.2392 -0.2826  0.0766
 9535W        W25344   4.379   5.812  13.894  0.0421 -0.0708  0.1240
 9536W        W25345   2.953  17.622  11.746 -0.1175  0.0135 -0.0496
 9537W        W25346   2.836   4.336  14.705 -0.1140 -0.2818 -0.1611
 9538W        W25347   8.458  18.174   1.432  0.0451 -0.2354 -0.1715
 9539W        W25348  18.398  16.718  13.666  0.2706  0.1107  0.1317
 9540W        W25349   8.464   1.356  13.186 -0.0339 -0.0722 -0.2545
 9541W        W25350   1.568  10.607  14.198 -0.0425 -0.1662  0.1193
 9542W        W25351   1.185   9.547   0.507  0.0548  0.4231 -0.2582
 9543W        W25352   3.033  12.665   3.646  0.1473  0.0264 -0.1585
 9544W        W25353  17.197  11.725   2.514 -0.0120  0.0586  0.0480
 9545W        W25354  13.836   2.156   3.203 -0.0629 -0.0810 -0.0161
 9546W        W25355  13.688   7.870   0.041  0.2191  0.0408 -0.0041
 9547W        W25356   6.083   4.662  14.987  0.2178 -0.1512 -0.3175
 9548W        W25357   6.013  11.605   3.363 -0.1479 -0.2988  0.2448
 9549W        W25358   6.044  10.669   1.718  0.0516  0.1493 -0.0233
 9550W        W25359  16.319   8.181   4.501 -0.3331 -0.2060 -0.2022
 9551W        W25360  14.672   4.787  12.230  0.2834 -0.2236  0.0968
 9552W        W25361   6.272  18.079  15.586 -0.1043 -0.2894 -0.4227
 9553W        W25362  18.459  17.979   4.819 -0.0148 -0.0223 -0.1416
 9554W        W25363  15.688   5.686  14.725 -0.0513 -0.0603 -0.0886
 9555W        W25364  13.934  18.011   2.207  0.1428  0.0530 -0.1776
 9556W        W25365  17.880  11.836   0.840  0.1477 -0.0774  0.1004
 9557W        W25366   7.845   1.586  15.166 -0.0447  0.1014 -0.2197
 9558W        W25367  11.969   4.454   1.436  0.2387 -0.3196  0.0986
 9559W        W25368  11.824  15.399   1.766  0.0732  0.4419  0.1900
 9560W        W25369  16.823   2.861   4.158  0.3037 -0.1346 -0.0959
 9561W        W25370  12.409  14.909  10.799 -0.1627 -0.2736  0.1669
 9562W        W25371  12.209   4.762  12.419  0.0675 -0.4693  0.1611
 9563W        W25372  16.874   6.944   4.351  0.1218  0.0758 -0.0416
 9564W        W25373   2.112  16.883   2.215 -0.1204 -0.0317 -0.1158
 9565W        W25374   7.858   7.420  10.138  0.4479 -0.0566 -0.0038
 9566W        W25375   4.549  13.705  15.838 -0.3467 -0.0602  0.0409
 9567W        W25376  12.215  14.691  15.366 -0.1349  0.2808 -0.0452
 9568W        W25377   6.211  16.145  11.892  0.0534 -0.0980  0.2716
 9569W        W25378   9.403   3.161   4.728 -0.1577 -0.2573  0.1096
 9570W        W25379   4.946   3.603  11.674  0.0667 -0.0100  0.0891
 9571W        W25380   7.798   6.659   4.574 -0.3541  0.0296 -0.2202
 9572W        W25381  12.844   2.973   4.383  0.1217 -0.0279 -0.1638
 9573W        W25382   3.840  16.800  13.924  0.0921 -0.2130 -0.0136
 9574W        W25383   2.099  12.061   5.705 -0.3494 -0.1388 -0.0344
 9575W        W25384   4.510  12.988  14.723 -0.2335 -0.0806 -0.1410
 9576W        W25385  13.038   8.617  15.582  0.2422  0.0835  0.1260
 9577W        W25386  14.728   5.374  13.410  0.2900 -0.1997  0.1828
 9578W        W25387   5.493  17.309  13.238  0.1125 -0.3578 -0.1610
 9579W        W25388   3.440  14.345  15.024 -0.0520 -0.1605 -0.1163
 9580W        W25389   1.008  12.258  14.229  0.2234 -0.3005  0.2452
 9581W        W25390   3.341   3.470  11.738 -0.1597  0.2405 -0.3139
 9582W        W25391  12.363   7.142  11.896 -0.0517  0.0784  0.0572
 9583W        W25392   8.441   4.379   2.004  0.0479  0.0319 -0.0529
 9584W        W25393   7.153   9.786  14.095 -0.0289 -0.2938 -0.1329
 9585W        W25394   3.064  12.996  14.233 -0.1825 -0.0627 -0.0742
 9586W        W25395   7.086   8.705  12.029  0.0837 -0.4918  0.6049
 9587W        W25396   9.980  11.943   4.438 -0.2302 -0.0278  0.1242
 9588W        W25397  10.102  13.393   2.736 -0.1111 -0.3099  0.0351
 9589W        W25398  15.665   1.095  15.201  0.0899 -0.0882 -0.0399
 9590W        W25399   9.175   9.174  11.089  0.1254  0.1958 -0.0007
 9591W        W25400   9.931  12.723  14.237 -0.0479  0.0521 -0.0092
 9592W        W25401   5.996   2.774   3.212  0.0216 -0.1671  0.1336
 9593W        W25402  16.680  10.195   0.193 -0.4191 -0.1610 -0.0482
 9594W        W25403  12.818  15.343   5.293 -0.2284  0.0550 -0.3543
 9595W        W25404   4.229   6.819   4.540 -0.0472  0.0237  0.1161
 9596W        W25405  15.317   7.902   0.173  0.3178  0.0622  0.1517
 9597W        W25406   4.503  11.824   3.479 -0.0049 -0.1158  0.2279
 9598W        W25407   4.809  17.186   2.487  0.4223 -0.0265 -0.1111
 9599W        W25408  18.134   7.866   5.655 -0.2485  0.0241 -0.0988
 9600W        W25409   8.867  14.501  11.229  0.3079  0.0780 -0.1016
 9601W        W25410   6.090   0.279   1.274 -0.2687 -0.2236  0.1548
 9602W        W25411   1.116  11.433   0.410  0.0511 -0.2219 -0.2704
 9603W        W25412   0.249   2.731  12.120 -0.1663 -0.1449  0.1334
 9604W        W25413   5.840   4.516  12.748 -0.0950 -0.3583  0.2590
 9605W        W25414  14.103  16.767  14.603  0.0430  0.2728 -0.1538
 9606W        W25415  11.273  14.325   0.538 -0.0277 -0.1420 -0.2152
 9607W        W25416  15.844   2.196  12.378  0.0001  0.2234 -0.0782
 9608W        W25417   2.274   2.777   5.529  0.2048  0.0814  0.2390
 9609W        W25418  11.957   8.393   2.030  0.0640  0.3779  0.2724
 9610W        W25419  12.409   8.476  14.353 -0.1914 -0.0748 -0.1212
 9611W        W25420  18.077  11.248  15.387  0.0049 -0.2873 -0.1288
 9612W        W25421   2.327  13.625  11.169 -0.2276 -0.1050  0.2310
 9613W        W25422  14.432   6.875  13.815 -0.1743 -0.0935 -0.2144
 9614W        W25423   8.737  11.800  15.550  0.0297 -0.1071 -0.0333
 9615W        W25424   0.089  15.626  11.234  0.1368 -0.0152  0.0420
 9616W        W25425  17.950   4.645  10.686  0.1132  0.3051 -0.0545
 9617W        W25426   4.103  13.958   4.691 -0.0005  0.0247 -0.2300
 9618W        W25427   7.415  14.093   2.869  0.2299  0.0314  0.0194
 9619W        W25428   2.267   3.437   1.314  0.2821  0.2850 -0.1065
 9620W        W25429   7.389   2.382  14.569 -0.2406  0.3915 -0.0755
 9621W        W25430   8.895  16.921   1.847  0.2290 -0.0275  0.2392
 9622W        W25431   7.188   3.181  12.560  0.2143  0.1619 -0.0128
 9623W        W25432   0.588  17.446  11.497 -0.1572  0.0832  0.0206
 9624W        W25433  15.035  15.097  11.609 -0.3935 -0.0097 -0.2507
 9625W        W25434  11.988   0.387  13.274  0.2076  0.3167 -0.0172
 9626W        W25435  16.188   7.321   4.786  0.1732  0.0609  0.1448
 9627W        W25436  17.852  16.914  11.278  0.4623  0.1285  0.0073
 9628W        W25437   1.051  12.044   3.255 -0.0762  0.2706  0.1743
 9629W        W25438  10.222   3.180  14.628  0.0050 -0.3660 -0.1397
 9630W        W25439  13.640   8.772  11.497  0.0421 -0.4283 -0.0528
 9631W        W25440   2.542   2.098  13.712  0.0097 -0.2547  0.1152
 9632W        W25441   2.925  16.157   1.899 -0.0518 -0.0221 -0.1852
 9633W        W25442  16.473   8.709  15.548 -0.1350 -0.0315  0.0888
 9634W        W25443  15.372   6.553   0.739 -0.1206 -0.0712 -0.2396
 9635W        W25444   9.644   6.450   3.036  0.0338  0.0980 -0.2426
 9636W        W25445   5.469  15.874   4.894 -0.1316 -0.0756 -0.1219
 9637W        W25446  12.157  11.853  11.821  0.2499 -0.4134 -0.0025
 9638W        W25447   0.907  17.834   0.502  0.2268  0.1052 -0.0855
 9639W        W25448   4.287  13.833  12.728  0.0190  0.1402  0.0896
 9640W        W25449  10.281   9.259   5.403 -0.3821 -0.0250  0.0076
 9641W        W25450  12.627   6.766   1.055  0.2918  0.1314 -0.0869
 9642W        W25451  13.814  11.482   1.706 -0.0255 -0.0925 -0.1208
 9643W        W25452   4.583   9.810   1.839 -0.1720 -0.4166 -0.1569
 9644W        W25453  18.160   2.914   1.639  0.0373 -0.0340  0.3573
 9645W        W25454  13.689  16.435   5.185 -0.1510 -0.0631 -0.0112
 9646W        W25455  16.048  11.111   1.249 -0.0696  0.0448 -0.0405
 9647W        W25456   2.298   3.071   1.766  0.1152 -0.0610  0.2720
 9648W        W25457   7.787   5.408   3.873  0.0182  0.0221  0.2156
 9649W        W25458   0.252   1.414   3.961  0.0035  0.1170 -0.3619
 9650W        W25459   5.536  18.082  13.809  0.2660  0.0356 -0.2694
 9651W        W25460  18.176   3.045  13.312  0.2101 -0.2050 -0.0084
 9652W        W25461   0.237   0.726  15.391  0.0769 -0.2988  0.0363
 9653W        W25462   6.020  11.722  13.743 -0.1584 -0.2457  0.0156
 9654W        W25463   0.520   2.184   3.359 -0.4150  0.1712 -0.0419
 9655W        W25464  10.700   0.908   3.561 -0.0423  0.0583 -0.2353
 9656W        W25465  12.648   5.898  10.934  0.1671  0.0088  0.1146
 9657W        W25466   0.478  16.385   2.245 -0.1555  0.3599  0.2275
 9658W        W25467   4.434   5.790  13.370  0.0808  0.0136 -0.1792
 9659W        W25468   1.394  13.085  13.932  0.2594 -0.2479 -0.1889
 9660W        W25469   6.091   5.623  10.473 -0.0062  0.1373  0.1180
 9661W        W25470   7.819  16.144   5.562 -0.0818  0.1922  0.2401
 9662W        W25471   4.733  13.153   0.269 -0.1688  0.0461 -0.0215
 9663W        W25472  15.163   7.422   3.833  0.1770  0.3849  0.1898
 9664W        W25473   3.953  10.064   0.130  0.0370  0.2082 -0.0477
 9665W        W25474   9.944  16.549   2.497 -0.1902  0.3557  0.1791
 9666W        W25475  16.381  16.084  11.736  0.1916 -0.2690  0.1249
 9667W        W25476   3.145   4.920   4.288 -0.1143 -0.0951  0.0281
 9668W        W25477  18.055  13.625   4.714 -0.2854 -0.0426 -0.3605
 9669W        W25478   7.843  14.760   0.622  0.1485  0.2572  0.1258
 9670W        W25479   3.551  16.115   2.778  0.2474 -0.2772  0.1322
 9671W        W25480   7.907  13.510  14.586  0.0804  0.1437 -0.0261
 9672W        W25481   5.005  14.018  10.416 -0.4188 -0.1626  0.0887
 9673W        W25482  10.248   6.983   4.218 -0.4919  0.0510 -0.2154
 9674W        W25483   5.427  15.811   2.081 -0.1883 -0.2158 -0.0012
 9675W        W25484  17.007   8.049   2.084 -0.0839  0.1501 -0.1406
 9676W        W25485   4.496   5.579  11.076 -0.3033 -0.1337  0.0472
 9677W        W25486  13.607  11.058   1.428 -0.0993 -0.1130  0.0212
 9678W        W25487   7.802   0.319   9.914  0.2062 -0.1106  0.0477
 9679W        W25488   0.627  13.512   4.320  0.2704 -0.3393 -0.1773
 9680W        W25489   5.665   9.822   9.894  0.2239  0.1600 -0.0954
 9681W        W25490  10.498  16.467  10.146  0.0675  0.0850 -0.0540
 9682W        W25491   7.153  10.511  12.961  0.0937  0.0904  0.1026
 9683W        W25492   9.255   8.405   5.345 -0.0452 -0.1324 -0.1221
 9684W        W25493  15.431  17.372  11.188 -0.1628 -0.0505  0.0695
 9685W        W25494   4.081  16.789  12.165 -0.0781  0.1845  0.2102
 9686W        W25495   8.056  16.209  12.346  0.2200  0.2994  0.1019
 9687W        W25496  12.080  17.210  10.918 -0.1309 -0.1129  0.3889
 9688W        W25497   5.802   7.648  11.393 -0.0226 -0.1842  0.1455
 9689W        W25498  15.017  15.993  12.063 -0.0731 -0.3604 -0.0262
 9690W        W25499  12.637   3.730  12.803 -0.0655 -0.0848 -0.2259
 9691W        W25500   9.187   5.549  11.275 -0.0964  0.1672 -0.0637
 9692W        W25501   6.075   1.328  12.223  0.0989 -0.1053 -0.0261
 9693W        W25502  11.547   3.723   3.470  0.1200 -0.4010  0.1399
 9694W        W25503   9.521   5.126  11.339 -0.1456 -0.0487 -0.0236
 9695W        W25504   4.685   9.053  12.686 -0.2851  0.1372  0.1489
 9696W        W25505  17.520   5.019  13.276 -0.0805  0.1596  0.2658
 9697W        W25506   5.244  12.643   2.000  0.2127  0.2391 -0.2353
 9698W        W25507  14.924  16.577  14.660  0.2880 -0.1807 -0.1427
 9699W        W25508   8.298   0.580   3.687 -0.1924  0.0695  0.1340
 9700W        W25509   7.817   2.699  11.797 -0.0689  0.1083  0.0182
 9701W        W25510   5.565   0.641  10.593 -0.2229  0.0481  0.3883
 9702W        W25511   0.508   0.555  13.823 -0.2497  0.1077 -0.0130
 9703W        W25512   9.559  11.922  11.412 -0.2304  0.2994 -0.1552
 9704W        W25513  12.356  11.449   2.524  0.1244  0.1715  0.1530
 9705W        W25514  15.307  11.710  13.209  0.3756  0.0464 -0.0626
 9706W        W25515  12.778  14.665   4.713 -0.0795  0.0996  0.4611
 9707W        W25516   4.223   5.029   0.239  0.1308 -0.2872  0.1000
 9708W        W25517   0.626   1.497  14.828 -0.1072 -0.1447  0.2062
 9709W        W25518  11.796   9.175  11.011 -0.3343 -0.0042  0.0738
 9710W        W25519   5.248  10.290  12.444 -0.0887  0.0042  0.0170
 9711W        W25520   3.646  12.194   3.810  0.2178  0.1862  0.0317
 9712W        W25521   0.016   5.625   4.411  0.0739 -0.1412 -0.1579
 9713W        W25522  13.535  11.419  14.700  0.1291 -0.0542 -0.1580
 9714W        W25523  13.786   1.216  15.326 -0.1790 -0.0755  0.1149
 9715W        W25524  12.494   4.944  12.001 -0.1156  0.0769  0.3220
 9716W        W25525  12.121   9.465   1.228 -0.0310  0.0303  0.1080
 9717W        W25526  16.287  14.610  11.568  0.1062 -0.1080  0.0914
 9718W        W25527  12.734   7.103  14.245  0.0213 -0.1420 -0.1294
 9719W        W25528  16.321   3.129  10.583 -0.1083  0.2232  0.2387
 9720W        W25529  14.305   1.142   5.785 -0.2843 -0.2621 -0.0425
 9721W        W25530  14.769   4.591  11.306 -0.0261 -0.1759 -0.0036
 9722W        W25531   4.321   8.462   3.781  0.1412 -0.4754 -0.2124
 9723W        W25532   7.065  17.033   3.561  0.2686  0.3039 -0.0498
 9724W        W25533   2.868   4.061   0.745  0.0300 -0.0397 -0.0362
 9725W        W25534  10.076   9.263  11.012  0.1669 -0.2263 -0.1508
 9726W        W25535   8.061   9.737   4.562  0.2470 -0.1374  0.0759
 9727W        W25536   9.229   6.910  12.765  0.1640 -0.2381 -0.2653
 9728W        W25537  17.140  11.785  14.487  0.2436  0.1145  0.1086
 9729W        W25538  18.138  12.495   2.716 -0.0664 -0.0135 -0.3327
 9730W        W25539   6.224  12.477   2.470  0.1649  0.0647  0.0349
 9731W        W25540   3.588  17.453  10.950 -0.0105  0.2833 -0.1447
 9732W        W25541  12.864   8.910   4.394  0.1679  0.3384 -0.1042
 9733W        W25542  11.021   9.595   0.729  0.1507  0.0355 -0.2388
 9734W        W25543  12.039   3.443   1.573 -0.2851 -0.3451 -0.2488
 9735W        W25544  13.990   4.211  10.886 -0.1159  0.0116 -0.1391
 9736W        W25545   3.322  13.035  13.526  0.3313  0.1980  0.3368
 9737W        W25546  17.126   8.533   2.289 -0.0136  0.1149  0.1315
 9738W        W25547   5.158   4.290  14.713  0.1836 -0.1259  0.3732
 9739W        W25548   7.564   2.176  11.773  0.0786 -0.0992 -0.0470
 9740W        W25549   9.876   4.272  12.841  0.1457  0.2563  0.0628
 9741W        W25550   2.223   5.194   1.162 -0.0030  0.0428  0.3717
 9742W        W25551  14.527  13.162  13.282  0.0493  0.0346  0.2015
 9743W        W25552   4.508   4.140  15.851  0.0965  0.3967  0.1357
 9744W        W25553   0.317   3.407   2.862 -0.1286 -0.0534 -0.0310
 9745W        W25554   5.252   4.880  12.323 -0.0006 -0.1749 -0.2092
 9746W        W25555   0.726   9.934  12.841  0.1691 -0.0741 -0.1121
 9747W        W25556   2.994  14.423   1.665 -0.1955  0.2187  0.2580
 9748W        W25557  15.740   4.613   0.940  0.0044 -0.1634  0.2292
 9749W        W25558  14.676   0.628  11.864  0.3189 -0.3199 -0.0102
 9750W        W25559  14.365  10.493  15.411  0.2733 -0.0060  0.1998
 9751W        W25560   5.794   2.599   4.778  0.1243  0.2551  0.0166
 9752W        W25561  12.433  12.189  12.269  0.1153  0.2090 -0.1836
 9753W        W25562  10.536  12.032  12.294 -0.3527 -0.1502 -0.2761
 9754W        W25563   9.437   7.454   4.902  0.0107 -0.2154  0.3441
 9755W        W25564   6.345  13.695  14.332 -0.3108 -0.2287 -0.1956
 9756W        W25565   2.200   6.873   2.010  0.1711 -0.0924  0.1882
 9757W        W25566   6.199  15.510  14.626  0.0951  0.1595  0.1974
 9758W        W25567   1.814  11.834  14.089  0.1345 -0.4017 -0.0572
 9759W        W25568   5.209  11.669   4.335 -0.0044 -0.1675  0.3411
 9760W        W25569  18.262  14.434  14.717 -0.0162 -0.3054  0.0664
 9761W        W25570   0.207   8.683   0.069  0.0835  0.0157  0.1830
 9762W        W25571   9.253  17.403  12.131  0.1843  0.0688 -0.1182
 9763W        W25572  18.331  17.558   4.230  0.0753  0.1234  0.1148
 9764W        W25573   6.570  15.798  15.838  0.1880  0.0988  0.0400
 9765W        W25574   6.635   1.860  11.443 -0.2708  0.0631 -0.2752
 9766W        W25575   5.609   9.558  11.182 -0.0445 -0.0587 -0.1365
 9767W        W25576   7.971   9.391  10.092 -0.1414 -0.0364 -0.0069
 9768W        W25577   3.071  10.547  14.638  0.0996 -0.3982  0.0276
 9769W        W25578   8.593   8.609  11.543 -0.2923 -0.0104  0.1227
 9770W        W25579   6.522   4.234   4.320 -0.2656 -0.0558  0.1318
 9771W        W25580   4.938   9.679   0.968 -0.0845 -0.0483 -0.1474
 9772W        W25581  12.905  13.593   4.923 -0.1416 -0.0022  0.1214
 9773W        W25582   3.495  15.949  15.372 -0.0128  0.2425  0.2372
 9774W        W25583  10.821   1.145   4.048  0.2840  0.1125  0.1653
 9775W        W25584  10.354   5.163   1.043  0.1743  0.1554 -0.1531
 9776W        W25585   9.094  14.460  13.683  0.0047 -0.1297  0.0201
 9777W        W25586   2.042  13.030   2.588  0.0489 -0.0356 -0.0951
 9778W        W25587  17.070  16.201  11.356 -0.3065 -0.1376  0.0951
 9779W        W25588  14.763  12.878   4.653 -0.0708  0.0742 -0.1911
 9780W        W25589   1.593   7.611   4.219  0.1696  0.1320  0.3135
 9781W        W25590  12.026  17.434  15.792 -0.1180 -0.0577  0.3165
 9782W        W25591   9.486  12.440  11.630  0.0919 -0.0204  0.1949
 9783W        W25592  13.049  10.929  11.770 -0.1301  0.1980  0.1193
 9784W        W25593  16.699   7.205  12.978 -0.4759 -0.2888  0.1501
 9785W        W25594   1.193  10.771   1.660  0.3850  0.1311 -0.3028
 9786W        W25595  14.020   7.089   4.350  0.0582  0.1428  0.0138
 9787W        W25596  12.801   7.432   0.005  0.0246  0.0390 -0.2309
 9788W        W25597   0.325  14.781  11.477  0.2314 -0.0055 -0.1074
 9789W        W25598   5.317   1.410   4.911 -0.0426  0.0572 -0.1638
 9790W        W25599   2.981  15.294   0.893 -0.2146 -0.0986 -0.0333
 9791W        W25600  14.587   8.034   2.551  0.0767  0.1533  0.1737
 9792W        W25601  17.897  15.127   3.689 -0.1579  0.0064  0.0399
 9793W        W25602   1.954  18.358  14.105 -0.0874  0.0307 -0.1366
 9794W        W25603  14.098   4.188  14.636  0.0901  0.1466 -0.1947
 9795W        W25604  14.559   2.698  15.594  0.0457 -0.2876  0.3751
 9796W        W25605   6.478  13.179   1.264 -0.1529  0.0642  0.0788
 9797W        W25606  11.639   9.900  13.124 -0.1970  0.0248  0.1498
 9798W        W25607  11.562   0.491  15.066  0.1317 -0.2041  0.0602
 9799W        W25608  15.869   1.507   5.419 -0.4418 -0.0897  0.1588
 9800W        W25609  15.057  16.219   3.117 -0.2088  0.2047 -0.1697
 9801W        W25610  12.742  10.814  12.641  0.1383 -0.1208  0.1728
 9802W        W25611   9.549  11.366  14.558 -0.1378  0.1743  0.0079
 9803W        W25612  13.147  16.072   0.744 -0.1620  0.1517 -0.2046
 9804W        W25613   3.646  14.142  15.782 -0.1071 -0.0238 -0.0973
 9805W        W25614  10.716  18.356  11.281  0.0636 -0.1411 -0.0675
 9806W        W25615  14.950  11.899  13.895  0.0028 -0.0064 -0.0657
 9807W        W25616   0.867   7.962   4.620 -0.0520  0.1033  0.1014
 9808W        W25617   7.543  11.378   2.273  0.0198  0.3111 -0.0372
 9809W        W25618   1.106  12.314  11.094 -0.1692  0.4629  0.0221
 9810W        W25619  14.251   1.908   0.513 -0.0548  0.2069 -0.1248
 9811W        W25620  14.066   6.918   2.554 -0.2835 -0.0020 -0.1211
 9812W        W25621   0.988   9.769   1.894  0.0023  0.0276 -0.0249
 9813W        W25622   2.589   2.438  11.342  0.0496 -0.5062 -0.0454
 9814W        W25623   9.138  16.934  11.296  0.2313 -0.1271 -0.0954
 9815W        W25624   3.857   8.616   4.543  0.0043  0.0467  0.1077
 9816W        W25625  15.527  15.885   1.115  0.1619  0.3873 -0.0844
 9817W        W25626  15.827   2.638   0.140  0.2237  0.0510 -0.0801
 9818W        W25627  11.278  15.801  13.920 -0.0529 -0.1969 -0.2355
 9819W        W25628   7.714  17.060  12.484  0.0042  0.3061  0.2788
 9820W        W25629  10.229   9.597  14.954 -0.1077 -0.2160 -0.0122
 9821W        W25630   6.042  12.536  15.733 -0.0525 -0.0577 -0.1812
 9822W        W25631   2.706  12.974  12.274  0.1051 -0.0466  0.1016
 9823W        W25632  16.272   5.165  10.072 -0.0028  0.4020  0.0243
 9824W        W25633  13.398  12.521   2.569  0.1102  0.2394 -0.2655
 9825W        W25634   1.368  17.610  13.260  0.0672 -0.3432  0.2047
 9826W        W25635   1.753  17.137  15.642  0.0984  0.0667  0.2091
 9827W        W25636  14.543   0.469   0.859 -0.1358  0.2558 -0.1725
 9828W        W25637  11.221   4.088  14.975  0.1483 -0.0639  0.1829
 9829W        W25638  11.487  15.503   2.417  0.1956 -0.3300 -0.1174
 9830W        W25639   0.247  18.050  15.705 -0.2842 -0.1215  0.2159
 9831W        W25640  18.247   4.849   1.281 -0.1571  0.4871  0.1032
 9832W        W25641   8.400  10.285   3.742  0.1975 -0.2711  0.1377
 9833W        W25642   4.096  17.155   3.775 -0.0440 -0.3547 -0.0904
 9834W        W25643   2.127   7.484   3.883 -0.2918  0.0859  0.1282
 9835W        W25644   2.905   8.551   0.480 -0.3270 -0.1434  0.0166
 9836W        W25645   2.114   8.844  12.332 -0.1140  0.0687 -0.0281
 9837W        W25646   6.063  13.464   0.033 -0.0662 -0.0482  0.1840
 9838W        W25647   0.397  17.347   4.301 -0.0508 -0.1257 -0.2260
 9839W        W25648   5.890   2.929  11.912 -0.0609  0.1971  0.0415
 9840W        W25649   1.042  14.812   0.393  0.2115 -0.1012 -0.0326
 9841W        W25650   3.132   9.922  12.841  0.2417 -0.1630 -0.2578
 9842W        W25651   1.281   0.068   5.087  0.1393 -0.0947  0.1181
 9843W        W25652  11.359  10.835  10.361  0.0062 -0.0759  0.3565
 9844W        W25653  12.028   0.641   4.433  0.1915 -0.2029 -0.2799
 9845W        W25654   6.594  13.276   3.067  0.3327 -0.3968  0.2661
 9846W        W25655   0.238  10.877  11.917 -0.2478 -0.0568 -0.1056
 9847W        W25656  16.388   4.882  11.279 -0.2516 -0.0920 -0.1092
 9848W        W25657   3.979   0.856  14.584  0.0565  0.0728  0.1751
 9849W        W25658  11.950   5.400  11.131 -0.2324 -0.2804  0.2938
 9850W        W25659   9.755  11.816  15.641  0.1250 -0.0761 -0.0257
 9851W        W25660  16.215   4.750  12.232 -0.2653 -0.0398  0.0758
 9852W        W25661   2.714   3.988  15.618 -0.0633 -0.1721 -0.0801
 9853W        W25662   3.024   0.627  11.921 -0.1638 -0.0562  0.4035
 9854W        W25663   0.872   9.281  11.898 -0.2247 -0.1544 -0.1984
 9855W        W25664   9.148   4.392   5.278  0.0848  0.1015 -0.0403
 9856W        W25665  16.510   6.642   3.356 -0.0541  0.2227 -0.0848
 9857W        W25666   9.063  13.706   2.271  0.4246  0.0476  0.3866
 9858W        W25667  10.649  18.376  14.838 -0.0894  0.2805  0.2290
 9859W        W25668   0.891   7.235  11.465  0.0322  0.1471  0.1157
 9860W        W25669   4.610  18.399  12.696 -0.0916 -0.0079 -0.0767
 9861W        W25670  11.067  14.799   4.018  0.0618  0.1282 -0.5123
 9862W        W25671   7.424   2.442  13.605 -0.2379  0.2941  0.3617
 9863W        W25672  14.263  17.961  11.178 -0.1292  0.1058  0.0126
 9864W        W25673   8.776  13.543  14.293  0.0209  0.0096 -0.2525
 9865W        W25674  13.415   2.053   0.692  0.1179  0.1122  0.0939
 9866W        W25675   3.893  15.850   3.603  0.5649  0.1628  0.2246
 9867W        W25676   1.015  12.847   2.443 -0.0348 -0.0086  0.0507
 9868W        W25677  13.246  16.134  13.569 -0.1638  0.0379 -0.0308
 9869W        W25678  15.908   7.444   1.685 -0.0815 -0.0617 -0.1187
 9870W        W25679   0.981  14.383   1.734 -0.0250  0.0820 -0.0976
 9871W        W25680   7.052   2.765   5.170 -0.1374 -0.0070 -0.1322
 9872W        W25681   9.586   7.447  11.779 -0.5400  0.0795  0.1523
 9873W        W25682   5.710   4.629   4.227 -0.0229  0.2538  0.1267
 9874W        W25683  14.637   4.909  13.421  0.2476 -0.0934 -0.1260
 9875W        W25684   5.249   4.290   2.486 -0.0107 -0.3352 -0.3094
 9876W        W25685  16.351   1.778   0.098 -0.1561  0.1486 -0.0683
 9877W        W25686   6.701  13.620  12.708 -0.2447 -0.2970 -0.1269
 9878W        W25687  18.388   6.045  14.962 -0.0018  0.1752 -0.0218
 9879W        W25688   3.707   9.067   1.455 -0.0057 -0.0746 -0.2592
 9880W        W25689  18.085  13.218  12.168  0.1088 -0.2963 -0.0719
 9881W        W25690   1.219   4.975  15.707  0.0036  0.0627  0.0751
 9882W        W25691   6.041  12.369   5.229  0.1437  0.2126 -0.0439
 9883W        W25692  18.017   6.758   0.063 -0.0617 -0.3646 -0.3038
 9884W        W25693   6.517   3.836  11.741 -0.0947  0.2570  0.1105
 9885W        W25694   0.908  10.766   2.865  0.0148  0.2306 -0.1461
 9886W        W25695   7.998   0.799  11.332  0.0201  0.1800 -0.0589
 9887W        W25696  14.719  16.341   5.182  0.2626  0.0880 -0.1549
 9888W        W25697   9.097   4.507  10.698 -0.1999  0.3147 -0.0763
 9889W        W25698  18.246   6.978  15.050 -0.0213 -0.1211 -0.0676
 9890W        W25699   4.777   1.669  13.031 -0.3747  0.2969  0.2919
 9891W        W25700  17.997   7.517  13.696  0.0962  0.1627 -0.3338
 9892W        W25701  16.004   0.572  14.841  0.3949 -0.1188  0.0117
 9893W        W25702   9.735  17.203   3.730  0.1377  0.1456  0.0018
 9894W        W25703  10.116   5.614   4.204  0.4190 -0.2263  0.0037
 9895W        W25704   7.587   2.279   2.723 -0.0900  0.0383  0.1965
 9896W        W25705   5.517   3.328  11.737  0.3787  0.1631  0.2180
 9897W        W25706  16.637  15.540   0.755 -0.1325 -0.0094 -0.0620
 9898W        W25707  11.950   9.427   2.142 -0.0479 -0.1170 -0.0348
 9899W        W25708   7.519  16.093   0.280  0.0736 -0.0563  0.2134
 9900W        W25709   8.765   7.023  10.918 -0.1468  0.1324  0.0527
 9901W        W25710   3.974   7.498   2.060 -0.0982 -0.0814 -0.0982
 9902W        W25711   5.385   0.447  14.073 -0.0835  0.2521  0.1198
 9903W        W25712  14.864  12.952  11.825 -0.1114 -0.0651  0.1147
 9904W        W25713   0.841   0.160  13.680 -0.0405 -0.1153 -0.1837
 9905W        W25714   7.906  16.982  11.921 -0.0616  0.1020 -0.0724
 9906W        W25715   5.800  16.688  11.182  0.1350  0.1898  0.0593
 9907W        W25716   4.771   3.114   1.190 -0.0204  0.0508  0.1996
 9908W        W25717  14.945   4.805   5.107  0.3929  0.0296  0.0214
 9909W        W25718  16.886  11.602  13.031  0.0365 -0.3330 -0.2432
 9910W        W25719   2.608   7.751  12.779  0.0901  0.0072 -0.1031
 9911W        W25720  18.026  10.755   0.220  0.0244 -0.1820 -0.1451
 9912W        W25721  12.189   3.996   4.136 -0.1719  0.1931  0.0812
 9913W        W25722   3.512  18.403   2.052 -0.0838 -0.0013 -0.1598
 9914W        W25723  14.562  13.540   2.652 -0.0643 -0.1367  0.1275
 9915W        W25724   5.955   4.371  14.428  0.0995 -0.2552 -0.2796
 9916W        W25725   6.999  13.811  13.188  0.0496  0.0847  0.2122
 9917W        W25726  17.399  12.565  11.611 -0.1292 -0.1692  0.0366
 9918W        W25727  18.273   7.596   1.629 -0.0359  0.1156  0.3368
 9919W        W25728  10.913   3.588   0.386 -0.2365  0.1950 -0.1241
 9920W        W25729   7.291  13.041   1.581  0.2524 -0.1542  0.2370
 9921W        W25730   1.592  11.485  13.732 -0.3010 -0.1740 -0.0242
 9922W        W25731  16.496  11.882   4.163 -0.0807  0.0157 -0.0373
 9923W        W25732   6.463  18.364   3.927  0.2848 -0.1508  0.0642
 9924W        W25733   2.481   3.075  12.763 -0.0577  0.2494  0.0064
 9925W        W25734  15.501  14.807   5.415  0.0179 -0.2724  0.1763
 9926W        W25735  12.638   3.052   0.952 -0.1065  0.3716 -0.3141
 9927W        W25736   8.808   6.276  14.981 -0.0016  0.1605 -0.2194
 9928W        W25737   5.272   7.346  11.473 -0.1433  0.0983 -0.0141
 9929W        W25738  16.959   9.071  14.842 -0.2290  0.0184  0.1897
 9930W        W25739   9.334  16.934  15.354  0.1299  0.1767  0.0482
 9931W        W25740  12.117  15.705  15.261  0.1907  0.0918  0.1176
 9932W        W25741  14.252  10.549   3.397  0.0259 -0.2682  0.0984
 9933W        W25742  18.237   4.989   3.103 -0.1032 -0.0689  0.1806
 9934W        W25743  18.131  11.978   2.781  0.0774 -0.3628  0.4038
 9935W        W25744  14.537  14.731  10.931 -0.0106 -0.1357  0.1239
 9936W        W25745  14.476  13.333   9.874  0.0534  0.1100  0.2225
 9937W        W25746   5.089  16.533   1.810  0.1775  0.2861  0.0250
 9938W        W25747  14.394   0.007   0.667 -0.2161  0.2042  0.0230
 9939W        W25748  10.685   6.874  14.470 -0.0346 -0.0691 -0.0272
 9940W        W25749   5.488  14.941  14.228 -0.0540  0.1729  0.0565
 9941W        W25750   7.161   6.206  14.072  0.0667 -0.0381  0.2287
 9942W        W25751   6.199  11.573  12.648  0.2123  0.1632 -0.2975
 9943W        W25752   1.598   4.822  11.989 -0.2504  0.2343 -0.1758
 9944W        W25753   8.572   1.677  11.217  0.1236  0.1285 -0.0852
 9945W        W25754   0.618   5.668  12.039  0.0355  0.1447 -0.0010
 9946W        W25755  16.471   2.602  11.402  0.1268  0.1951  0.0648
 9947W        W25756   2.288   6.386   3.083 -0.1680  0.1478 -0.2034
 9948W        W25757  15.150  12.526  15.498 -0.0728 -0.0340  0.2916
 9949W        W25758   2.686  10.229  14.795  0.0913 -0.0302 -0.2403
 9950W        W25759  15.767  11.769   3.485  0.2102 -0.0286  0.0565
 9951W        W25760   9.787  15.406  12.031 -0.5148 -0.0629 -0.1531
 9952W        W25761  16.957   9.291   5.587 -0.1710  0.0177 -0.0163
 9953W        W25762  15.806   0.645  15.353  0.1845  0.2339 -0.0615
 9954W        W25763  14.464  16.909  12.178  0.0051  0.2881 -0.0820
 9955W        W25764  11.501   5.529  12.483  0.0068  0.3842  0.1332
 9956W        W25765  15.544  14.742   3.664 -0.0182 -0.3141 -0.1771
 9957W        W25766  15.532   3.102  12.950  0.1926 -0.2006 -0.1564
 9958W        W25767  14.369   5.495   3.186 -0.6103  0.0288 -0.1312
 9959W        W25768  13.457  10.295   5.167  0.0560 -0.1708  0.2170
 9960W        W25769   3.899   7.954   5.183  0.4300  0.1009  0.1458
 9961W        W25770   0.333  12.378   0.031  0.0385  0.0439  0.1836
 9962W        W25771  17.593   9.834   5.711  0.0942  0.0290 -0.2403
 9963W        W25772   6.414   0.240   2.511 -0.2856 -0.1135  0.2185
 9964W        W25773   3.456   9.047   3.392  0.0301 -0.1247 -0.1427
 9965W        W25774  11.116   5.900   3.901 -0.0337 -0.0463 -0.1057
 9966W        W25775   8.162  16.769  11.557  0.0786  0.0730 -0.0860
 9967W        W25776  12.284  13.427   2.220  0.2105  0.3136 -0.1401
 9968W        W25777   8.742  15.673  14.850  0.0083 -0.2948  0.0905
 9969W        W25778  17.870   5.448  14.836  0.0517  0.0022  0.1199
 9970W        W25779   7.377  12.158  15.515 -0.0980  0.0899  0.5571
 9971W        W25780   8.436   1.000  14.098  0.0801 -0.0202 -0.5141
 9972W        W25781   7.771  10.263  15.117  0.1887 -0.2715 -0.0226
 9973W        W25782  16.232   3.254   5.438  0.2039  0.1171  0.4813
 9974W        W25783  11.159  13.052   6.015  0.1075 -0.2035 -0.2434
 9975W        W25784  13.044  18.450  14.148  0.0360 -0.0765 -0.1222
 9976W        W25785   2.539   1.008   4.215  0.0246  0.1395 -0.0322
 9977W        W25786  11.351  17.856  13.638  0.2731 -0.1728 -0.2360
 9978W        W25787  12.172   1.513   3.981 -0.0930 -0.2782 -0.2377
 9979W        W25788   9.426   9.119   2.711 -0.2099 -0.3959 -0.1466
 9980W        W25789  11.768   3.227   2.435 -0.0364  0.1211  0.0268
 9981W        W25790   4.387  17.974  14.459  0.0257 -0.0046  0.2080
 9982W        W25791  11.415  12.358   1.531 -0.2895 -0.1680 -0.0137
 9983W        W25792   9.717  16.286   3.540  0.1155 -0.2032 -0.0270
 9984W        W25793   2.610  18.205   2.272  0.0220 -0.0089 -0.0819
 9985W        W25794  12.445   9.472   3.734  0.0647  0.2297 -0.0066
 9986W        W25795   3.834   2.922  12.216 -0.0218 -0.4417  0.1138
 9987W        W25796   7.028   4.915   4.778 -0.1037 -0.1397 -0.0248
 9988W        W25797  16.944   7.452   0.823  0.1225 -0.3166  0.0458
 9989W        W25798  18.073   5.853  11.187  0.2064  0.0876 -0.0984
 9990W        W25799   8.414   3.558   5.419 -0.0235  0.0072  0.1134
 9991W        W25800  13.236   6.125   3.030 -0.2490  0.1218 -0.0425
 9992W        W25801   4.682   8.876   3.749 -0.1193  0.0564 -0.2214
 9993W        W25802  13.192   4.462  14.198 -0.0771  0.1493 -0.0446
 9994W        W25803   4.096   6.337   0.699 -0.2616 -0.3960  0.2451
 9995W        W25804   2.433   1.112  11.396  0.1088 -0.1446  0.1933
 9996W        W25805   3.555  13.480  13.356  0.0058 -0.1919 -0.1402
 9997W        W25806   5.924   8.811   2.405  0.0067 -0.0998 -0.0385
 9998W        W25807   9.450  17.158  14.703 -0.1271 -0.1634  0.0633
 9999W        W25808   4.552  13.161   4.217  0.3200  0.0531 -0.0085
10000W        W25809   4.905   0.518   4.103 -0.2084 -0.3154 -0.4363
10001W        W25810   8.832   5.172  11.035 -0.1429  0.2141  0.2925
10002W        W25811   8.797   0.836  13.743  0.1300 -0.1925  0.1770
10003W        W25812   5.080  15.067   0.978 -0.1489 -0.0515  0.0492
10004W        W25813  10.738  18.291   3.548 -0.1823  0.2853 -0.1702
10005W        W25814   9.051   1.437   2.723  0.0887 -0.0221 -0.1374
10006W        W25815  12.792   7.021   3.645  0.0943  0.1415  0.0863
10007W        W25816   6.366   7.398  15.743  0.1015 -0.3186  0.3535
10008W        W25817   0.773  15.508  12.142 -0.1651 -0.0790 -0.4975
10009W        W25818  15.973   2.399  14.435  0.1161  0.1045  0.0060
10010W        W25819  13.622  18.101   1.806  0.0808 -0.0432  0.0135
10011W        W25820  17.408  10.388  13.065  0.1106  0.3719 -0.5061
10012W        W25821   2.167   4.122   1.901 -0.1174  0.0398  0.2510
10013W        W25822   3.600  10.233   2.819 -0.0442 -0.2613  0.3045
10014W        W25823   1.442   7.656  10.191  0.4260  0.0371 -0.3631
10015W        W25824   3.768  13.650  15.598 -0.0684  0.0653 -0.1112
10016W        W25825   7.949   4.765  15.212  0.1651 -0.1129 -0.0312
10017W        W25826   1.669   1.638   9.728 -0.1328 -0.0140  0.2179
10018W        W25827   1.971  10.190   4.689  0.2845  0.1440  0.4216
10019W        W25828   7.452   8.023  13.036 -0.0395  0.3481  0.0796
10020W        W25829   0.914   8.938  14.771  0.2912  0.0846 -0.1998
10021W        W25830   4.911   3.876  12.115 -0.0612  0.0500 -0.2707
10022W        W25831   0.702   5.117  13.212 -0.1239  0.0393  0.0298
10023W        W25832   8.320   6.006   0.165 -0.1691  0.2847  0.0299
10024W        W25833   7.934  16.016   3.286  0.0012  0.5299 -0.0194
10025W        W25834  18.343  15.457  10.775 -0.0438  0.2012 -0.0833
10026W        W25835  12.999  17.305   0.168 -0.1680  0.1261  0.1167
10027W        W25836  15.058  18.191  12.618  0.0950 -0.2733  0.1452
10028W        W25837  17.158  12.860  15.340 -0.2166 -0.2708  0.4492
10029W        W25838   0.316  17.856   4.441  0.2787 -0.2713  0.1427
10030W        W25839   3.761   7.172   1.725  0.0017 -0.0758 -0.0731
10031W        W25840  14.056   8.525   1.475  0.0549  0.1154 -0.1894
10032W        W25841  11.702   2.415  11.903 -0.0737  0.0511 -0.0781
10033W        W25842  11.833  16.687   0.205  0.0361  0.0063 -0.2719
10034W        W25843  15.063  17.630  10.974  0.2326 -0.1198 -0.4428
10035W        W25844  10.610   4.045   3.407  0.2141  0.0303 -0.1274
10036W        W25845  11.517   7.781   2.650  0.0008  0.2780 -0.1356
10037W        W25846   0.037   7.354  11.795  0.0739 -0.3888 -0.1476
10038W        W25847   5.111  18.463  14.825  0.1128  0.1999  0.1750
10039W        W25848  10.386   7.000  11.796  0.0244 -0.0154  0.2286
10040W        W25849  14.191  13.682  14.997 -0.1498  0.1907 -0.2610
10041W        W25850   1.257  15.603   5.321 -0.0670 -0.0345 -0.0067
10042W        W25851   3.706   8.325  11.420  0.0414  0.1678  0.1881
10043W        W25852  12.199  10.374  11.896  0.2418 -0.0584  0.2685
10044W        W25853  17.300  15.863  13.716  0.3653  0.1005 -0.0068
10045W        W25854  15.863   9.291  13.231 -0.2833 -0.1213 -0.1512
10046W        W25855  17.234  16.722  13.324  0.3257 -0.1569 -0.0449
10047W        W25856  15.594   0.022   3.910  0.1437  0.4312  0.0342
10048W        W25857   2.368   9.803   4.636  0.3491  0.0449  0.1453
10049W        W25858  14.638  18.382  13.774 -0.0511 -0.1362 -0.1764
10050W        W25859  10.239   5.918   3.430 -0.0864 -0.0929  0.0733
10051W        W25860   8.807   0.025   2.072  0.0625 -0.0596  0.0889
10052W        W25861   1.712  17.114  11.841 -0.1778 -0.3192 -0.1807
10053W        W25862   6.310   9.808  15.498  0.1853 -0.2982 -0.1778
10054W        W25863   3.095  17.673   3.183  0.1026 -0.0885 -0.0639
10055W        W25864  11.353   5.896  11.584 -0.1141 -0.1026 -0.0328
10056W        W25865  17.989  15.542   2.849  0.1163  0.2338  0.1652
10057W        W25866  16.765  16.378  15.578 -0.1856 -0.0507  0.1823
10058W        W25867   1.655  17.537   5.055 -0.1519  0.0329  0.0199
10059W        W25868   5.133   0.642   0.262 -0.2218 -0.1313 -0.0081
10060W        W25869  12.794   8.611   4.881  0.1617  0.1344  0.0385
10061W        W25870  10.755   6.607   1.218  0.0749 -0.0475  0.0844
10062W        W25871   5.776   2.611   4.229  0.0383 -0.0364  0.2211
10063W        W25872   9.799   0.868   3.944 -0.3891 -0.0154  0.0263
10064W        W25873   1.527   9.090   2.886 -0.3265 -0.1152 -0.2152
10065W        W25874  13.913  10.192   3.750  0.2035  0.1552 -0.4020
10066W        W25875   3.272  14.851   0.590 -0.0313  0.0175 -0.1647
10067W        W25876   9.067   5.908   4.191 -0.0157 -0.0138  0.2270
10068W        W25877  10.111   0.022  13.248  0.1896 -0.0263  0.1084
10069W        W25878  17.778   4.206  11.619 -0.0261  0.1904  0.0845
10070W        W25879  16.322   6.631  14.615  0.0309 -0.0544  0.0063
10071W        W25880  11.128   3.161  14.102 -0.0073  0.0739 -0.1217
10072W        W25881  16.684  17.920   4.377  0.1000  0.0606  0.0100
10073W        W25882   6.093   5.787  13.457 -0.2552  0.0349  0.1402
10074W        W25883  14.918   4.370   4.754  0.0500  0.1207 -0.0722
10075W        W25884   8.774  16.459  12.774 -0.0239 -0.1241  0.3049
10076W        W25885  17.460   2.907  12.248  0.1729  0.1574 -0.0045
10077W        W25886   1.759  15.760  14.986 -0.0929  0.2125 -0.0049
10078W        W25887   8.278  14.745  13.325  0.1103  0.1876 -0.3327
10079W        W25888   2.172  11.669  12.549  0.2739  0.1144 -0.3661
10080W        W25889  12.432   9.195   4.761  0.1577  0.2830  0.1119
10081W        W25890  13.938   2.303  12.301 -0.0234  0.2042 -0.1506
10082W        W25891  17.795   1.839  11.571  0.0162  0.1171 -0.1148
10083W        W25892   5.018  11.202   3.538  0.2791 -0.1627  0.3614
10084W        W25893  11.312   4.446  15.485 -0.0415  0.0962 -0.1072
10085W        W25894  13.129   0.502   4.813  0.1498  0.2852  0.2251
10086W        W25895   1.488   1.392   2.696  0.0688 -0.0411  0.0203
10087W        W25896   7.081  15.506   0.353  0.1251  0.0145 -0.2176
10088W        W25897   5.440   9.320  14.450 -0.2068 -0.2185  0.0621
10089W        W25898   9.831  13.534  11.530 -0.0273 -0.0268 -0.0668
10090W        W25899  14.150   7.940  14.923  0.1244 -0.0049  0.2846
10091W        W25900   1.269   4.598   0.166 -0.2987 -0.2163 -0.1180
10092W        W25901  15.059  14.686  14.441  0.0804 -0.1006 -0.1291
10093W        W25902  18.192  17.190  10.976 -0.0417  0.2576  0.1157
10094W        W25903   8.865  15.115   2.806  0.2368  0.0002 -0.0625
10095W        W25904  16.759  15.097   3.878  0.0881  0.0149 -0.0323
10096W        W25905  10.603  11.476  10.848 -0.2758 -0.0382 -0.1270
10097W        W25906   4.902   6.853   3.044 -0.2098  0.2304 -0.0239
10098W        W25907  16.774   0.772  12.259  0.0191 -0.3212  0.0902
10099W        W25908  11.692  15.648  10.273  0.2101 -0.1658  0.0673
10100W        W25909   8.327  18.451   4.919  0.0915 -0.2367  0.0615
10101W        W25910   8.027  15.378   2.636 -0.1347  0.1857  0.1035
10102W        W25911   4.244  15.341   1.209 -0.0780 -0.1283  0.2215
10103W        W25912  16.776  11.248   0.448  0.2348 -0.0376  0.1597
10104W        W25913  10.690   9.506   1.095  0.2284  0.2701  0.0735
10105W        W25914  11.372   3.910  11.926 -0.2014  0.2926  0.0090
10106W        W25915   6.535   2.772  13.790  0.0828 -0.1959  0.0951
10107W        W25916   2.009   2.188   2.069 -0.1640 -0.2918 -0.1049
10108W        W25917   6.762  17.674   5.182 -0.0370 -0.2740  0.0106
10109W        W25918   7.800  12.040   1.974  0.1974 -0.1543  0.0395
10110W        W25919  17.794   3.756   5.051  0.1208  0.1050  0.0020
10111W        W25920   1.495  13.153  11.383  0.2919 -0.0062 -0.0213
10112W        W25921   5.056  10.920  12.103 -0.1359 -0.1213  0.2011
10113W        W25922   6.108  11.961  12.313  0.2436  0.0648  0.1622
10114W        W25923  13.847   2.293   5.005  0.0765 -0.2607 -0.0607
10115W        W25924   5.927  17.705   4.473  0.0934  0.2254  0.0696
10116W        W25925   1.344  11.207   0.867  0.0745  0.1119 -0.1644
10117W        W25926  10.423   7.122  14.812  0.1337 -0.1189  0.0040
10118W        W25927  18.462   9.875  14.556  0.3656 -0.1621 -0.1338
10119W        W25928  14.113  16.519  12.194  0.1844  0.2149 -0.1244
10120W        W25929   9.609   8.772   3.045 -0.2634  0.1607 -0.0483
10121W        W25930  18.091  11.891   4.567 -0.0335 -0.0676  0.0496
10122W        W25931  10.904   5.189   4.585  0.1733  0.1603  0.0272
10123W        W25932   9.901  12.320   1.163 -0.1522  0.1775 -0.2944
10124W        W25933  14.524   9.559  11.170 -0.2065  0.0534 -0.2152
10125W        W25934   7.130   9.340   2.802  0.1547 -0.2386 -0.0004
10126W        W25935   9.445   4.287   2.863 -0.3706  0.0446 -0.0006
10127W        W25936  17.451  18.305  13.100  0.0906 -0.1874  0.0384
10128W        W25937  10.851  14.619   2.427  0.1279  0.0212 -0.1581
10129W        W25938   0.759  15.368   2.564  0.1536 -0.0040  0.2180
10130W        W25939   3.730   5.143   0.259  0.0688 -0.4847  0.0457
10131W        W25940   9.462  11.511  11.159 -0.0553 -0.0869 -0.0042
10132W        W25941   8.601   1.183   2.738 -0.3036 -0.3721  0.2060
10133W        W25942   1.402  15.931  11.489  0.1681 -0.0080  0.0732
10134W        W25943  11.902   7.187  11.576  0.3085  0.0699  0.0484
10135W        W25944  11.730   9.600  14.003 -0.1795  0.1832  0.0924
10136W        W25945  13.634   1.621   0.593  0.1406  0.1050  0.1064
10137W        W25946  12.611  16.092   2.482  0.1144  0.0199 -0.0494
10138W        W25947  15.411   9.869  10.175  0.2144 -0.0052 -0.0602
10139W        W25948   1.244   8.992   1.751  0.0019 -0.1715  0.0783
10140W        W25949   3.146  10.025  13.729 -0.2853  0.1270  0.1485
10141W        W25950   5.422   8.716   3.372 -0.0596  0.0784 -0.4649
10142W        W25951  17.424   1.559   3.895 -0.0514 -0.1019  0.1893
10143W        W25952   6.949  13.835   3.172 -0.1863  0.2325 -0.1506
10144W        W25953  15.312   4.703  11.210 -0.1861 -0.2457  0.1609
10145W        W25954   1.641   4.619  11.428 -0.0060 -0.3325 -0.1820
10146W        W25955  14.843  16.200   3.782  0.2164 -0.3847  0.2765
10147W        W25956   7.517  11.053  14.703 -0.3599  0.4371 -0.0578
10148W        W25957   4.436  14.133  15.055  0.0866  0.0078 -0.1955
10149W        W25958   2.853   3.393  10.397 -0.1003 -0.3087 -0.2103
10150W        W25959   3.623   6.948   3.895 -0.1567 -0.0692 -0.0075
10151W        W25960  18.108   9.679  11.118 -0.0132  0.1078 -0.2657
10152W        W25961  13.636   3.336  11.749  0.0683 -0.1371  0.0827
10153W        W25962  17.631   1.792  13.949  0.0118 -0.0892 -0.0688
10154W        W25963  14.507   6.207   4.601 -0.4477 -0.2708 -0.1284
10155W        W25964   3.989   4.283   0.784  0.2604  0.0251  0.0547
10156W        W25965  15.139   1.781  14.825 -0.1895  0.0589 -0.3237
10157W        W25966   6.331   7.519   4.456 -0.0975  0.1070 -0.3257
10158W        W25967  11.910  15.793   2.026  0.2108  0.0655 -0.2940
10159W        W25968   7.891  13.742  14.118 -0.1113 -0.1200  0.1820
10160W        W25969   1.036  11.711   3.614 -0.1329  0.3358 -0.2312
10161W        W25970   3.719   6.186   5.503 -0.0486  0.3527  0.0655
10162W        W25971   0.336   0.553  14.785  0.0739  0.1640  0.0035
10163W        W25972  11.924   4.505   3.910  0.0981  0.0089  0.4448
10164W        W25973  11.356   5.847   0.930  0.1965 -0.0853  0.0766
10165W        W25974  10.984   1.392   3.612 -0.0126  0.2452 -0.1490
10166W        W25975   6.087   1.930  11.161 -0.3861 -0.1984 -0.1566
10167W        W25976  14.028   6.297  12.386 -0.1618 -0.4613 -0.1113
10168W        W25977  13.235   5.801  14.599  0.0586 -0.0109 -0.2106
10169W        W25978   0.776  12.635  11.369 -0.0525  0.0926 -0.0279
10170W        W25979   5.236  11.850  13.007 -0.3721  0.2272 -0.0221
10171W        W25980  14.266   7.648   2.968  0.2277  0.1142 -0.1499
10172W        W25981  14.928  17.212  14.625 -0.1281  0.0769 -0.2283
10173W        W25982  17.857   6.463  15.534  0.3264  0.0063 -0.1932
10174W        W25983   1.515   6.026  15.720  0.0680 -0.2833 -0.1480
10175W        W25984   3.504  12.995   5.281  0.1655 -0.1885 -0.3430
10176W        W25985   6.471  15.772  15.262  0.1244 -0.0495  0.1870
10177W        W25986   5.152   2.368   0.473  0.0725 -0.0250 -0.0150
10178W        W25987   1.471   8.802  13.709 -0.2820 -0.0139 -0.1219
10179W        W25988   2.902   5.599   2.929  0.1401  0.1435 -0.0547
10180W        W25989   4.976  16.343  12.220 -0.3461  0.3840  0.5016
10181W        W25990  10.111   8.410  11.751  0.0594  0.1937  0.0966
10182W        W25991   1.072   3.559  15.610 -0.1142  0.0450 -0.3383
10183W        W25992   3.060  17.408  12.849  0.1402 -0.2753 -0.2492
10184W        W25993  11.502   2.436   5.179 -0.1270  0.1647 -0.1937
10185W        W25994  16.248   6.388  15.532  0.2074 -0.0846 -0.1797
10186W        W25995   7.848   6.048   2.095  0.2256  0.1197  0.0097
10187W        W25996  13.909  11.059   5.907  0.0447  0.0879 -0.4601
10188W        W25997   3.229   7.904   1.063 -0.3080 -0.2144 -0.2545
10189W        W25998   5.274   3.543   4.467  0.1338  0.2014  0.1854
10190W        W25999   3.023   3.639  11.236  0.3728  0.0587  0.1283
10191W        W26000   8.527   8.614   1.198  0.2926  0.0498 -0.0348
10192W        W26001  15.293  10.352   3.092  0.1282 -0.0184 -0.0632
10193W        W26002   4.504  18.232   0.011  0.3443 -0.0416  0.4586
10194W        W26003  15.743  16.709  10.079  0.0106  0.2290  0.0243
10195W        W26004   2.270  14.627  15.360 -0.0701  0.0694  0.0447
10196W        W26005   6.536   9.384  15.728 -0.2132  0.1200  0.0083
10197W        W26006  12.585   9.901  14.782 -0.1680 -0.1134  0.1765
10198W        W26007   9.169  12.181   4.958  0.0467  0.1428  0.2645
10199W        W26008   6.810  14.948  11.178 -0.1152 -0.0389 -0.2358
10200W        W26009   8.248   0.426  11.525 -0.0421 -0.1171  0.0086
10201W        W26010  13.157  14.720  11.296 -0.0661 -0.4073  0.3330
10202W        W26011  11.045   2.656   3.995  0.0329 -0.1945  0.0466
10203W        W26012  15.911  16.211   0.981  0.0918  0.2123  0.0774
10204W        W26013   7.035  17.469  11.282  0.3934  0.2878 -0.0151
10205W        W26014   9.041   4.997  14.683  0.3837 -0.1119 -0.2325
10206W        W26015  17.723  17.572   0.591 -0.0151 -0.2373  0.0080
10207W        W26016  18.265  14.230  13.643  0.0877 -0.2223 -0.0592
10208W        W26017   1.375   6.310   2.516  0.1042 -0.2310 -0.0727
10209W        W26018  11.682   6.738   4.758 -0.0957 -0.3824 -0.3491
10210W        W26019   1.780   1.505  14.894 -0.0858 -0.2228 -0.2665
10211W        W26020  14.236   5.140   1.347 -0.1783  0.2036 -0.0161
10212W        W26021  13.365  10.704   4.883 -0.0502 -0.0449  0.1061
10213W        W26022   2.166  16.002  12.882  0.1374  0.1460 -0.0711
10214W        W26023   1.361   0.480   2.836 -0.0208 -0.1079  0.0330
10215W        W26024   1.353  11.992   4.320 -0.1400  0.1595  0.0860
10216W        W26025   7.190   1.765  11.406 -0.1996 -0.3064 -0.0817
10217W        W26026  14.080   8.815   3.530  0.0415  0.0049  0.3544
10218W        W26027  17.255  12.204   1.577  0.1059  0.1773  0.2904
10219W        W26028   1.968   4.655   1.848 -0.0444  0.2393 -0.2261
10220W        W26029  17.106  13.066  13.004  0.0296 -0.2113  0.0816
10221W        W26030  16.089  11.215   1.765  0.0355 -0.1180  0.2967
10222W        W26031  10.354  10.508   1.930  0.1414  0.2204  0.3958
10223W        W26032  14.948  15.621  11.567 -0.0951  0.1147  0.5390
10224W        W26033  18.204   2.399  14.872  0.1907 -0.1185  0.0705
10225W        W26034  13.478   3.883   4.540  0.2105  0.0974  0.2780
10226W        W26035   8.076   7.777  12.564 -0.1275  0.0836  0.2316
10227W        W26036  14.985   1.821   3.870 -0.1441  0.0699  0.0917
10228W        W26037   8.074   5.395  11.467 -0.3105 -0.0474  0.0775
10229W        W26038   2.976   9.028   0.275  0.1460  0.5046 -0.1294
10230W        W26039  13.233   0.304  13.484 -0.2122  0.2333 -0.2896
10231W        W26040   6.727   5.249   4.589  0.2810 -0.0514 -0.0597
10232W        W26041   4.067  13.134   4.058 -0.0080  0.0141  0.0097
10233W        W26042   4.999  14.769   3.393  0.2352  0.0745 -0.1663
10234W        W26043   8.109  11.332  12.386  0.1102 -0.5393  0.1127
10235W        W26044   7.368   1.504   5.455 -0.2295  0.0210 -0.2787
10236W        W26045  16.326  10.804   4.207  0.1216 -0.2059 -0.0220
10237W        W26046   9.030   0.885  12.762 -0.1130  0.0600  0.0126
10238W        W26047   2.105   3.346  15.703  0.2012 -0.2691 -0.0602
10239W        W26048  13.739   2.120   2.143  0.1988 -0.0484 -0.2595
10240W        W26049  15.284   2.207  14.566 -0.2736 -0.1128  0.2613
10241W        W26050  13.270  14.439  13.838 -0.2028 -0.0103 -0.0338
10242W        W26051   0.581  12.342   3.103  0.0680  0.0482 -0.1560
10243W        W26052   9.771  15.864   3.244 -0.0346  0.0501  0.1802
10244W        W26053   0.268   5.216  11.163 -0.2435 -0.1279 -0.2221
10245W        W26054  13.461   0.266  11.045 -0.0140 -0.1152 -0.1757
10246W        W26055  18.007   0.334  15.242 -0.0732 -0.2634  0.0412
10247W        W26056  11.798   2.443  14.019  0.1963 -0.1786  0.1888
10248W        W26057  17.046   3.336  13.875 -0.0028 -0.1385  0.0059
10249W        W26058  15.251  13.489   1.657  0.2579 -0.0896 -0.1541
10250W        W26059   3.306  14.439   4.426 -0.0995 -0.1634 -0.2634
10251W        W26060   4.366  15.925   2.963  0.0132  0.2307 -0.0450
10252W        W26061   3.005  11.767   3.495 -0.1104 -0.1293 -0.3190
10253W        W26062   9.215   3.925   4.077 -0.2321  0.1773 -0.1249
10254W        W26063   0.575  12.576  15.142 -0.0738  0.0248 -0.2701
10255W        W26064   7.852   0.203  14.370  0.0656  0.0968  0.0837
10256W        W26065  13.167   9.118  15.454 -0.2224  0.1507 -0.0745
10257W        W26066   9.104  13.273   0.387 -0.1577 -0.1835 -0.0764
10258W        W26067  13.072  17.667   4.791  0.1654 -0.0947  0.1942
10259W        W26068   8.863  17.389  12.464 -0.2499 -0.0617  0.0501
10260W        W26069   4.572   5.085  10.965 -0.2330 -0.1290 -0.1136
10261W        W26070  16.607   0.558   5.902  0.2068 -0.1599 -0.1377
10262W        W26071   6.866   4.873   0.025  0.0682 -0.1112 -0.3768
10263W        W26072   4.982  14.129   9.928 -0.0996 -0.0915 -0.0362
10264W        W26073   4.175  11.974  15.406 -0.0609 -0.2493 -0.0031
10265W        W26074   8.944  11.330   0.594  0.2813 -0.0704  0.3718
10266W        W26075   7.513   9.741  15.110 -0.2854  0.4037 -0.1147
10267W        W26076  11.368   0.103  14.156  0.0038  0.0286 -0.0874
10268W        W26077   7.292   5.389   2.249 -0.1926 -0.1483 -0.3334
10269W        W26078   3.400   0.552  15.852 -0.1908  0.1465  0.1175
10270W        W26079   8.522   3.824   1.713  0.0036 -0.0623  0.2833
10271W        W26080   9.514   8.405   1.962 -0.1420  0.0271  0.0752
10272W        W26081   1.413  14.753   5.068  0.0770 -0.2016 -0.1234
10273W        W26082  16.409  16.583  12.473 -0.0180 -0.1978 -0.0358
10274W        W26083   7.276   2.205   5.087 -0.0041  0.2805 -0.6826
10275W        W26084   3.517   1.983  14.895  0.1327  0.2294 -0.2051
10276W        W26085   5.118   9.392   0.037  0.0669 -0.0435 -0.3222
10277W        W26086  10.195  17.926  14.086 -0.2139 -0.1348  0.3179
10278W        W26087  10.490  12.021  12.860 -0.1447  0.0228  0.1896
10279W        W26088   1.476   5.956   2.852  0.1038  0.2471  0.0646
10280W        W26089   6.711  10.605   1.744  0.0444 -0.1299 -0.1400
10281W        W26090   9.953   9.888   4.846 -0.3368  0.0501  0.1066
10282W        W26091   9.081  12.282  11.347  0.3207  0.2716 -0.1138
10283W        W26092  15.693  16.668   0.928 -0.1352 -0.0015 -0.4197
10284W        W26093   1.714   9.848   2.298 -0.0827 -0.3778 -0.1209
10285W        W26094   0.974   7.800   0.664 -0.1731  0.2463  0.0362
10286W        W26095   3.298   9.598   3.765  0.0453  0.0538  0.0806
10287W        W26096   9.105  10.338   0.849 -0.3532 -0.0218 -0.0759
10288W        W26097   4.171   8.999   1.920  0.3101  0.1358  0.2498
10289W        W26098   8.831   6.148   3.015 -0.1832  0.2128 -0.2802
10290W        W26099   5.495  12.978   0.659 -0.2136  0.1255 -0.2608
10291W        W26100  12.105   1.096  12.288  0.3360 -0.2078  0.0715
10292W        W26101   0.942   0.246  15.598  0.1081  0.1833  0.2968
10293W        W26102   8.391  18.140   5.373  0.0441 -0.0262  0.0152
10294W        W26103  12.553  14.375   2.335 -0.3367  0.2471  0.2376
10295W        W26104   5.221   8.452   5.110  0.1788 -0.0588  0.0970
10296W        W26105   8.791   4.615   4.514  0.0285  0.0885  0.0990
10297W        W26106   4.980   8.073  12.667  0.0387  0.0662  0.0260
10298W        W26107   5.246  11.946   2.982  0.1760  0.2457  0.0701
10299W        W26108  11.455  15.311   6.124  0.1770  0.1539  0.1625
10300W        W26109  14.339  12.441  14.337 -0.1661  0.0525  0.1117
10301W        W26110  11.775   2.300  14.903 -0.0490  0.1027 -0.1180
10302W        W26111   9.189   8.146  15.000  0.0591  0.0300 -0.1366
10303W        W26112  12.309   4.232  11.547 -0.0833  0.2884  0.0788
10304W        W26113   0.899   5.599   5.229  0.0743 -0.3057  0.1259
10305W        W26114   0.672  17.413   0.429 -0.0213  0.3425 -0.4091
10306W        W26115   3.914   0.455   0.038  0.1447  0.4477 -0.2824
10307W        W26116   1.200  11.580   4.083  0.2374  0.0332  0.0178
10308W        W26117  11.943   7.160   4.623 -0.0568 -0.3236  0.3086
10309W        W26118   0.795   8.170  12.342 -0.1789  0.2773 -0.0325
10310W        W26119  11.561   0.396  14.600  0.1865  0.0153 -0.2306
10311W        W26120   7.998   3.716   1.061  0.2489  0.3176  0.1243
10312W        W26121   8.374  17.028   5.295  0.2792 -0.0205  0.0267
10313W        W26122   7.091  18.131   0.649  0.1741 -0.1264  0.2510
10314W        W26123   9.515  12.132   0.957  0.0439  0.3606 -0.0676
10315W        W26124  17.689  17.099   5.686  0.2416  0.2072 -0.1078
10316W        W26125  17.675  12.252   2.114  0.3060 -0.1215 -0.1142
10317W        W26126   0.487  13.762   0.779 -0.1810 -0.0142 -0.1345
10318W        W26127  14.295  12.290   3.544  0.1020  0.0922  0.3300
10319W        W26128   7.601   0.764  15.538  0.1886  0.0560  0.4011
10320W        W26129   9.268   2.721   1.308  0.2150 -0.1010 -0.4648
10321W        W26130  17.201   9.267  11.015 -0.0674 -0.1551  0.0163
10322W        W26131   4.468  18.064  11.845 -0.0528  0.1208 -0.2095
10323W        W26132   1.692   7.597  13.630  0.1361  0.0302  0.0619
10324W        W26133  10.074   9.223  13.028 -0.2185 -0.0982 -0.0920
10325W        W26134   0.036  13.063   4.207 -0.2866 -0.2143 -0.1695
10326W        W26135   4.301   6.695   0.416  0.1066  0.4065 -0.0257
10327W        W26136   7.843   3.726  12.010  0.0725  0.0865 -0.2429
10328W        W26137  13.375  16.309   3.095 -0.2215  0.0937 -0.0101
10329W        W26138   2.472   4.420  14.355  0.0441  0.3906 -0.1065
10330W        W26139  13.670   0.357  14.907  0.0309 -0.1535  0.6303
10331W        W26140   5.832   8.043  15.493 -0.0043  0.0980 -0.0322
10332W        W26141  17.043   0.856  14.667  0.1482  0.1053  0.0454
10333W        W26142   6.057   2.000   1.903  0.0586 -0.1058  0.2546
10334W        W26143  14.781   7.938   5.453 -0.0014  0.1193  0.0737
10335W        W26144  10.454  11.253  14.026  0.5261 -0.2850 -0.0694
10336W        W26145  13.168  17.547  10.573 -0.0956  0.0353 -0.0212
10337W        W26146   3.968   1.885  12.410  0.1136  0.1710  0.1425
10338W        W26147   3.575   3.854  12.437 -0.2188  0.1631 -0.3687
10339W        W26148  11.024  16.551   0.755 -0.1684 -0.0234 -0.1224
10340W        W26149  17.382  18.339  14.007 -0.0038 -0.0356 -0.0846
10341W        W26150   3.043   5.578  14.020  0.0451 -0.4995 -0.2392
10342W        W26151  10.611  17.733   2.281 -0.1013 -0.5025  0.0595
10343W        W26152  15.126  14.710   9.977 -0.0445 -0.1075 -0.2088
10344W        W26153   3.731  18.273   2.712  0.0467  0.1418  0.2877
10345W        W26154   7.855  17.503   4.343 -0.0608 -0.0952 -0.0338
10346W        W26155  14.048  14.689  14.172  0.0625  0.0038 -0.1679
10347W        W26156   8.032  17.237   2.001  0.0513  0.2604 -0.0440
10348W        W26157  15.185   0.227   3.550 -0.2590 -0.2473 -0.2532
10349W        W26158   7.039  13.362   1.118  0.0283  0.0165 -0.3990
10350W        W26159  14.515  13.344  14.152 -0.1469 -0.0091  0.3521
10351W        W26160   1.195  18.132  13.987 -0.1778  0.1659 -0.0393
10352W        W26161   3.151  10.509   2.637 -0.1112 -0.2960 -0.2545
10353W        W26162   2.545   8.827   5.611 -0.1176  0.2254 -0.1603
10354W        W26163  12.480   1.083   2.214  0.2138 -0.3133 -0.3554
10355W        W26164  13.638  15.795   4.284 -0.3897  0.1204 -0.4982
10356W        W26165   6.070  14.828   4.770  0.0484  0.1933 -0.0104
10357W        W26166   2.283   8.600  13.871  0.3158 -0.2651  0.0346
10358W        W26167   9.735  12.688  14.961 -0.0181  0.0712  0.0270
10359W        W26168  10.686   3.153   2.901 -0.4124 -0.0894 -0.4152
10360W        W26169   7.240   4.193  10.447 -0.1058 -0.0323  0.1727
10361W        W26170   2.244   4.307   3.429  0.0950 -0.1138  0.1214
10362W        W26171  13.194  10.766  12.790 -0.0718  0.3260 -0.2486
10363W        W26172  10.564  14.946   4.705 -0.3170  0.0194 -0.3005
10364W        W26173   0.440   4.786  14.470 -0.1685 -0.0016  0.3450
10365W        W26174   0.393   9.084   3.859 -0.3137  0.0241 -0.2343
10366W        W26175   7.169   7.357   4.466 -0.1092 -0.3802  0.1930
10367W        W26176  14.622  10.561  11.322 -0.2503 -0.0412  0.0596
10368W        W26177   7.442   4.715   3.535 -0.0430  0.1875 -0.2419
10369W        W26178  11.253   4.405   2.741 -0.0214  0.1033  0.4418
10370W        W26179  17.238  11.023   4.789  0.3439  0.0883  0.0145
10371W        W26180  17.067   2.004   3.971 -0.1520  0.1121 -0.0831
10372W        W26181  13.776  14.059   2.637  0.0479 -0.2479 -0.0628
10373W        W26182   1.144  13.671   4.316 -0.4169 -0.1146 -0.2436
10374W        W26183   5.312   9.213   3.823 -0.0688  0.1749  0.2001
10375W        W26184   6.494  17.476   1.972 -0.0220 -0.0268  0.1215
10376W        W26185   1.366  11.854   0.837  0.1676 -0.2301  0.2143
10377W        W26186   4.620   9.366  15.701  0.2382  0.0198  0.2121
10378W        W26187   9.571  10.727   6.221  0.1134  0.2290  0.0638
10379W        W26188   7.836   3.071  12.703 -0.0367 -0.1617  0.1080
10380W        W26189   7.551   7.487   4.717  0.2913 -0.0453 -0.2722
10381W        W26190  12.540   1.551  12.569  0.1696  0.1406 -0.0187
10382W        W26191  15.990   2.203   2.406  0.0523 -0.0752  0.3991
10383W        W26192   1.845  18.448   1.226 -0.1662 -0.1874  0.0489
10384W        W26193   0.814  15.103   1.308 -0.1018 -0.1533 -0.2378
10385W        W26194   7.908   9.364  11.554 -0.1517  0.0641  0.1003
10386W        W26195  15.907   9.801   1.947 -0.0051 -0.1746  0.2744
10387W        W26196   7.241   1.903   4.654  0.1785 -0.1028 -0.1182
10388W        W26197   6.220   9.560   3.145 -0.3652  0.2542  0.0218
10389W        W26198   8.114   8.351  11.268 -0.1231  0.0993  0.1351
10390W        W26199  18.451   1.275   3.006  0.2004 -0.1250  0.0928
10391W        W26200  17.305   9.836   2.676  0.2742 -0.1263 -0.0931
10392W        W26201   7.424  17.970   3.084 -0.1055 -0.0941 -0.0309
10393W        W26202  11.756   9.954  15.824 -0.3011 -0.1712  0.0843
10394W        W26203  17.024  11.095  11.594  0.2241 -0.1950  0.3941
10395W        W26204  16.580  16.217   2.818 -0.0328  0.0779 -0.0778
10396W        W26205  15.174   4.065   2.493  0.4428  0.0685 -0.0780
10397W        W26206  14.514   1.589   5.190  0.1450  0.0518 -0.2435
10398W        W26207   6.614   4.177   0.367 -0.1010  0.0082  0.2702
10399W        W26208  11.448  13.155  15.138  0.0219 -0.3287 -0.1724
10400W        W26209  15.131   6.894  11.462  0.3983 -0.0689 -0.0219
10401W        W26210   3.254   6.381   0.707  0.1255  0.0956  0.0367
10402W        W26211   4.285   6.911   3.294 -0.0288 -0.0193  0.0939
10403W        W26212   2.530   1.193   5.290 -0.1016 -0.0771  0.0186
10404W        W26213  13.411  12.003  10.991  0.3132  0.1362 -0.1285
10405W        W26214  15.268   2.900  12.271  0.0384  0.3902  0.5163
10406W        W26215  13.125  13.508   2.802  0.1173  0.1734  0.3737
10407W        W26216  18.438  18.380   1.392 -0.0214  0.0499 -0.1352
10408W        W26217  12.919   2.883   1.478  0.1285  0.1448 -0.0467
10409W        W26218   1.996   8.822   4.362  0.0734 -0.2265 -0.0666
10410W        W26219   5.051  15.997  14.186  0.0357  0.0600 -0.0857
10411W        W26220   7.371  12.546  15.211  0.4211 -0.0605  0.0800
10412W        W26221   9.323  11.591   1.316  0.2392 -0.0962 -0.0337
10413W        W26222   8.414   0.743  11.117 -0.1469  0.0634 -0.0554
10414W        W26223  15.419   8.003  13.448 -0.0090  0.1708  0.3343
10415W        W26224   2.161  14.334   2.175 -0.0061  0.1162 -0.1600
10416W        W26225   5.968   1.818   3.161 -0.2229 -0.1556 -0.2007
10417W        W26226  15.553   2.427   1.288 -0.1861 -0.2270  0.0378
10418W        W26227   5.096   1.877  14.409  0.0011 -0.0088 -0.3297
10419W        W26228   3.530  10.606   5.068 -0.0198  0.4179  0.1958
10420W        W26229   2.450  16.949   5.011 -0.1642  0.1567 -0.1929
10421W        W26230  17.195  17.595   4.466  0.2607 -0.0153  0.0852
10422W        W26231   8.425   9.843  15.451  0.0659  0.0200  0.0830
10423W        W26232   6.075   0.724  14.628 -0.1009 -0.0965 -0.1088
10424W        W26233   3.190  10.546   0.781  0.0891 -0.2713  0.0191
10425W        W26234  13.443  10.442  15.614  0.2898 -0.0244 -0.0298
10426W        W26235  12.250  11.426  13.315 -0.0392  0.1331  0.0892
10427W        W26236   5.855   7.491  14.158  0.0981 -0.0566 -0.0509
10428W        W26237  13.775  18.259  11.889  0.2925  0.4122 -0.0359
10429W        W26238  13.470   3.490   4.831  0.1110 -0.0925  0.0830
10430W        W26239   1.589   2.328   0.802 -0.1349 -0.1717  0.2081
10431W        W26240  14.126   0.261  13.234  0.0767  0.3429 -0.0955
10432W        W26241   8.118  10.989  13.864 -0.2687 -0.0854  0.0275
10433W        W26242  13.566  16.739  10.939  0.2263  0.0481  0.2325
10434W        W26243  14.768   3.662   5.975 -0.1615 -0.0985 -0.0715
10435W        W26244  15.964   9.279   2.101  0.0247  0.1589 -0.2552
10436W        W26245   4.404   3.787  11.465 -0.0700 -0.2493 -0.0821
10437W        W26246  14.538  13.316  11.989 -0.3068 -0.2440  0.1608
10438W        W26247  11.272  16.035   0.029  0.0840  0.1170  0.1731
10439W        W26248  11.298  17.290  13.569 -0.1582 -0.0317  0.0448
10440W        W26249  12.233   7.583  11.681 -0.1717  0.2405  0.1892
10441W        W26250   7.420   4.282  11.400  0.2533 -0.0330 -0.2779
10442W        W26251   7.258  12.905   4.557 -0.2858 -0.1553  0.0206
10443W        W26252  13.957   7.311   2.799 -0.1318  0.1861 -0.1805
10444W        W26253  15.543   5.794  10.329 -0.1825  0.0411 -0.0924
10445W        W26254   7.761  17.340   2.502 -0.0011  0.0544  0.1844
10446W        W26255  11.605   3.752   5.992 -0.0849 -0.2239  0.0920
10447W        W26256   6.825   0.395   0.958 -0.2626  0.1566  0.0401
10448W        W26257   5.886   2.726   1.253 -0.1376  0.2925  0.1124
10449W        W26258   9.127   6.879   2.182 -0.3328 -0.0554  0.0225
10450W        W26259   8.849   3.220  14.660  0.0904  0.0123  0.3884
10451W        W26260   5.583   9.541   5.259 -0.3562  0.2292  0.1054
10452W        W26261   9.299  14.720   1.108 -0.0021  0.1480 -0.0772
10453W        W26262  16.681   6.429  12.100  0.1558  0.2286 -0.4249
10454W        W26263  10.345   7.264   1.534 -0.1127  0.2405  0.1560
10455W        W26264  10.339  17.831   4.290 -0.5501  0.0455  0.3355
10456W        W26265   3.753   9.501  14.112 -0.1199  0.1678  0.1073
10457W        W26266   9.368   3.853   1.951  0.0866 -0.0065 -0.1524
10458W        W26267   8.866  10.909   3.834 -0.1370 -0.1138 -0.0241
10459W        W26268  15.936  16.245  13.634  0.1267 -0.0240  0.0827
10460W        W26269   8.750   8.874   0.268  0.0948 -0.1369 -0.5582
10461W        W26270   7.849  11.778   4.026 -0.0582 -0.0242  0.1675
10462W        W26271  14.977   4.981   6.222 -0.0349 -0.0053 -0.1726
10463W        W26272   7.655   5.588  15.680  0.1217 -0.0238  0.2166
10464W        W26273   7.565   7.996  13.857  0.0695  0.0623 -0.0328
10465W        W26274   3.820  11.529   2.439  0.1935 -0.0438 -0.0578
10466W        W26275  14.673  13.310  11.498 -0.0982 -0.1936  0.1509
10467W        W26276   7.702   2.217  10.340  0.0013 -0.0396  0.2776
10468W        W26277   6.263   7.663   4.987 -0.1510  0.0657  0.1741
10469W        W26278  16.451  10.193  12.174  0.0416  0.0233 -0.1919
10470W        W26279  10.630   5.677  14.996 -0.0012  0.0607  0.1914
10471W        W26280   6.125   7.252   4.062 -0.2904 -0.2285  0.3696
10472W        W26281   8.381  11.540   1.665  0.0221  0.0132 -0.2206
10473W        W26282   6.257  16.512   2.176 -0.0507 -0.0732  0.0940
10474W        W26283  12.316   1.425  13.137 -0.0933  0.0176 -0.0252
10475W        W26284  18.383   0.884  12.435 -0.2566 -0.1628 -0.2261
10476W        W26285  15.057   0.100   1.781 -0.0440 -0.0772  0.1092
10477W        W26286  10.588   1.890  13.672 -0.0060 -0.1560  0.3879
10478W        W26287   4.104  16.936   2.617  0.1821  0.0849  0.1368
10479W        W26288  15.028  10.255   2.201 -0.1333 -0.0655 -0.1340
10480W        W26289   7.265   4.418   9.956  0.0607 -0.0224  0.2064
10481W        W26290  17.410   4.309  11.167  0.1654  0.1768  0.2695
10482W        W26291   5.320   3.850   2.661  0.0618 -0.0457  0.1968
10483W        W26292  13.674   1.824   5.122  0.2812 -0.1784 -0.2981
10484W        W26293   8.214   8.967   1.362 -0.1005 -0.2596 -0.4080
10485W        W26294  15.748   5.848  15.778  0.0229 -0.5273 -0.2366
10486W        W26295   3.337   6.528   5.401  0.3135  0.1138  0.0244
10487W        W26296   1.306   4.176   3.455  0.0578 -0.2946 -0.0510
10488W        W26297   1.903   6.541  14.215 -0.2072 -0.1416  0.2209
10489W        W26298  12.128  14.952   1.100  0.2474 -0.3158  0.3092
10490W        W26299   3.488   5.551   4.742  0.0804 -0.0170 -0.2072
10491W        W26300   5.840  18.439   9.966 -0.0851 -0.3461  0.0186
10492W        W26301  13.321   1.021   5.779 -0.0668  0.0966  0.0649
10493W        W26302   6.077  12.154   2.008  0.4514 -0.0889  0.0214
10494W        W26303  12.024   0.424   3.428  0.0084  0.2012 -0.2605
10495W        W26304  15.802  13.651   0.844  0.2233 -0.1228 -0.0183
10496W        W26305   6.282   0.283   5.117 -0.0443  0.0435  0.0422
10497W        W26306   8.908   8.205   4.523  0.2293 -0.0338 -0.1234
10498W        W26307   3.120   8.196   0.002  0.0634  0.0859 -0.0136
10499W        W26308   0.143  17.668   1.644  0.1769  0.1272  0.1589
10500W        W26309  15.350  16.454   4.945  0.3600  0.1067 -0.0195
10501W        W26310  14.777  11.022  14.443  0.1813 -0.2968 -0.0567
10502W        W26311   4.528  17.094  13.487  0.0045  0.0149  0.0696
10503W        W26312   4.470   2.290  15.747 -0.1992  0.1840 -0.2737
10504W        W26313  11.655  14.081   5.442 -0.0521  0.0747  0.0669
10505W        W26314   9.402   3.893   0.092 -0.2276 -0.2138 -0.2756
10506W        W26315  12.475  15.028   4.617 -0.2760  0.0301 -0.2178
10507W        W26316   5.193   7.342  12.379 -0.1817 -0.3825  0.2123
10508W        W26317   2.716   2.953  13.329 -0.1074 -0.1460  0.3504
10509W        W26318   0.128  11.184   2.599  0.2439 -0.1674  0.2000
10510W        W26319   2.131   1.794  12.882  0.0642  0.1401 -0.5464
10511W        W26320   9.784  11.700   1.425 -0.1800  0.0820 -0.1790
10512W        W26321   8.432   3.480   2.076  0.1426  0.0164 -0.0804
10513W        W26322  14.449  15.021   4.607 -0.0580 -0.0217  0.3279
10514W        W26323  12.706  18.039  13.012 -0.1168 -0.0770 -0.2345
10515W        W26324   7.182   3.934   3.027 -0.0229 -0.0458 -0.0764
10516W        W26325  17.763  15.426   0.562 -0.2561  0.0704 -0.0876
10517W        W26326   0.595   5.974  13.950 -0.0783 -0.2548  0.1719
10518W        W26327   5.159   0.815  14.942 -0.0125 -0.0382  0.3808
10519W        W26328  17.884   4.256  13.582 -0.3466  0.0742  0.0376
10520W        W26329   8.079  14.711   1.434  0.5181 -0.1964 -0.1835
10521W        W26330  11.370  16.337   0.510 -0.0212 -0.1300 -0.0283
10522W        W26331  16.239   8.497  15.104  0.2378  0.0374  0.3944
10523W        W26332  16.468  14.578   2.314 -0.1430  0.3763 -0.2337
10524W        W26333   4.511   8.309   2.903 -0.0155 -0.0538 -0.3036
10525W        W26334  13.178   1.762   5.146  0.1550 -0.1584  0.0165
10526W        W26335  11.030  14.767   5.433  0.2577 -0.0160 -0.2917
10527W        W26336  15.539   0.434  14.992 -0.1873  0.3742  0.1747
10528W        W26337  13.910   0.071  12.287 -0.1999 -0.1973 -0.0428
10529W        W26338   8.012  12.622   3.798  0.0741  0.2263  0.1657
10530W        W26339  13.561   8.388  15.632  0.0955 -0.1994 -0.1385
10531W        W26340   2.096  12.258  11.936  0.1873 -0.0494  0.0049
10532W        W26341   8.715   8.233   2.592 -0.0606  0.1552  0.0515
10533W        W26342   3.855  12.060  11.462  0.1764 -0.2010  0.0299
10534W        W26343  13.131   0.846   0.556  0.0423  0.1470 -0.0060
10535W        W26344  12.576  10.679   0.619 -0.1192 -0.2047 -0.1008
10536W        W26345   4.518   8.979  15.300  0.5151 -0.1591  0.0264
10537W        W26346  15.890  12.838   3.081 -0.0956 -0.0534 -0.1473
10538W        W26347   0.863  16.952   5.895  0.0639  0.2691  0.1890
10539W        W26348   2.065  13.721  14.602  0.0730  0.1750  0.2947
10540W        W26349  18.391   9.021   1.578  0.0238  0.0169 -0.1285
10541W        W26350   9.537   4.656   4.390 -0.1138 -0.1374  0.0949
10542W        W26351   1.878   9.138  14.967  0.1561  0.0583 -0.0362
10543W        W26352   9.272   9.175  15.105 -0.0320 -0.1295  0.0490
10544W        W26353  16.739  11.592   5.642  0.0031 -0.0371  0.2071
10545W        W26354  17.226   3.920   4.630  0.0235 -0.0301  0.1451
10546W        W26355  17.799   7.139   4.691  0.0694  0.0469 -0.2834
10547W        W26356  12.750  18.104  12.396 -0.2642  0.2038 -0.2031
10548W        W26357  15.097  11.684   2.327  0.1105 -0.0575 -0.0969
10549W        W26358   2.115  10.022  15.586  0.1660 -0.0807 -0.5740
10550W        W26359  13.628   9.758  14.972 -0.1960 -0.1969  0.0451
10551W        W26360  17.101  14.617  14.478  0.0688  0.1295  0.4298
10552W        W26361   2.165  16.681   3.088 -0.4624  0.1479  0.1076
10553W        W26362  13.619  17.446  15.069 -0.2374 -0.0231  0.0837
10554W        W26363   1.437  13.833   5.262  0.1092  0.0662  0.1735
10555W        W26364   5.870  10.585  14.793 -0.2102 -0.1356  0.2354
10556W        W26365   0.900  10.432   5.619 -0.2222 -0.0612  0.1359
10557W        W26366  10.432  13.272   1.406  0.2248 -0.1709  0.0066
10558W        W26367  12.080  13.724  10.104 -0.1614 -0.0512  0.1046
10559W        W26368  11.843   9.927  11.983  0.0639  0.1098  0.2511
10560W        W26369  15.247  11.240   2.101  0.0973  0.0482 -0.0490
10561W        W26370  17.572   4.554  14.259 -0.1987  0.1579  0.0983
10562W        W26371   9.487   5.562   3.423 -0.1282  0.4857 -0.2453
10563W        W26372  13.014  15.621  11.084 -0.1925 -0.0320  0.0595
10564W        W26373   8.868   7.008  13.502  0.0537 -0.0845 -0.0174
10565W        W26374  17.888  10.493   2.723  0.0131 -0.0706  0.3859
10566W        W26375  11.233   4.712  14.105 -0.1247 -0.0156  0.1641
10567W        W26376   5.756  13.224   3.495 -0.2807 -0.1881  0.0451
10568W        W26377  14.150  15.581   1.337 -0.1077  0.1012  0.2414
10569W        W26378  16.117   6.297   2.312 -0.0629  0.0300 -0.3653
10570W        W26379   2.369   6.449   4.425 -0.0165 -0.0153 -0.0748
10571W        W26380   7.841  11.853   3.424  0.1411 -0.0465  0.0489
10572W        W26381   5.628  18.084   4.329 -0.3434 -0.0505 -0.0851
10573W        W26382   9.755  13.244   0.865 -0.0578  0.1651  0.1844
10574W        W26383   1.018   8.630  12.419  0.1693 -0.1304  0.1227
10575W        W26384  17.968  18.016  11.562 -0.0634  0.1195  0.2469
10576W        W26385   9.491   8.293   3.794  0.1961 -0.0665  0.0460
10577W        W26386  15.014   9.571  12.328  0.0952 -0.0976  0.2668
10578W        W26387  13.854  10.477   4.179  0.3548  0.0066 -0.0441
10579W        W26388  15.014   4.068   3.552 -0.0554 -0.1456  0.0100
10580W        W26389   5.496  12.962  14.991  0.0521 -0.1314  0.0778
10581W        W26390  12.024   4.975   5.405  0.2404 -0.1671 -0.2151
10582W        W26391  13.435  15.969   2.084 -0.1024 -0.1326  0.0180
10583W        W26392   8.540   8.029   3.383 -0.0554 -0.0215 -0.0287
10584W        W26393  12.069   1.829   2.652 -0.0838  0.3224  0.4594
10585W        W26394   5.652   0.204   0.945 -0.0446 -0.0252  0.1712
10586W        W26395  17.098  15.666  13.294 -0.2334  0.0018 -0.3264
10587W        W26396   8.824   9.748   1.190  0.0881 -0.1478  0.1869
10588W        W26397  18.230   9.491   2.873 -0.0858 -0.0480 -0.0937
10589W        W26398  11.218  13.181   3.799 -0.0157  0.4256  0.1960
10590W        W26399   6.281   5.532  12.708  0.0440  0.2307  0.2816
10591W        W26400   0.395   1.022   1.122 -0.0747  0.0752 -0.0428
10592W        W26401  13.655  11.577   0.378  0.1293  0.1214  0.1640
10593W        W26402   0.296   4.452   4.035 -0.0143 -0.3533  0.1453
10594W        W26403  10.110   1.536   2.617  0.0144 -0.0997  0.1765
10595W        W26404  14.473   5.038   0.513  0.0098 -0.2724 -0.0930
10596W        W26405  14.733  16.643   2.974  0.1266 -0.3937  0.4573
10597W        W26406  14.448   2.374  12.468  0.1927  0.3055 -0.1043
10598W        W26407   6.488   2.447  12.768 -0.1523  0.0903 -0.0243
10599W        W26408  15.698  12.321  11.275  0.0167  0.2893 -0.1552
10600W        W26409   2.306  17.333   0.028 -0.0530 -0.0043  0.1849
10601W        W26410   4.760  14.435   5.926  0.1904 -0.0035 -0.0421
10602W        W26411  16.800   8.517  12.204  0.0520 -0.2532  0.1025
10603W        W26412   3.226   9.466   4.763 -0.1775 -0.2451 -0.0477
10604W        W26413   6.655   7.312   4.028  0.2598 -0.1819 -0.0443
10605W        W26414  12.802   6.263  14.011  0.1760  0.3287 -0.0475
10606W        W26415   3.697   2.217  10.131 -0.6096 -0.2734  0.1713
10607W        W26416  14.762   4.723   5.817 -0.1776 -0.0310  0.0387
10608W        W26417  16.372   4.769   4.442  0.0432  0.0469 -0.3725
10609W        W26418   4.134  15.311   0.231  0.1392 -0.5660 -0.1634
10610W        W26419  18.013   5.261   0.957 -0.0284  0.1919  0.1825
10611W        W26420  12.278  10.292   4.233 -0.0411 -0.1071 -0.0400
10612W        W26421  11.758  13.527  15.341 -0.0817 -0.0317 -0.2330
10613W        W26422  10.174  17.177  11.479  0.4039 -0.3618  0.0104
10614W        W26423   5.214   2.172   0.940 -0.1450  0.2157 -0.1524
10615W        W26424  17.241   4.731   0.798  0.0847  0.1823  0.1535
10616W        W26425  14.473   8.562   2.798 -0.0269 -0.2540 -0.0815
10617W        W26426  10.589  16.394  12.864 -0.0425 -0.1144 -0.0138
10618W        W26427   6.453   6.027  15.024 -0.2205  0.0965  0.0698
10619W        W26428   7.272   1.826  12.750 -0.0342  0.0317 -0.1978
10620W        W26429  10.371  14.252   2.487 -0.1660  0.1517  0.3939
10621W        W26430   8.460   7.412   2.710  0.1087  0.2410  0.0204
10622W        W26431  10.299   7.786   1.497 -0.0908  0.0021  0.5109
10623W        W26432  14.100   6.802   2.059 -0.0119  0.0859 -0.0798
10624W        W26433  14.300   2.315   0.219  0.1523 -0.1448  0.2225
10625W        W26434  13.692  14.999   2.773 -0.1289  0.0786  0.4618
10626W        W26435  10.668  14.143  10.539 -0.3190  0.2600  0.1466
10627W        W26436   8.486  18.390  15.167  0.3950  0.3872 -0.1856
10628W        W26437  17.815  12.185  11.937 -0.0570 -0.0190  0.1367
10629W        W26438   9.597  12.288   3.345  0.3532 -0.1248 -0.1909
10630W        W26439  18.191  16.161   0.252  0.3162 -0.1863 -0.1481
10631W        W26440  13.696   7.280   3.828  0.2223 -0.0651  0.0654
10632W        W26441  13.697   9.795  13.980  0.0254  0.1469 -0.0919
10633W        W26442   8.129  17.019  11.108  0.1388 -0.1977  0.2105
10634W        W26443   4.627   7.887  11.959 -0.1259 -0.0763 -0.2029
10635W        W26444   2.648  12.878  14.694  0.1252 -0.1763  0.2830
10636W        W26445  13.696  15.532  15.085  0.0596  0.1907 -0.3960
10637W        W26446  16.250   3.919   2.030 -0.0287 -0.1289  0.0970
10638W        W26447  16.684  12.252   1.483 -0.1158 -0.3569  0.1053
10639W        W26448   0.398  12.698   3.968 -0.0443  0.0158 -0.0439
10640W        W26449  11.221   0.934   1.093 -0.1218  0.4631  0.1935
10641W        W26450   3.333  10.043   3.344 -0.2889 -0.1280 -0.2851
10642W        W26451   5.236  17.409   1.026 -0.1573  0.1358  0.1249
10643W        W26452   9.833   7.945  13.105 -0.1034 -0.2275  0.0539
10644W        W26453   2.011  10.828  12.408 -0.1759  0.3716  0.2562
10645W        W26454  13.695   9.075   4.279  0.2600 -0.1894 -0.1635
10646W        W26455  17.328  14.769   3.702 -0.5656 -0.0822  0.1251
10647W        W26456   8.842  13.031  11.245  0.0079 -0.3285 -0.0483
10648W        W26457  13.614   8.840   3.407  0.0648 -0.1222 -0.4391
10649W        W26458   5.847  14.647  13.371  0.1709 -0.1214  0.0616
10650W        W26459   3.146  11.857  15.183  0.0582 -0.0649  0.1195
10651W        W26460  15.015  13.084  13.149  0.0966  0.3063 -0.2471
10652W        W26461  10.563   1.025  12.662 -0.1677  0.1076  0.1562
10653W        W26462  14.606  18.257   5.417 -0.3254  0.2152 -0.3545
10654W        W26463   7.165  16.224   2.103  0.0915  0.0798  0.0289
10655W        W26464   0.621   1.787   5.347  0.2538  0.1210 -0.0232
10656W        W26465  11.515   9.442   3.532 -0.1581 -0.2483 -0.0221
10657W        W26466   9.608  15.998   2.777 -0.0592  0.1047  0.2458
10658W        W26467   9.931   1.153  11.177 -0.3060  0.0416  0.0149
10659W        W26468   8.297   6.413  12.519 -0.0407 -0.5100 -0.1386
10660W        W26469   7.232  11.186   1.060 -0.0577 -0.2050  0.2821
10661W        W26470   4.524   3.690  14.238  0.1985  0.2218  0.3190
10662W        W26471   2.825   2.388  10.159 -0.1141 -0.0897  0.1355
10663W        W26472  14.863  17.487   0.042 -0.1556 -0.0066  0.0399
10664W        W26473   3.046   4.352  15.721 -0.0986  0.2776  0.1357
10665W        W26474   8.935   9.969  15.371 -0.0300  0.0449 -0.1607
10666W        W26475   6.683  18.439   0.681  0.0751  0.3364 -0.2450
10667W        W26476   4.404   4.593  11.105 -0.0423  0.1329  0.2708
10668W        W26477   8.253   4.520  10.891 -0.1849  0.2054 -0.2590
10669W        W26478  13.709  14.509  10.393  0.0005 -0.0274  0.0549
10670W        W26479  15.526  10.749   3.341  0.0707 -0.0629 -0.2110
10671W        W26480  10.675  16.303  14.008 -0.2188  0.4112 -0.1247
10672W        W26481  14.479   5.176   3.695  0.2033  0.0751 -0.0121
10673W        W26482   6.085  16.525   3.043  0.1108  0.0647  0.0868
10674W        W26483  16.288  10.075  10.912  0.0936 -0.0254  0.2641
10675W        W26484   4.828  13.872  14.933 -0.4733  0.3071  0.1342
10676W        W26485  15.998  10.494   9.853 -0.3477 -0.1235 -0.1472
10677W        W26486   3.085   1.262  13.137 -0.0719 -0.0043  0.3192
10678W        W26487  16.817  13.225   1.277 -0.0149 -0.1782  0.1904
10679W        W26488  17.697  13.563  11.267 -0.4006  0.0952  0.1567
10680W        W26489  11.335   0.698   2.520  0.1186  0.1484  0.1023
10681W        W26490   4.525   3.277  15.091 -0.1436  0.0678 -0.1759
10682W        W26491   6.953  14.912   1.325  0.0677 -0.1199  0.0002
10683W        W26492  14.080  13.660  12.163  0.1747  0.0728 -0.0373
10684W        W26493  16.025   2.814   3.156  0.0764  0.0533 -0.0502
10685W        W26494  13.327   2.129   4.772  0.0016  0.0739 -0.2304
10686W        W26495   1.015  17.383  15.389  0.0887 -0.0098  0.0430
10687W        W26496   4.352   0.531  12.445  0.1651 -0.0479 -0.1571
10688W        W26497   8.563   1.123  14.574 -0.0128  0.0511 -0.1198
10689W        W26498   5.857   1.440   4.635 -0.0867  0.1121 -0.1219
10690W        W26499  12.616   1.708  15.620  0.0973 -0.0469  0.1247
10691W        W26500   6.989   5.343  13.110  0.3433 -0.0927  0.2243
10692W        W26501  13.894   1.417  14.852  0.0184  0.0061 -0.0803
10693W        W26502   4.428   6.920   2.793  0.1180 -0.0307 -0.0704
10694W        W26503  17.409  16.244   3.176 -0.4237 -0.0410  0.1040
10695W        W26504   1.122  13.490  15.847  0.0215  0.4210 -0.0546
10696W        W26505  15.361  16.055   0.465  0.4410  0.2329  0.0980
10697W        W26506  15.823   7.705  13.875  0.2059  0.0435  0.3509
10698W        W26507  16.835  14.632   0.680 -0.1703  0.1508 -0.0459
10699W        W26508  12.463  11.466  12.026 -0.3242  0.0913 -0.3630
10700W        W26509   1.545  11.219   0.342 -0.0638  0.0208  0.1245
10701W        W26510  12.031  10.397   0.058 -0.0984  0.0066  0.1611
10702W        W26511   0.649   0.966  15.714  0.0855 -0.2484  0.0492
10703W        W26512  18.234   0.451   3.607 -0.3266  0.1218  0.1012
10704W        W26513   7.813   3.008   3.194 -0.1663  0.4244  0.2053
10705W        W26514   8.087  12.077   5.737  0.0047  0.2620 -0.1261
10706W        W26515  16.673  18.275   3.912 -0.1279  0.2005 -0.0930
10707W        W26516   5.842   8.780   4.690 -0.2293 -0.0385 -0.3014
10708W        W26517   0.890  14.384  12.151 -0.0960 -0.1255  0.1870
10709W        W26518   3.256   6.916  11.551  0.0736  0.0417  0.0118
10710W        W26519   7.872   2.057   2.117  0.2658  0.0075  0.1870
10711W        W26520  18.353  17.205   1.796 -0.0794  0.2229 -0.0574
10712W        W26521   8.696   4.497  14.774 -0.3310 -0.0607  0.3376
10713W        W26522  17.098   7.282   2.977  0.0708 -0.1192  0.0249
10714W        W26523   8.225   7.373  12.880 -0.0451 -0.0331  0.0608
10715W        W26524  16.984   8.715   3.292  0.1924  0.0631  0.1054
10716W        W26525   7.695  15.749   2.933  0.1597 -0.0909  0.0303
10717W        W26526  11.521   4.236   0.140 -0.3595 -0.1490  0.0366
10718W        W26527   3.585   2.646  14.260  0.4684  0.1280 -0.1513
10719W        W26528  18.461   4.873   3.623 -0.0665  0.0792  0.0355
10720W        W26529  15.200  11.460   4.176 -0.1442 -0.1278  0.0673
10721W        W26530  11.505  13.107  12.607 -0.2359 -0.1007 -0.0011
10722W        W26531   6.390   1.079   0.120  0.0120 -0.0500  0.5827
10723W        W26532   6.603   5.345   5.078  0.0942  0.2314  0.0889
10724W        W26533   7.414   4.754   2.897  0.1672 -0.1160 -0.2375
10725W        W26534  14.418   8.892   1.688 -0.0094  0.0239 -0.1726
10726W        W26535   4.670   2.145   0.328  0.1635 -0.0661 -0.0231
10727W        W26536   9.832   6.316   4.802 -0.0046 -0.1418 -0.3091
10728W        W26537   0.780   5.301   4.562  0.3652 -0.1394 -0.0958
10729W        W26538  13.290  10.822   3.403  0.0671 -0.0464 -0.3592
10730W        W26539   2.952  18.254  13.111 -0.0898 -0.1569  0.0449
10731W        W26540   4.910  14.335  13.130 -0.0003  0.0646  0.2595
10732W        W26541   7.989   1.199  12.445 -0.0330  0.0326  0.1610
10733W        W26542  17.249  12.261   4.855  0.0546 -0.1297 -0.2662
10734W        W26543   2.874   9.909   3.745 -0.1111  0.0616  0.0518
10735W        W26544   1.933   9.499   1.873  0.1063  0.0091  0.0208
10736W        W26545  16.351  11.106   0.783 -0.0015 -0.0304  0.1913
10737W        W26546  13.462  15.068  15.139 -0.1358  0.1183  0.2183
10738W        W26547   6.923  10.262   2.667 -0.0074 -0.2677 -0.1430
10739W        W26548  14.895   1.419   1.193  0.0615  0.2428  0.2135
10740W        W26549   7.849  15.248   1.538 -0.0782  0.0788  0.1532
10741W        W26550  12.959   5.054   4.359 -0.1841 -0.4078 -0.0474
10742W        W26551  13.259   9.362   0.207  0.1825  0.3232  0.2916
10743W        W26552   1.071   1.747   5.649  0.1904 -0.2521  0.4945
10744W        W26553   5.168  17.834  13.176  0.1174  0.0531  0.0014
10745W        W26554  13.185  16.308   5.071  0.1149 -0.0960  0.2078
10746W        W26555   5.403  10.016   4.239 -0.1893  0.2973  0.0073
10747W        W26556  17.829   0.672   4.250  0.4425 -0.2257 -0.3731
10748W        W26557   2.296  14.921   5.406  0.0212 -0.0306 -0.1914
10749W        W26558   8.555  10.847  15.324 -0.0851  0.1634  0.0527
10750W        W26559   0.831  15.560   4.615  0.1737 -0.0617  0.4051
10751W        W26560   8.674   7.629  11.044  0.1115  0.1437  0.0223
10752W        W26561   4.718   8.786   1.985 -0.0719  0.1633  0.0096
10753W        W26562   4.648   6.100  14.818  0.4610  0.1234 -0.1443
10754W        W26563   8.978   9.114  14.292  0.0934 -0.1107  0.1326
10755W        W26564   7.387   2.486  15.694  0.1628  0.2751  0.0301
10756W        W26565  12.751  17.592   5.988 -0.1055 -0.1043 -0.0001
10757W        W26566  15.831   8.934  13.541  0.1667 -0.2651 -0.3503
10758W        W26567  13.370  10.168  13.966 -0.2078  0.3490  0.0373
10759W        W26568  16.106   8.909   5.583  0.1027 -0.2312  0.0375
10760W        W26569   8.720   6.826  11.326 -0.1511 -0.1569  0.0587
10761W        W26570  16.805  15.932   3.789 -0.0650  0.1425 -0.1834
10762W        W26571  15.684  13.340  15.808 -0.0062  0.1087  0.1849
10763W        W26572  10.191  11.251   3.773  0.2683  0.1055 -0.0492
10764W        W26573   9.971  17.407  14.588 -0.0178 -0.4141  0.1160
10765W        W26574   1.880   6.818   5.835 -0.0902 -0.1614  0.2447
10766W        W26575  16.407  14.025   2.394  0.2784  0.0697 -0.2609
10767W        W26576   4.032  11.710  14.006  0.1432  0.1141  0.0783
10768W        W26577  10.669   3.611   4.760  0.1341  0.2490  0.1025
10769W        W26578   2.036   7.854  15.504 -0.0437 -0.1316 -0.2539
10770W        W26579   5.508   8.591  13.598 -0.0503 -0.0911 -0.3290
10771W        W26580  16.585  12.846   1.560 -0.4117  0.2184 -0.1001
10772W        W26581  16.007   9.522   0.969 -0.2420  0.1385  0.0906
10773W        W26582  14.976  12.232   2.167 -0.1691 -0.1490 -0.0836
10774W        W26583   7.255  11.835   5.348 -0.1086  0.0644  0.0008
10775W        W26584  11.456   7.758  13.451  0.0762  0.1826  0.1419
10776W        W26585   3.118   2.643  12.219  0.2052  0.0340 -0.0006
10777W        W26586   2.261  12.320   1.680  0.2216  0.1931 -0.0566
10778W        W26587  11.393  17.916  15.439  0.0190 -0.1088  0.2373
10779W        W26588   4.322   5.075   5.045  0.2054  0.2691  0.1787
10780W        W26589   3.583   3.029   1.606  0.2748 -0.2006  0.0796
10781W        W26590  17.073  14.637  12.063  0.0353 -0.0906 -0.1543
10782W        W26591  12.726  15.280   4.258 -0.1815 -0.1275  0.4467
10783W        W26592  14.263   1.541  13.762 -0.2126 -0.1094  0.0110
10784W        W26593   6.743   6.421   5.610 -0.0808 -0.2599  0.0557
10785W        W26594   9.614  17.100  15.732  0.3979 -0.2884  0.2719
10786W        W26595   8.686  11.330   6.013 -0.0053 -0.0942 -0.0899
10787W        W26596  14.630  14.914   3.037 -0.1730 -0.0302  0.1712
10788W        W26597  11.057   9.669   3.836  0.3635 -0.0739  0.1553
10789W        W26598   8.492  14.574   0.211 -0.1188 -0.2374 -0.3793
10790W        W26599   3.996  10.821   5.102  0.0020  0.0626  0.0079
10791W        W26600   0.626  13.541  15.554  0.2309 -0.1693 -0.0438
10792W        W26601   5.170   9.437   5.059 -0.1202  0.2163 -0.1797
10793W        W26602  18.426  16.822  12.924  0.0601 -0.0137  0.1611
10794W        W26603  16.436  17.424  10.097 -0.0679 -0.0012  0.1772
10795W        W26604  13.986  11.964  12.134 -0.0185  0.2727 -0.0099
10796W        W26605  15.736  16.564  11.074  0.1889 -0.0264 -0.0489
10797W        W26606   7.542  15.060   5.871  0.1683  0.1529  0.0758
10798W        W26607   5.101   3.310   2.033  0.2139 -0.0437  0.1693
10799W        W26608  10.303  14.590   3.916 -0.2229 -0.0579 -0.0276
10800W        W26609  10.856  12.060   0.002 -0.0730 -0.0035 -0.0508
10801W        W26610  17.228   0.574   1.003 -0.1730  0.0576 -0.1580
10802W        W26611  13.919   7.429  15.819  0.2381  0.2827  0.1586
10803W        W26612  14.459   5.742  15.431 -0.0539 -0.0148 -0.0006
10804W        W26613  15.199   5.998  12.557  0.0165 -0.0309 -0.4222
10805W        W26614   8.137   3.887  14.288  0.0434 -0.3043 -0.4224
10806W        W26615  17.151  14.468  10.720 -0.1059  0.1181  0.1033
10807W        W26616   4.229  12.335  11.216  0.1061 -0.0287  0.0754
10808W        W26617  11.264   1.949   3.641 -0.0467  0.0639  0.3080
10809W        W26618   7.268   7.515  14.475  0.0514 -0.3082 -0.1173
10810W        W26619   7.507   4.975   3.951 -0.0977  0.2008  0.1374
10811W        W26620  11.634   8.535   1.572  0.0573  0.1045 -0.0151
10812W        W26621   6.688  14.464  13.482  0.0496 -0.0224 -0.2186
10813W        W26622   6.920  16.400  14.139  0.0936  0.0722 -0.1198
10814W        W26623   8.928   3.497   3.075 -0.1262  0.0137  0.1035
10815W        W26624  12.272   1.207  10.857  0.1824 -0.3612  0.0390
10816W        W26625   7.210   8.468  15.379  0.2195 -0.1283  0.0814
10817W        W26626   4.141  10.984   4.604 -0.4194  0.0520 -0.0643
10818W        W26627  17.940   8.005  13.424  0.2321 -0.1938  0.1379
10819W        W26628   2.156  12.590   5.626 -0.0565  0.0634 -0.0980
10820W        W26629  12.539   9.824  14.192  0.1136 -0.0793 -0.1912
10821W        W26630   0.408   7.454   2.793  0.2136  0.0171  0.0259
10822W        W26631  14.936   5.349   1.617  0.0042 -0.3257  0.1488
10823W        W26632   0.925  10.879   3.939 -0.2330 -0.0216  0.1072
10824W        W26633  15.023  12.424  14.591 -0.0566  0.1304 -0.1154
10825W        W26634   3.005  10.190   2.960 -0.1334  0.2108 -0.0581
10826W        W26635  17.005   9.112   0.952  0.2612  0.1207 -0.2058
10827W        W26636   6.801   4.754  14.436 -0.3815  0.1228 -0.0499
10828W        W26637  18.444   7.785   4.208 -0.0401  0.3492  0.0006
10829W        W26638  13.806  10.043  11.771  0.1376  0.1095  0.1692
10830W        W26639  11.596  17.720   3.196 -0.2449  0.0751  0.0244
10831W        W26640   9.445  13.007   2.749  0.5130  0.1640 -0.0236
10832W        W26641   7.805   1.332  11.917  0.0038 -0.2525  0.1982
10833W        W26642   3.089  16.372   3.856 -0.0649 -0.4222 -0.2934
10834W        W26643   8.622   1.984  10.810  0.0771 -0.2711 -0.1285
10835W        W26644   6.829  13.052   5.000 -0.0618 -0.2914 -0.4635
10836W        W26645  10.869   4.217  15.343  0.3555  0.0505  0.2438
10837W        W26646  14.344   1.653   3.379 -0.1350 -0.1742  0.1699
10838W        W26647  18.262  10.471   3.648  0.0110  0.1502  0.2881
10839W        W26648  16.477   3.393   0.015 -0.2283  0.0339  0.2252
10840W        W26649   6.693   5.435  13.944 -0.2239 -0.0828  0.0707
10841W        W26650   4.167   9.924   1.527 -0.0021  0.1328 -0.0759
10842W        W26651  14.622  17.718   1.679  0.2774 -0.0990 -0.3770
10843W        W26652   2.925   9.637   1.355  0.1747  0.0393  0.0112
10844W        W26653   5.737  14.579   4.038  0.0207  0.1170  0.1889
10845W        W26654   0.420  14.944  13.287 -0.1176 -0.0769  0.0310
10846W        W26655   9.993  17.236  15.341 -0.0373 -0.0393  0.2357
10847W        W26656   4.425  13.956   3.589  0.0664 -0.0556 -0.0121
10848W        W26657   9.032   7.425  10.171 -0.1983  0.2775 -0.0966
10849W        W26658  16.419   1.377   1.786  0.1474 -0.0253  0.1320
10850W        W26659  17.874  13.979   2.884 -0.1368 -0.1391  0.2387
10851W        W26660  15.298   3.849  15.157  0.2075 -0.0485  0.0734
10852W        W26661  12.167  15.074   3.856  0.1124 -0.1510 -0.0576
10853W        W26662   5.251  14.472   3.822 -0.0115 -0.2275 -0.1145
10854W        W26663  13.771   8.808  14.112 -0.1241 -0.0536 -0.0913
10855W        W26664   1.999   4.600   2.338 -0.0318  0.2724  0.0616
10856W        W26665  17.105  12.931   2.293 -0.0585 -0.0894 -0.1363
10857W        W26666  16.168  12.728  13.863 -0.1273 -0.0461  0.0582
10858W        W26667  13.583  13.580   2.535 -0.1451 -0.0166 -0.0668
10859W        W26668  13.678  11.060   0.521  0.0045  0.0097  0.0782
10860W        W26669  15.441   2.984  15.587  0.0522 -0.1614  0.0529
10861W        W26670  18.410   7.288  15.516 -0.3878 -0.2481 -0.0111
10862W        W26671   7.175  11.247  13.423 -0.1121  0.5272  0.0506
10863W        W26672  10.862  12.491   5.263  0.0330  0.1073 -0.3178
10864W        W26673   5.830  15.962  12.777  0.0332  0.0475  0.1970
10865W        W26674   2.207  13.472   4.562  0.1162 -0.1139 -0.2308
10866W        W26675   8.442   9.722   0.366 -0.1445  0.0145 -0.2342
10867W        W26676   5.614  13.975   4.621 -0.0323 -0.0424 -0.1702
10868W        W26677   9.880  13.800  11.121  0.1584  0.0058 -0.2166
10869W        W26678   4.066  15.356  13.688  0.2763 -0.0023  0.0871
10870W        W26679   9.131  15.423  10.836  0.0279  0.1561  0.1891
10871W        W26680  15.774  16.094   2.788 -0.0969 -0.1293  0.3983
10872W        W26681  12.035  11.190   5.962  0.2420  0.2734  0.1760
10873W        W26682  16.565   9.922  13.473 -0.1572 -0.1230  0.0449
10874W        W26683  15.472   0.495   1.017 -0.0997 -0.2376  0.0385
10875W        W26684   2.615   6.581  15.836  0.2208  0.2467 -0.3006
10876W        W26685   4.080  16.394   0.667  0.2288  0.2633  0.2576
10877W        W26686   9.633   4.165   4.171  0.1575  0.0425 -0.0841
10878W        W26687  11.011  16.537   5.477  0.0501 -0.2608  0.2818
10879W        W26688   7.261  17.621  14.792 -0.2289  0.0107  0.1128
10880W        W26689  14.734  10.628  14.690 -0.0102 -0.0222 -0.0451
10881W        W26690   8.731   5.036   3.815  0.2625  0.0401  0.0820
10882W        W26691  16.822  15.794   1.288  0.0018 -0.1211  0.4905
10883W        W26692  13.916  15.495   0.194  0.0220  0.0030  0.2764
10884W        W26693  13.101   8.838   2.460 -0.1244  0.1409  0.1845
10885W        W26694  11.690   1.489   0.204  0.1033 -0.0381  0.2845
10886W        W26695  14.128  15.912  12.188 -0.2938 -0.2158 -0.1594
10887W        W26696   8.573   2.580   5.574  0.3975  0.0972 -0.2781
10888W        W26697   6.978   9.796  11.383  0.1300  0.0054 -0.0862
10889W        W26698   7.226   8.197   0.346  0.0877 -0.3301  0.0902
10890W        W26699  16.230  15.819   0.898 -0.0110  0.3597 -0.0191
10891W        W26700   3.990  11.504   4.524  0.1068  0.3353 -0.2716
10892W        W26701  17.135  16.815   3.952  0.0630  0.0493 -0.4510
10893W        W26702   1.647  11.083  13.332  0.1773  0.1228  0.1793
10894W        W26703   2.819  10.847   3.866 -0.1366 -0.0666  0.2871
10895W        W26704   6.922   5.360  15.037  0.2536 -0.0749  0.2863
10896W        W26705   6.085   5.787   0.678  0.1851 -0.0309 -0.0099
10897W        W26706  12.447   5.840  10.502  0.4000 -0.0124  0.0936
10898W        W26707  14.284  10.564  12.458  0.2191  0.0482  0.1895
10899W        W26708   1.905  14.587   2.494 -0.1732 -0.0507 -0.1697
10900W        W26709   2.814   9.473   3.979  0.0468 -0.3607  0.1387
10901W        W26710  14.770  12.766  13.462  0.0235  0.1467 -0.2336
10902W        W26711   5.575   4.187  11.743 -0.0413  0.1400 -0.1590
10903W        W26712  17.295   3.645   3.077  0.0593  0.0922  0.0967
10904W        W26713   1.469   8.771  14.278  0.0165 -0.2475 -0.2972
10905W        W26714   7.108   5.200  14.605 -0.0058  0.2266 -0.2266
10906W        W26715  13.421   9.757   0.017 -0.1088  0.0763 -0.2035
10907W        W26716   1.960  11.412   0.205 -0.0257  0.5643 -0.0024
10908W        W26717  17.168   6.006  12.904 -0.0909 -0.2768  0.1790
10909W        W26718  17.179   5.989   5.033 -0.0750  0.0156  0.0803
10910W        W26719  14.549   9.825   2.431  0.1430  0.1215 -0.0081
10911W        W26720   2.564   3.073  15.769 -0.1295 -0.1723  0.0537
10912W        W26721   3.168   1.648  12.341  0.1390 -0.0243 -0.0610
10913W        W26722  16.865  13.759   1.061  0.0417 -0.0692  0.1622
10914W        W26723   1.399  12.173  10.245  0.0953 -0.3478 -0.1046
10915W        W26724  17.443  13.059   0.711  0.1204  0.0939 -0.0942
10916W        W26725   4.233   5.511   3.178 -0.2353 -0.0902 -0.1255
10917W        W26726   5.699   8.131  14.938  0.1198  0.3197  0.0367
10918W        W26727  13.778   2.460   1.605  0.0928  0.2265 -0.2593
10919W        W26728   0.123   8.972  14.268 -0.0248 -0.1939  0.1039
10920W        W26729   8.339   4.231   2.741  0.0149 -0.1186 -0.1651
10921W        W26730   1.269   6.816  12.599 -0.0862  0.1222  0.0451
10922W        W26731  16.287  14.165  10.747 -0.1435  0.0623 -0.1584
10923W        W26732   9.472  16.515  11.571  0.0747 -0.2616  0.2696
10924W        W26733  11.495  13.886  11.954 -0.3303  0.3565 -0.3775
10925W        W26734  16.823  17.685  10.840  0.3587  0.0048  0.1319
10926W        W26735  17.264  11.332   0.446 -0.1159  0.2510 -0.1857
10927W        W26736   8.509  16.399   1.713  0.0341 -0.2431 -0.0173
10928W        W26737   0.099   2.630   1.315  0.1523  0.1267  0.1314
10929W        W26738   4.139   2.438  15.021  0.0547  0.0156  0.2125
10930W        W26739   9.893  17.044   4.250 -0.0115 -0.4568  0.0826
10931W        W26740   9.792  13.227  11.938  0.0399 -0.1762  0.0784
10932W        W26741   7.796  10.071   3.367  0.0241  0.3791  0.0536
10933W        W26742   4.210   3.968   4.858  0.1215 -0.1516 -0.2565
10934W        W26743  11.211   6.915   4.971 -0.1407  0.1025 -0.3129
10935W        W26744   0.810  17.845  14.031  0.0917 -0.1336  0.0841
10936W        W26745   1.583   9.501  13.148 -0.2055 -0.2845  0.0935
10937W        W26746   0.018   4.863  13.500  0.1337  0.1675 -0.2090
10938W        W26747  15.600   9.924   2.918  0.2206  0.1439  0.0650
10939W        W26748   1.123   6.978  12.135 -0.0403  0.1544  0.1344
10940W        W26749  10.373   7.534   2.959 -0.1450 -0.0956  0.2437
10941W        W26750  13.079   2.026   1.131 -0.2100 -0.1320 -0.1217
10942W        W26751  16.744  18.387   5.185 -0.1210 -0.2496 -0.1238
10943W        W26752  13.562  17.358   4.213 -0.5128  0.3089 -0.2724
10944W        W26753  17.627   3.494  14.411  0.2046 -0.0826 -0.0773
10945W        W26754   2.011  12.596   0.899  0.1532  0.0326  0.3542
10946W        W26755  14.998   3.685  14.719 -0.0782 -0.1346  0.1458
10947W        W26756   3.823   8.660   4.015  0.2528 -0.0502  0.1022
10948W        W26757  11.490  10.529  13.418  0.3502 -0.3128 -0.0623
10949W        W26758   6.446  14.037  14.718 -0.0851 -0.0454 -0.2236
10950W        W26759   1.432   6.736   5.617  0.3217 -0.4716 -0.2687
10951W        W26760   7.082   1.695   0.440  0.1189  0.2740 -0.3848
10952W        W26761   5.631  10.166  15.634  0.0649 -0.0176 -0.1839
10953W        W26762   2.311  15.001  14.969  0.0393  0.0387 -0.1037
10954W        W26763   1.570   5.528   2.136 -0.0325  0.0797 -0.1350
10955W        W26764  16.631  16.034   1.760 -0.2215 -0.0934  0.3178
10956W        W26765  15.408  15.471   2.860  0.1400 -0.0406  0.0178
10957W        W26766  11.719   6.182   2.449  0.0901  0.0181 -0.2693
10958W        W26767   5.688  11.450   1.365  0.0217 -0.0743 -0.1136
10959W        W26768   8.006   1.836  10.219 -0.1831 -0.0507 -0.4069
10960W        W26769   3.649   2.617  11.832  0.2410  0.5091 -0.0273
10961W        W26770   9.945  14.214   3.096  0.0870 -0.2709 -0.1268
10962W        W26771  16.068  11.374   3.588 -0.0754 -0.1548 -0.3445
10963W        W26772  17.918   6.751  13.800 -0.2097  0.0345 -0.0723
10964W        W26773   9.671   5.898  14.846 -0.1805  0.2023 -0.2529
10965W        W26774  12.914   7.707   0.737 -0.1636 -0.0722  0.0076
10966W        W26775   1.190   3.114  10.674 -0.1704 -0.1497 -0.3587
10967W        W26776  12.352   4.007   2.653  0.3623  0.0909 -0.3059
10968W        W26777  11.575   3.279   5.763  0.2816 -0.0353  0.3088
10969W        W26778  10.589  15.067   3.782  0.1082 -0.0020 -0.2300
10970W        W26779   3.228   0.423  14.657  0.0566 -0.2084  0.1493
10971W        W26780   9.387  13.278  14.545 -0.2040  0.1297  0.1558
10972W        W26781   1.583   5.470   1.624 -0.3240  0.0621 -0.2668
10973W        W26782   0.196  12.024  13.432 -0.0069 -0.0924 -0.1750
10974W        W26783   9.005  12.551  15.719 -0.0764  0.2960 -0.2527
10975W        W26784   3.742   7.148   3.417 -0.0236  0.0138 -0.2234
10976W        W26785  10.390  14.906  12.783  0.2047 -0.0512  0.0932
10977W        W26786   1.204   9.993   2.404  0.1589  0.0779  0.0595
10978W        W26787  17.582   2.094   4.687 -0.2469 -0.2470  0.0435
10979W        W26788  15.641   5.287   3.874  0.3610 -0.0407  0.1910
10980W        W26789   5.913  12.540   2.844 -0.1335 -0.1952 -0.1577
10981W        W26790  11.694  15.944   3.404  0.0019 -0.0055 -0.5163
10982W        W26791  18.146  11.565  10.307  0.1864  0.0322 -0.1224
10983W        W26792   5.038   1.869  12.371  0.0784  0.2541  0.0008
10984W        W26793   2.992   7.922  13.047  0.1225  0.0278  0.2658
10985W        W26794   6.374  13.385  12.939  0.0432  0.2317 -0.1917
10986W        W26795   4.330  15.393  15.124 -0.0942  0.2273  0.2228
10987W        W26796  15.579   2.943   5.857 -0.2304  0.2187  0.1738
10988W        W26797  14.876   4.804   3.641 -0.2147  0.1165  0.0375
10989W        W26798   1.130  15.284  13.156  0.2053 -0.1487 -0.0459
10990W        W26799  13.641  11.008  12.040 -0.2338 -0.2506 -0.2993
10991W        W26800   0.553   4.500   3.088  0.0997 -0.3016 -0.1019
10992W        W26801   6.953  17.890  14.399 -0.0087 -0.2227 -0.1963
10993W        W26802  15.720  14.814  12.705 -0.0961 -0.2782  0.2494
10994W        W26803  14.941  10.666  10.876 -0.0666 -0.0158  0.0924
10995W        W26804  11.472  11.060  15.400 -0.1843 -0.1194  0.1325
10996W        W26805  10.619  15.627  14.977  0.0200 -0.1036  0.1184
10997W        W26806  15.003   9.979  12.050 -0.1607  0.1255  0.0680
10998W        W26807  10.749   0.749   0.242 -0.0493  0.2795 -0.0557
10999W        W26808   6.187  10.370   3.547  0.0014  0.1789 -0.0369
11000W        W26809   8.216   9.867  10.815  0.0601 -0.1225 -0.2127
11001W        W26810   6.725   4.856  11.924 -0.0199 -0.3530  0.0284
11002W        W26811  10.412   7.766  14.620 -0.0608  0.0186  0.1653
11003W        W26812   9.165   8.626  11.439  0.1095 -0.1557 -0.2644
11004W        W26813  10.527   9.874   2.421 -0.0234 -0.0622  0.1083
11005W        W26814  18.255   9.399  13.440 -0.0397  0.0092 -0.1624
11006W        W26815  17.641  17.941   5.025 -0.0018 -0.1416  0.1779
11007W        W26816   9.152  11.019   1.938  0.0072 -0.2004  0.0677
11008W        W26817   2.047   9.193   3.951  0.1810 -0.0762  0.2789
11009W        W26818   6.741   9.976  13.810  0.0769 -0.2696 -0.0505
11010W        W26819   3.802  13.499  13.811 -0.2238 -0.0232  0.0117
11011W        W26820  12.258   8.914  14.518  0.1536 -0.2348  0.1120
11012W        W26821   0.776   1.606   3.339  0.1932  0.4018 -0.1664
11013W        W26822  17.140   8.188  14.931  0.1711  0.2144  0.0502
11014W        W26823  17.341  12.568   1.004  0.0401  0.0430  0.2326
11015W        W26824  16.426   7.345  10.117  0.0345 -0.0127 -0.2039
11016W        W26825   5.987   6.160  15.262  0.3511  0.2866  0.2639
11017W        W26826   7.735   9.964   4.259  0.2104  0.1985 -0.1494
11018W        W26827   8.701  10.788  11.633 -0.0391 -0.0861 -0.1236
11019W        W26828  12.543   7.278   4.010 -0.3881  0.0530 -0.1202
11020W        W26829   1.336  10.362  15.477 -0.4155 -0.1639  0.1898
11021W        W26830  15.481   9.716  12.193  0.1950  0.0314  0.2066
11022W        W26831   2.155  17.269  14.171 -0.0941  0.2477 -0.2153
11023W        W26832   3.661   7.590  10.954 -0.2098  0.0269  0.1549
11024W        W26833  11.366   3.537   0.632  0.1272  0.0964  0.1972
11025W        W26834  13.034   0.932  14.194 -0.0128  0.0990  0.1246
11026W        W26835   0.411  13.274  14.047  0.0929 -0.2353 -0.0192
11027W        W26836  15.605   6.087   1.433 -0.2689  0.2137  0.0969
11028W        W26837  18.063   8.037   2.965  0.1602 -0.1119 -0.1095
11029W        W26838  17.064  13.837   3.827  0.1409 -0.0141  0.2900
11030W        W26839  14.510   7.417  11.348 -0.1707  0.1383  0.0672
11031W        W26840   4.071  17.421  11.013 -0.1077 -0.0395 -0.4158
11032W        W26841   5.735  10.834   4.257 -0.2324 -0.0741  0.0428
11033W        W26842  10.570  12.187  10.736  0.1180  0.2569 -0.0007
11034W        W26843  16.278  18.350  15.680 -0.0885  0.3885 -0.2260
11035W        W26844   6.105   9.129  12.652 -0.2081  0.0684  0.1080
11036W        W26845  12.526   1.252  15.735  0.1871  0.1323  0.3109
11037W        W26846  14.534   8.668  15.175 -0.1484  0.2850  0.1571
11038W        W26847  12.088  10.358   2.250 -0.1363 -0.1408 -0.1054
11039W        W26848  10.959  13.450  13.521  0.1256 -0.1399 -0.0992
11040W        W26849  13.599   7.104  11.345 -0.0239 -0.0243  0.0105
11041W        W26850   0.140  17.228  11.319 -0.0250 -0.1507  0.1335
11042W        W26851  12.749   7.979  12.299 -0.1324  0.0660  0.0699
11043W        W26852  13.788  10.001   1.365  0.0911 -0.0250  0.3125
11044W        W26853   8.046  14.378   2.188 -0.1369 -0.0032 -0.1142
11045W        W26854  17.169   7.194   3.956  0.0194  0.0498 -0.0691
11046W        W26855   4.753   2.623   0.115 -0.1741 -0.5666 -0.1742
11047W        W26856  15.761   1.738   4.881  0.0338 -0.5281  0.3299
11048W        W26857   4.206  13.338  14.262  0.0220  0.0969  0.0446
11049W        W26858  12.321   1.338  13.773 -0.1027  0.1316 -0.1828
11050W        W26859   3.006  17.247  12.041 -0.2400  0.4276  0.1563
11051W        W26860  17.589  18.300   5.387 -0.0020 -0.0974  0.0667
11052W        W26861  15.891   6.744  15.507 -0.2743 -0.1176 -0.0728
11053W        W26862  11.176   3.732  13.214  0.1515 -0.1515  0.3617
11054W        W26863  18.358  11.654  10.761  0.0626  0.1039 -0.2788
11055W        W26864   1.063  17.095   0.585  0.1097  0.1433  0.1480
11056W        W26865   3.380  13.504  12.818  0.2434 -0.0432 -0.0189
11057W        W26866  13.076  11.432  10.848  0.0929 -0.0075  0.1691
11058W        W26867   0.238   7.549   6.280 -0.1835 -0.0974 -0.2139
11059W        W26868   0.677   8.698   2.736 -0.1490  0.1236 -0.1229
11060W        W26869  10.292   3.116   4.126 -0.1116  0.1794  0.2057
11061W        W26870  18.284  15.197   9.961 -0.1470  0.2163  0.0474
11062W        W26871   1.841   3.399  12.128  0.0705  0.4185 -0.1178
11063W        W26872   7.893   3.560   2.287 -0.2617  0.0532 -0.0324
11064W        W26873  11.966   3.172   4.736  0.2821 -0.0256  0.0382
11065W        W26874   6.354   2.966   3.513 -0.1122  0.0573 -0.0239
11066W        W26875  14.627  14.246  10.935  0.0814  0.2157  0.0309
11067W        W26876   9.144  11.098  10.005  0.3035 -0.1601  0.0878
11068W        W26877   6.616   7.294   3.039  0.0600  0.2398  0.0465
11069W        W26878   0.586   0.102  14.703  0.0979 -0.0836  0.0761
11070W        W26879   0.837   4.502  14.568 -0.0178  0.0553  0.1371
11071W        W26880  17.293   8.312  14.200  0.4094 -0.2927  0.2066
11072W        W26881  17.306  14.559   3.267  0.4996  0.1362 -0.0533
11073W        W26882  11.323  16.731  15.315 -0.0979  0.0687 -0.3180
11074W        W26883  14.982  14.305  14.095  0.0275 -0.1732  0.0524
11075W        W26884  13.850   7.238  13.159  0.0477  0.0043 -0.1813
11076W        W26885  16.929  17.247   1.031  0.2559 -0.1825  0.0114
11077W        W26886   3.957  17.427   0.726  0.0719 -0.3059  0.4779
11078W        W26887  13.655   3.860  11.990 -0.0238 -0.0042 -0.3379
11079W        W26888   3.397   2.702   4.561  0.1654  0.1018  0.2300
11080W        W26889  18.075  12.666   3.217 -0.1141 -0.0815  0.2399
11081W        W26890  14.580  13.948  14.099  0.0803  0.1611 -0.1523
11082W        W26891  17.717  12.537  14.716  0.0608 -0.2679 -0.0057
11083W        W26892  16.662  17.603  14.841  0.4013 -0.1795 -0.1701
11084W        W26893  12.416  13.505   4.848  0.0680 -0.1618  0.2168
11085W        W26894  10.751  13.329  13.955  0.0451 -0.0654 -0.0576
11086W        W26895   9.776   7.689   2.056 -0.2405 -0.0570  0.1664
11087W        W26896  13.314   7.575   4.105 -0.0542  0.2954 -0.2942
11088W        W26897   1.870  16.870  12.997  0.0222 -0.1650 -0.1960
11089W        W26898   6.308   1.636   2.184  0.1978  0.0954 -0.4183
11090W        W26899   8.438  12.879   4.453  0.1176  0.1043  0.1975
11091W        W26900  17.927  16.563   1.134 -0.2639  0.0411 -0.0191
11092W        W26901  11.708  12.434  14.725 -0.1774  0.1352 -0.2486
11093W        W26902   8.068  15.356  11.675 -0.0568  0.0043 -0.1633
11094W        W26903  11.813   1.102  15.191 -0.0808 -0.0223 -0.1757
11095W        W26904   6.420   7.348   2.136  0.0704 -0.0809 -0.0513
11096W        W26905  10.272   2.154  11.089  0.0365  0.1970  0.0584
11097W        W26906  17.943  10.040   6.038  0.3373 -0.1463 -0.0547
11098W        W26907   5.132   2.998  11.100 -0.0205  0.1045  0.0716
11099W        W26908  17.850  18.274   0.568  0.1984 -0.0184 -0.0230
11100W        W26909  12.689  17.670  12.627  0.2989 -0.0035 -0.1010
11101W        W26910   7.046   0.679  15.436  0.0806  0.2198 -0.3122
11102W        W26911  16.989  16.964   2.378  0.0016 -0.1737  0.0404
11103W        W26912  16.281   1.502  12.160 -0.0086  0.0748 -0.2727
11104W        W26913   4.566   4.122  11.844  0.0292 -0.1754  0.1343
11105W        W26914   7.731  16.423   4.160 -0.1014 -0.1012  0.0048
11106W        W26915   1.679  13.473  12.818  0.3357 -0.0678  0.2153
11107W        W26916   3.525   8.259   1.684 -0.0140  0.0616 -0.1719
11108W        W26917   2.979   6.623   3.956  0.3791  0.3315  0.1492
11109W        W26918  14.947  13.585  12.031 -0.1591 -0.1358  0.0652
11110W        W26919  10.787   3.075   0.247  0.1072  0.2026 -0.0832
11111W        W26920   6.742  18.391   4.342  0.0743  0.1208  0.0213
11112W        W26921  11.027   4.753  13.440 -0.2904 -0.3193 -0.2582
11113W        W26922  10.723  10.302   4.957  0.0714 -0.0223 -0.3736
11114W        W26923  10.338  11.772  14.585  0.2455  0.2123  0.1825
11115W        W26924  11.748   3.274   3.757 -0.0013  0.2245 -0.2568
11116W        W26925   9.606  11.505   2.301 -0.1254 -0.0677  0.3707
11117W        W26926   7.580  16.609  11.668 -0.1223 -0.1038  0.1900
11118W        W26927  14.372   0.390  14.281 -0.1207  0.0928 -0.0719
11119W        W26928   5.070  16.178   4.277 -0.1204 -0.2278 -0.0126
11120W        W26929   4.944   8.505   0.608 -0.2109  0.0068  0.1247
11121W        W26930   1.349   0.077   0.040  0.1417  0.0407 -0.1802
11122W        W26931   4.649   5.423   3.559  0.0645 -0.0635 -0.1231
11123W        W26932  15.520   1.059  13.806 -0.3757  0.2351  0.1967
11124W        W26933   6.678  16.489  12.702 -0.1326  0.4792  0.0334
11125W        W26934   8.748   1.532   1.018  0.1517 -0.2786  0.1086
11126W        W26935   8.715  11.648  11.865 -0.1591 -0.1604  0.2215
11127W        W26936   8.063   1.214   3.690  0.3231 -0.2425 -0.0030
11128W        W26937   3.029  10.528  11.280  0.2962  0.0162 -0.0196
11129W        W26938   1.414   1.970   0.451  0.2388 -0.2628 -0.0811
11130W        W26939  10.398  15.276   5.074  0.0895  0.0553  0.1463
11131W        W26940   4.656  14.348   2.866 -0.1692 -0.0107  0.1705
11132W        W26941   1.814  13.825   5.547 -0.0158  0.0470 -0.2588
11133W        W26942   3.774   0.057   1.519  0.0419 -0.0013  0.2544
11134W        W26943  16.652   1.229   1.388  0.3644  0.2127  0.1270
11135W        W26944  14.711   7.931   3.602  0.0359 -0.0517  0.1472
11136W        W26945   2.481   1.252  12.595  0.1031 -0.1390  0.0818
11137W        W26946   4.618  11.097  13.032 -0.0877 -0.2149 -0.0302
11138W        W26947  15.974   1.245  12.509 -0.2752 -0.1243 -0.1020
11139W        W26948  13.189   7.689  13.557 -0.2876 -0.2040  0.0384
11140W        W26949   2.419  17.229   1.075 -0.0066  0.0539 -0.2934
11141W        W26950   0.070   1.793  13.007 -0.0949  0.1259 -0.1994
11142W        W26951   9.446   6.601   4.605  0.1373  0.5384 -0.0640
11143W        W26952  12.772  11.444   5.075 -0.1526 -0.0952 -0.2186
11144W        W26953   5.956  12.666  14.357 -0.1423 -0.0626 -0.4793
11145W        W26954   4.058   8.011   0.612 -0.1461  0.0220  0.1030
11146W        W26955  10.930   8.907  11.432  0.1279 -0.0438 -0.1881
11147W        W26956  17.857   1.453  13.267  0.2238 -0.0738  0.0184
11148W        W26957  11.524  16.431  11.374 -0.2522 -0.5357 -0.3899
11149W        W26958   4.189   8.182  11.547  0.2127  0.1238 -0.2445
11150W        W26959   0.494   2.125   4.634 -0.1517  0.0703 -0.0118
11151W        W26960   0.217  13.374   4.913 -0.0542  0.1340 -0.2466
11152W        W26961   1.620  13.546   3.917  0.1761 -0.0618 -0.1406
11153W        W26962  14.126  17.192   5.208 -0.1584  0.0950  0.1337
11154W        W26963  17.508  10.556   0.295  0.2122 -0.0372 -0.1419
11155W        W26964   6.136  11.721   4.296  0.0021  0.0069 -0.0456
11156W        W26965  18.416   6.921  10.478 -0.3550  0.0814  0.1354
11157W        W26966   5.545   9.987   5.799  0.0231  0.0444  0.0229
11158W        W26967  12.237   2.760   4.874  0.1486  0.0055 -0.1721
11159W        W26968  11.086   8.675  13.268 -0.1010  0.0971 -0.0901
11160W        W26969   6.570   8.505   2.862 -0.1899 -0.1261 -0.0553
11161W        W26970  17.492  17.217  14.842  0.3402  0.1389  0.1179
11162W        W26971  11.991  12.981  12.784  0.3498  0.0539  0.0922
11163W        W26972   7.949   5.856   5.564 -0.0719 -0.1629 -0.2654
11164W        W26973  11.356   4.309  14.529 -0.0003  0.2168 -0.0270
11165W        W26974  11.498   7.860  14.433 -0.1231  0.0348 -0.0357
11166W        W26975   4.511   1.733  12.368  0.2360 -0.3355 -0.2893
11167W        W26976   3.923  17.835  14.129  0.1106  0.1001 -0.0399
11168W        W26977  10.789  17.013  14.441  0.0070  0.0360 -0.0179
11169W        W26978  16.655  18.401   1.198  0.2070 -0.0725 -0.1856
11170W        W26979  13.298  10.076  11.586  0.3331 -0.1871 -0.1718
11171W        W26980   6.751  13.289  14.142  0.2367 -0.0632 -0.0018
11172W        W26981  11.101  12.637   4.276 -0.0223 -0.0399  0.0476
11173W        W26982  10.880   4.363   4.099 -0.1014  0.1533 -0.1625
11174W        W26983  11.408  11.494  12.087  0.1206  0.0257 -0.0721
11175W        W26984  14.157   7.374   3.906 -0.0924 -0.1334 -0.0712
11176W        W26985  13.598  10.362   4.615  0.2004  0.0063 -0.0689
11177W        W26986  12.906   0.322  15.346  0.0365 -0.0694 -0.1051
11178W        W26987  17.775  10.681   5.384 -0.0070  0.0268 -0.0733
11179W        W26988   7.443  16.997  14.314 -0.0792 -0.1192  0.2857
11180W        W26989   3.263   0.080   4.830 -0.2607  0.0877 -0.2373
11181W        W26990   5.627   1.840   3.518  0.1836 -0.0878  0.2396
11182W        W26991   5.957  16.665  15.566  0.0536 -0.0542  0.0141
11183W        W26992  10.614   7.700   2.525 -0.5076 -0.0157 -0.2622
11184W        W26993  14.998  15.869  13.501 -0.0237 -0.1302  0.0444
11185W        W26994   3.190   4.217   3.215  0.1889 -0.2241  0.1139
11186W        W26995  15.231   6.344  10.782 -0.0995  0.2331  0.4520
11187W        W26996  12.008  15.071  14.832  0.1033 -0.3124 -0.3809
11188W        W26997  14.062   6.374  14.202  0.0715 -0.0758  0.1173
11189W        W26998  18.229   0.656  13.310 -0.2675  0.1025 -0.1325
11190W        W26999  12.588   6.567  14.355 -0.0772 -0.0477  0.0322
11191W        W27000   0.401  11.717   5.158  0.2198 -0.1367  0.0160
11192W        W27001   2.597  16.747   1.927  0.2274  0.2879 -0.1645
11193W        W27002   7.700   5.997  10.864 -0.3340 -0.2202  0.0188
11194W        W27003   8.138   4.638   3.391  0.0644  0.3623  0.0255
11195W        W27004  16.435  17.522   3.697  0.3212  0.0035  0.3394
11196W        W27005   9.231  18.025  13.110  0.0559  0.0664 -0.2804
11197W        W27006   4.528  15.021  12.957 -0.0685 -0.1603 -0.1699
11198W        W27007  15.801  11.318   2.218  0.0085 -0.0137  0.0422
11199W        W27008  17.414   7.377  13.442 -0.1437  0.2471  0.0119
11200W        W27009   9.940   0.683  13.316  0.0398 -0.3788 -0.3860
11201W        W27010  15.581   3.252  14.392 -0.2516  0.2121  0.0398
11202W        W27011   4.352  18.059   5.523 -0.2238  0.0253  0.0509
11203W        W27012   8.605   0.797   1.392 -0.1050 -0.0216 -0.1048
11204W        W27013  16.257   5.555  11.676 -0.0214  0.1942  0.0974
11205W        W27014   6.060   5.910   3.977 -0.1609 -0.0686  0.1556
11206W        W27015   5.250  18.422   4.052 -0.0383 -0.3253  0.0646
11207W        W27016  17.987  11.566   1.856  0.1128 -0.1509  0.2554
11208W        W27017  12.979  18.382   3.563 -0.0441 -0.0833 -0.0283
11209W        W27018  12.277   1.822   0.342  0.1264  0.1480  0.0660
11210W        W27019   8.637  16.676   5.496  0.1290 -0.1660 -0.3303
11211W        W27020  15.873   0.199  12.432  0.0882  0.2108  0.0965
11212W        W27021   5.277   8.015  14.709 -0.1511 -0.2532 -0.1312
11213W        W27022  18.442   0.696   1.362 -0.1543 -0.1038 -0.1215
11214W        W27023   0.229  18.445   0.143 -0.0852  0.1350  0.2876
11215W        W27024  10.592  14.336  14.888 -0.3692 -0.0897 -0.1154
11216W        W27025  11.510   6.700  12.039  0.0109  0.1984  0.0348
11217W        W27026   8.770   5.874  14.173 -0.1149 -0.2170  0.1421
11218W        W27027   2.015   9.216  10.537  0.0386  0.0974 -0.0142
11219W        W27028   0.273  16.465   4.557  0.2106 -0.1420  0.1932
11220W        W27029  18.174  15.364   2.369  0.0939  0.1452 -0.2859
11221W        W27030   4.186  11.133   0.840 -0.1057  0.1951  0.4152
11222W        W27031   8.637  11.660  10.574 -0.7242 -0.2143  0.2269
11223W        W27032   6.849   9.879   0.719  0.0470  0.0160  0.0821
11224W        W27033   2.668  14.959  12.122 -0.3293 -0.0015  0.1336
11225W        W27034   6.468  17.594   1.142  0.1140 -0.0847 -0.0666
11226W        W27035   6.184   9.282  13.541  0.0220 -0.2252 -0.0291
11227W        W27036  11.666  17.492  15.139  0.0359 -0.0208 -0.1398
11228W        W27037  14.049  11.885   3.277 -0.0681  0.1699 -0.0274
11229W        W27038   8.947   7.569  13.521  0.0423  0.0171  0.0707
11230W        W27039   5.606  14.456  12.494 -0.0699 -0.2399  0.3020
11231W        W27040  16.281  11.634   4.545  0.2659  0.0579 -0.2229
11232W        W27041   0.805   9.713  13.431 -0.2076  0.0697  0.1017
11233W        W27042   0.305   5.792   1.289  0.0767  0.0656  0.1529
11234W        W27043   1.880  12.955   5.415  0.0018 -0.3262  0.0722
11235W        W27044   8.245   6.100  13.408  0.0065 -0.0340  0.2620
11236W        W27045  13.928  12.673  14.166  0.2286  0.2594  0.0836
11237W        W27046  15.630  18.195   0.089  0.3589 -0.2652  0.2349
11238W        W27047   0.473   4.039   0.896  0.1510 -0.1965 -0.0723
11239W        W27048   7.122  13.928  15.328  0.1753  0.2525  0.0793
11240W        W27049   0.753   8.099  11.214 -0.3790  0.1816  0.1226
11241W        W27050   4.048   8.252  14.717  0.1094 -0.0247 -0.0457
11242W        W27051  11.713  17.006  15.062  0.0733  0.1254  0.0663
11243W        W27052   1.161   0.717  11.095 -0.2372 -0.0623  0.1256
11244W        W27053  12.225  17.379  13.668  0.3407 -0.3154  0.0603
11245W        W27054   9.999  14.269   1.406 -0.0020  0.1692  0.1478
11246W        W27055  11.736   3.598  13.259 -0.2365 -0.0159 -0.0263
11247W        W27056  16.096  13.303   3.018 -0.1895  0.0507 -0.1565
11248W        W27057   4.097   0.449   0.696  0.1487  0.0378 -0.1783
11249W        W27058   6.509  15.348  14.958  0.1460  0.0951  0.2371
11250W        W27059   0.077   1.394  13.887 -0.0686 -0.1984  0.2162
11251W        W27060  18.245   4.544  12.254 -0.3701 -0.2021 -0.0253
11252W        W27061   7.153  16.400  12.015  0.1768  0.2314  0.3189
11253W        W27062  12.489  11.710   4.068 -0.0461 -0.0523 -0.0101
11254W        W27063  16.965   5.041  14.739  0.0357 -0.1576  0.2530
11255W        W27064  17.868  14.715  13.752  0.1799  0.0796  0.0095
11256W        W27065  16.380   7.770  12.336 -0.2244 -0.2080 -0.1070
11257W        W27066  15.707  17.357   4.241  0.4501  0.0535  0.0426
11258W        W27067   9.076  16.900   5.416 -0.5856  0.0255 -0.1809
11259W        W27068   4.066  13.103   2.318 -0.1641  0.0924 -0.3037
11260W        W27069   8.416   6.617  14.705 -0.1869  0.1090  0.0639
11261W        W27070   9.287   9.814   3.419  0.0670 -0.0108 -0.2477
11262W        W27071  18.199   1.271   1.462  0.2013 -0.0924 -0.1413
11263W        W27072   1.914  16.318  11.353 -0.1563  0.0817  0.1622
11264W        W27073  17.631  13.137   4.639  0.2685 -0.1678  0.0313
11265W        W27074   2.049  10.393   2.838 -0.0827  0.0130 -0.1051
11266W        W27075  16.985  14.409  11.206 -0.0667 -0.1096  0.1493
11267W        W27076  11.196   6.476   1.014  0.0720 -0.1011 -0.1444
11268W        W27077  14.669   5.518   0.340  0.0174 -0.0530 -0.2196
11269W        W27078   4.247   3.349   0.365 -0.1582 -0.1754  0.0762
11270W        W27079   4.700  14.214  15.810  0.0756 -0.0463 -0.0953
11271W        W27080  13.758   5.446   1.284 -0.0945  0.0925 -0.3897
11272W        W27081  14.511   1.237  15.501 -0.1424 -0.0117  0.3640
11273W        W27082  15.128   4.020   4.061  0.1371 -0.1920 -0.0117
11274W        W27083  15.927   7.962   4.286 -0.2028  0.0496  0.2954
11275W        W27084   1.300  17.555   4.648  0.1064 -0.0190  0.2660
11276W        W27085   3.156  10.232  13.239 -0.0866 -0.0807  0.0297
11277W        W27086  16.809   1.900   4.585  0.1571  0.0708 -0.0259
11278W        W27087  13.058  14.975   1.354  0.2829  0.0879 -0.2781
11279W        W27088   5.983  14.095   4.195 -0.0738 -0.0569  0.3952
11280W        W27089   1.885  17.844  12.241  0.1348  0.1047 -0.1510
11281W        W27090   4.494  15.385  13.297  0.2522  0.0009 -0.0733
11282W        W27091   0.742  13.767   2.243 -0.2527 -0.0299  0.0272
11283W        W27092   8.375   9.704   3.564  0.2623  0.2571 -0.0801
11284W        W27093  14.134   9.563  13.239  0.0443  0.0049 -0.0725
11285W        W27094   1.001   7.643   1.681  0.0104 -0.2184  0.0949
11286W        W27095  17.618  11.590  15.372 -0.1797 -0.0473  0.2560
11287W        W27096  16.017   0.083   1.842  0.0678 -0.2118  0.1738
11288W        W27097   3.783   0.946  14.036 -0.3078  0.1851 -0.0184
11289W        W27098  16.769  16.295  10.990 -0.2130  0.0223 -0.1695
11290W        W27099   8.957   8.057  14.295 -0.3745  0.1697  0.2134
11291W        W27100   3.349   0.964   3.279 -0.1927 -0.1474  0.0860
11292W        W27101   5.508  17.854   1.075  0.0451 -0.1244 -0.3507
11293W        W27102  10.169  14.858  11.455  0.4430 -0.0017  0.1662
11294W        W27103  16.939  13.228   3.879  0.1177 -0.1322 -0.0665
11295W        W27104  11.037  18.322   4.234  0.2940  0.2051  0.1500
11296W        W27105   0.443   7.517   4.089 -0.2622  0.0516 -0.1774
11297W        W27106  17.254   6.078  10.987 -0.1452 -0.0427 -0.4879
11298W        W27107   1.169  18.349   4.581 -0.1576 -0.0328 -0.1060
11299W        W27108   7.406   6.346   5.372 -0.1624 -0.0936 -0.0324
11300W        W27109  11.499   2.560  11.426  0.1610  0.1020  0.1739
11301W        W27110  11.811   6.122   3.061 -0.0936 -0.1506  0.2089
11302W        W27111   8.009  11.036   1.439 -0.0198 -0.0312  0.1647
11303W        W27112   6.070   5.018   2.190  0.1772  0.0039  0.0559
11304W        W27113  11.622  10.443  15.671 -0.1407  0.3480  0.0226
11305W        W27114   3.727  12.686   2.115  0.0269 -0.1121  0.3107
11306W        W27115  15.886   5.611  11.184  0.0621  0.1075  0.1158
11307W        W27116   7.421  12.840   3.704  0.0817 -0.0970  0.0674
11308W        W27117  12.738   9.047   2.107 -0.2239 -0.0631 -0.1364
11309W        W27118  15.477   0.507  12.340  0.1356  0.0834 -0.1338
11310W        W27119   0.623   0.379  15.202 -0.2469 -0.1226  0.2437
11311W        W27120   0.488  13.213  14.892 -0.0176  0.1169 -0.1979
11312W        W27121  12.784   6.191   4.527  0.1846  0.3602 -0.1966
11313W        W27122   2.579   7.292  13.713  0.0657  0.2788  0.2566
11314W        W27123  14.638  12.320  12.641 -0.0436  0.0166 -0.0099
11315W        W27124  13.900  17.613   5.319 -0.2732  0.2044  0.1720
11316W        W27125   5.922  15.097   3.308 -0.0976 -0.0565  0.1409
11317W        W27126   2.125   0.826   4.664  0.3150  0.2284  0.0748
11318W        W27127   5.495  15.470   5.331  0.1565 -0.3036 -0.0648
11319W        W27128  13.986  13.115   9.790  0.1873 -0.3210  0.2677
11320W        W27129   0.280  17.948  12.414 -0.2478  0.2871  0.1559
11321W        W27130  11.041  12.915  11.249 -0.0924 -0.0645  0.1588
11322W        W27131  12.922   3.616   0.277 -0.1858 -0.1868  0.2067
11323W        W27132   0.398  15.547  15.796 -0.1723 -0.3684  0.1010
11324W        W27133  12.166   6.212  12.612 -0.1001 -0.2117  0.0238
11325W        W27134  13.515  15.060   4.327 -0.0400 -0.2494 -0.0214
11326W        W27135   9.265   5.750  14.286  0.1247 -0.0968  0.1841
11327W        W27136  14.324   1.190  11.939 -0.0771 -0.2591 -0.0009
11328W        W27137  14.716   2.869  14.092 -0.0587  0.1450 -0.1350
11329W        W27138  15.987   0.685  12.524 -0.0594  0.0203  0.4227
11330W        W27139   3.541   3.681  11.111 -0.4231 -0.0639  0.0988
11331W        W27140  11.282   4.765   0.623 -0.0007  0.0056  0.0599
11332W        W27141  13.062  10.331  11.943 -0.0387 -0.0504 -0.2422
11333W        W27142   3.647   3.870  14.612  0.1024  0.1015 -0.0913
11334W        W27143   1.684   7.979  14.197 -0.2438 -0.2038  0.1244
11335W        W27144  13.863   6.884   0.849 -0.1012  0.1165 -0.0653
11336W        W27145  14.965  12.723   3.561 -0.1413  0.1159 -0.2009
11337W        W27146  16.023  14.389  13.859  0.0334  0.2035 -0.0716
11338W        W27147   5.307  14.969  11.807  0.1274  0.1077 -0.2534
11339W        W27148  10.584  16.285   4.378 -0.2387 -0.1485 -0.1444
11340W        W27149  13.529   9.776   5.228  0.0155 -0.5117 -0.0261
11341W        W27150   7.805  16.103  13.351  0.0249  0.3652  0.1381
11342W        W27151  16.843   8.025   3.410  0.1957  0.1478 -0.1824
11343W        W27152   3.517   2.527   1.520 -0.5312  0.2320 -0.1416
11344W        W27153   3.596   4.365   0.451  0.1001  0.2173  0.1830
11345W        W27154   1.838  11.946   2.645 -0.0271  0.0272 -0.1168
11346W        W27155  15.753   5.626   0.459  0.2116 -0.0395  0.0962
11347W        W27156  14.418   1.814   0.987 -0.0341 -0.1190 -0.0061
11348W        W27157  13.588   6.459   3.283 -0.0847 -0.1291  0.0899
11349W        W27158  11.683  17.598   4.850 -0.0564  0.2557 -0.1893
11350W        W27159   4.879  15.763  11.601 -0.2049  0.2383 -0.2241
11351W        W27160  17.681   0.602   3.368 -0.2265 -0.1489  0.3158
11352W        W27161   7.886  10.245   4.691  0.2197  0.1323 -0.0550
11353W        W27162   1.490  16.062   0.023 -0.1651  0.0755 -0.2279
11354W        W27163  17.767   5.266  11.140 -0.1067  0.0327  0.0547
11355W        W27164   2.429  16.598  11.025  0.0997  0.2609  0.0205
11356W        W27165   2.766  15.058   2.016  0.0689 -0.2108  0.0462
11357W        W27166  16.963  10.214   3.896  0.1389  0.0586 -0.2838
11358W        W27167  12.458   2.843  13.134  0.1569  0.1458 -0.0924
11359W        W27168  12.354   1.360   2.619  0.2998  0.2069 -0.0757
11360W        W27169  13.516  11.516  11.120  0.1118 -0.0452  0.0177
11361W        W27170   8.956   4.690   0.671 -0.0721  0.1218 -0.2403
11362W        W27171   9.170  11.626  11.636 -0.0853  0.3247  0.0990
11363W        W27172   2.170  11.740  15.766 -0.3291 -0.0910  0.1542
11364W        W27173  16.371   0.950  12.695 -0.0575 -0.1857  0.2487
11365W        W27174   4.133  16.085  14.750  0.1475  0.0733  0.1364
11366W        W27175   2.136   2.994   2.594  0.0834  0.0785 -0.0969
11367W        W27176   5.094   9.500  11.924  0.0849 -0.2771 -0.2007
11368W        W27177   6.715  11.756  12.932  0.0638 -0.0497  0.3037
11369W        W27178   1.609  17.814  15.056 -0.4488 -0.3209 -0.1623
11370W        W27179  12.002   6.423   4.978  0.0808 -0.0716 -0.0494
11371W        W27180  13.000   6.077   2.168 -0.0083 -0.0295 -0.1819
11372W        W27181  17.503  15.593  14.466 -0.3297  0.1919 -0.2135
11373W        W27182   0.900   1.345  12.102 -0.1065 -0.0565  0.1191
11374W        W27183  11.727  10.779   5.826  0.2480  0.1957 -0.2661
11375W        W27184  15.726   1.418   1.570 -0.3168 -0.0518  0.0348
11376W        W27185   9.431   3.562  10.831  0.1836 -0.2907  0.1308
11377W        W27186  17.867   4.234   3.535  0.0443  0.1242 -0.1329
11378W        W27187   4.964  16.028   4.791 -0.0767  0.1246 -0.1957
11379W        W27188   0.611  11.157   4.899 -0.0317  0.0739 -0.2860
11380W        W27189   6.244   8.737  11.770  0.0807 -0.0873  0.2123
11381W        W27190  10.255   2.718   1.138  0.0277  0.1534  0.1360
11382W        W27191   7.884  11.405  13.784 -0.1907 -0.1567  0.0345
11383W        W27192  11.059   7.280  14.383  0.2277  0.1144  0.1376
11384W        W27193   4.508   7.475  11.808  0.1537  0.1292 -0.0957
11385W        W27194  11.605  11.083  14.498 -0.1005  0.2429 -0.1161
11386W        W27195  14.406   5.806   0.065 -0.1716  0.0885 -0.0529
11387W        W27196  16.393  17.856   0.548 -0.0702 -0.2290 -0.0618
11388W        W27197  17.777   2.957   4.654 -0.0168  0.0272 -0.2324
11389W        W27198  10.095   6.850   5.848  0.2178 -0.2427  0.0792
11390W        W27199   3.458   2.080   0.615 -0.1040 -0.0255 -0.1127
11391W        W27200   0.360   0.374   1.581 -0.2723 -0.2263  0.1193
11392W        W27201  11.411  18.381   4.574 -0.0987 -0.0215 -0.2749
11393W        W27202  10.829   0.470   1.324  0.3568 -0.0219 -0.1168
11394W        W27203  10.316   3.821   0.290 -0.1267  0.0109  0.0654
11395W        W27204  14.608  16.035  12.554 -0.1422 -0.1396  0.0553
11396W        W27205   9.811   2.605  13.058  0.4129 -0.0769 -0.0229
11397W        W27206   9.717   2.919  14.880 -0.1158 -0.2452  0.0279
11398W        W27207   1.097  10.774  10.734  0.2129  0.0806  0.1061
11399W        W27208  15.124  14.262   5.443 -0.1216  0.0012  0.1142
11400W        W27209  10.114   6.014   1.626 -0.1396 -0.0501  0.2230
11401W        W27210  13.686   4.051   1.780  0.0157 -0.0296 -0.0226
11402W        W27211   0.920  16.446   5.744  0.4236  0.1642 -0.2221
11403W        W27212   4.444  17.316   5.071  0.0347 -0.0930  0.0587
11404W        W27213   4.194   4.521   1.174  0.2240  0.1848 -0.0861
11405W        W27214  17.063  10.607   2.124 -0.1100 -0.1158 -0.0175
11406W        W27215   1.507   1.108  13.853  0.1692  0.0494 -0.0051
11407W        W27216  11.698   5.266  11.558 -0.4729  0.0507  0.1367
11408W        W27217   8.179   6.171   1.729  0.0255  0.1570  0.0182
11409W        W27218  15.946   4.382   4.405 -0.0185  0.3818 -0.0711
11410W        W27219   4.808   5.675  12.794  0.0970 -0.2018 -0.0731
11411W        W27220  12.691  17.623   3.198  0.2201 -0.0464 -0.5056
11412W        W27221  15.188  17.939  13.002 -0.0760 -0.0540 -0.0234
11413W        W27222  14.021   6.819  10.654 -0.0597  0.2571  0.2421
11414W        W27223  16.172   2.909   6.051 -0.1697  0.0418  0.1083
11415W        W27224   6.948  11.059   5.161 -0.1940 -0.1418  0.0307
11416W        W27225   0.215   2.109  11.248  0.3039 -0.0430 -0.1951
11417W        W27226  17.292  13.243  13.533 -0.0564 -0.2268  0.1593
11418W        W27227   3.638   7.084  11.827  0.2443  0.0602 -0.2400
11419W        W27228  15.366  14.264  14.541 -0.1376  0.0972 -0.0285
11420W        W27229   8.717  11.724   2.133  0.0721 -0.1256 -0.4520
11421W        W27230  17.165   9.759  11.205  0.1854  0.2203 -0.0717
11422W        W27231   4.385   5.962   2.966  0.3962 -0.3956  0.1568
11423W        W27232   1.707   4.694  10.941 -0.2376  0.1467 -0.2753
11424W        W27233  12.189   2.408   3.531  0.2130  0.1538  0.0101
11425W        W27234   0.306  17.151   0.846 -0.0153 -0.4363 -0.1716
11426W        W27235   6.190   8.204   0.471  0.3307  0.0572  0.0609
11427W        W27236  18.344   8.628  11.466  0.2097  0.1071  0.1216
11428W        W27237   4.723  16.906  15.091 -0.3330  0.0620 -0.2001
11429W        W27238   1.098   8.060  11.972 -0.2061  0.2612 -0.0594
11430W        W27239   2.444   8.561  14.416  0.0321 -0.1095 -0.1068
11431W        W27240  13.046   5.905  11.890  0.0162 -0.0686 -0.1608
11432W        W27241  17.218   2.599  13.684  0.0804  0.2758 -0.2111
11433W        W27242   2.757  10.581   5.079  0.2838 -0.0075  0.0330
11434W        W27243  11.816   3.202  11.026  0.0433 -0.0421 -0.0682
11435W        W27244   7.916   4.683   2.144 -0.0078 -0.3015 -0.0481
11436W        W27245   7.783   4.192  13.990 -0.3874 -0.0112  0.0114
11437W        W27246  17.787   6.438   5.238 -0.1552  0.0952 -0.1210
11438W        W27247   0.756  14.793  12.640  0.2345  0.0810 -0.3500
11439W        W27248   0.938  11.385  12.746  0.0177 -0.1382  0.0903
11440W        W27249   1.177   7.482   2.194 -0.3180 -0.1598  0.0260
11441W        W27250  16.492  17.361  11.204 -0.3884  0.1525 -0.4288
11442W        W27251  16.094   8.552  13.384 -0.5398  0.1225 -0.0330
11443W        W27252  11.897   2.905  12.307  0.2069 -0.0379 -0.0411
11444W        W27253  13.550   9.190  12.000  0.3795  0.0942 -0.2022
11445W        W27254   3.483  11.163  12.396  0.3285  0.2715  0.0332
11446W        W27255   6.754  15.534  11.449  0.0287  0.0056  0.0686
11447W        W27256  14.548   3.885   2.791  0.0806 -0.0132 -0.0547
11448W        W27257  15.882  11.421  14.641 -0.0829  0.0316  0.0152
11449W        W27258   0.747   7.188  12.988  0.2649  0.0807 -0.0537
11450W        W27259  14.934  16.866  12.714 -0.3107  0.1827  0.3775
11451W        W27260  10.449   4.423  15.574 -0.0408 -0.2578  0.0569
11452W        W27261   3.580  16.008  14.854 -0.0207 -0.1614  0.0958
11453W        W27262   8.303  17.979  15.431 -0.0646 -0.0287 -0.0251
11454W        W27263  16.482   5.667   4.278  0.0266  0.2845  0.0891
11455W        W27264   7.651   3.562  15.030  0.1711  0.1411 -0.1096
11456W        W27265  14.767   1.227  11.063 -0.0809 -0.0180 -0.2614
11457W        W27266   5.859  17.985   3.181 -0.0360  0.0498 -0.1299
11458W        W27267  17.639   9.502  14.437  0.2240 -0.3059 -0.1244
11459W        W27268  13.722   9.441  12.987  0.3254  0.2004  0.1753
11460W        W27269  12.616   2.720  12.541 -0.0054  0.0438 -0.0391
11461W        W27270  16.620   7.187   3.217  0.2066  0.2160  0.0235
11462W        W27271  16.477  17.870   0.021  0.2050  0.0521  0.1566
11463W        W27272  13.858   6.821  12.966  0.0287  0.1579  0.0250
11464W        W27273   2.092   0.343   1.597  0.1998 -0.2169 -0.2799
11465W        W27274   8.860  17.957   4.210 -0.2989  0.2436  0.2864
11466W        W27275   6.642  14.014  15.405  0.0889 -0.0735 -0.0641
11467W        W27276  15.005   9.354   4.747 -0.0010  0.3476  0.0216
11468W        W27277   7.934   4.676  14.111  0.1340  0.1317 -0.3544
11469W        W27278   8.070  18.410  11.901 -0.2803 -0.0026 -0.0421
11470W        W27279   2.724  18.326   0.450 -0.1069 -0.0161 -0.1916
11471W        W27280   8.478   8.477  12.061  0.3968 -0.3189  0.1982
11472W        W27281  11.445  14.604   1.859  0.1286 -0.0487 -0.3146
11473W        W27282   5.995  18.250  11.167  0.2168  0.1501 -0.1658
11474W        W27283  10.771  17.019   0.838 -0.0917  0.0389 -0.0731
11475W        W27284  13.039   8.592  12.183 -0.2109  0.1088 -0.2986
11476W        W27285   3.063  15.627   3.283  0.1418  0.2182  0.3755
11477W        W27286  14.849   9.982   0.315 -0.0992 -0.2209  0.0478
11478W        W27287  15.042   5.868   3.228 -0.1423 -0.2733 -0.0467
11479W        W27288  18.094   4.811  12.938  0.0135 -0.0219 -0.5901
11480W        W27289   1.637   4.083   5.710 -0.0020 -0.0754  0.0210
11481W        W27290  15.172  10.792   3.740 -0.0523  0.0536  0.1259
11482W        W27291   9.378  10.739   3.675  0.1193  0.1371 -0.0645
11483W        W27292  18.034  17.239  14.168 -0.0146  0.0183  0.2526
11484W        W27293  14.216   4.088   2.493 -0.1178  0.3814  0.2777
11485W        W27294   7.818  12.773  15.086  0.1548 -0.1207 -0.0761
11486W        W27295   6.449   0.013   2.066 -0.0550 -0.0736  0.0364
11487W        W27296   6.547  16.243  13.815  0.0928  0.0424  0.0243
11488W        W27297   1.474  12.782   2.070 -0.0611  0.2291  0.0200
11489W        W27298  16.686  17.882   1.435  0.1506 -0.3339  0.0871
11490W        W27299   8.468   3.975  15.269  0.0577  0.0588  0.2451
11491W        W27300  16.152   5.770  14.941 -0.5036 -0.2262 -0.1843
11492W        W27301   3.346   2.062   4.878 -0.1924 -0.2299 -0.2497
11493W        W27302  16.994  11.319  11.078  0.0256 -0.0704  0.0658
11494W        W27303   7.850   0.468  15.170 -0.2084 -0.4009 -0.2165
11495W        W27304  14.046  13.649   2.366  0.1612  0.1321 -0.2544
11496W        W27305   8.510   7.444  13.322 -0.1065 -0.0821 -0.0373
11497W        W27306   1.923  17.079   2.805  0.3744 -0.0390  0.2320
11498W        W27307  15.678  17.944   9.966 -0.0013 -0.1413 -0.1336
11499W        W27308   0.930   3.977   5.110  0.3020  0.2218 -0.0573
11500W        W27309  17.947   3.301   1.335  0.4541  0.1848  0.2649
11501W        W27310  18.267   6.786   3.223  0.0348 -0.5406 -0.2184
11502W        W27311   6.239  11.535   3.828 -0.1115 -0.0250  0.1697
11503W        W27312  14.973   5.389   0.767 -0.0308 -0.0971 -0.1390
11504W        W27313  13.260   3.594  12.330  0.3175 -0.0146 -0.2781
11505W        W27314   4.870  16.236  11.325  0.1732  0.0070 -0.0219
11506W        W27315  12.773   0.585  12.532 -0.0421  0.1641  0.2206
11507W        W27316  14.654  11.400   2.193 -0.2476 -0.2357  0.2486
11508W        W27317   0.487  10.254  12.564 -0.0433  0.0725  0.2166
11509W        W27318  17.920  14.504  14.360  0.0942 -0.2046 -0.2851
11510W        W27319  17.916   1.007  13.015 -0.2189  0.0716 -0.1486
11511W        W27320   3.561   2.840   2.067  0.0734  0.2471 -0.0286
11512W        W27321   6.257   5.371   2.514 -0.1844  0.1767 -0.1960
11513W        W27322   9.631  15.141   3.961  0.0840 -0.1523  0.1244
11514W        W27323   1.597   2.179   2.435  0.2068  0.3763  0.0932
11515W        W27324  10.256   0.092   2.844 -0.4002  0.0875 -0.0406
11516W        W27325  18.133  14.143   2.201 -0.2675 -0.0380 -0.2401
11517W        W27326   6.310   4.425  10.837  0.3370 -0.1775 -0.2025
11518W        W27327   0.747   8.489   0.154 -0.2909 -0.0325 -0.0788
11519W        W27328  12.175   5.924   4.258  0.1020  0.2020 -0.4567
11520W        W27329   0.778   9.364   3.588  0.2651 -0.0266 -0.1353
11521W        W27330   0.441  14.881   1.000  0.1180  0.3311 -0.0417
11522W        W27331  15.884   8.844  12.234 -0.5043 -0.2398 -0.0819
11523W        W27332   1.987   8.076   3.966 -0.0275 -0.0700  0.0546
11524W        W27333  16.434   6.377   6.221 -0.0178 -0.0087  0.0317
11525W        W27334   3.948  16.219   4.846  0.2004 -0.0368 -0.0380
11526W        W27335   2.640   6.549   3.497 -0.0326 -0.1634  0.0929
11527W        W27336  15.358   2.607   4.427 -0.0008  0.0800  0.1085
11528W        W27337   0.995  14.604   2.215 -0.2455  0.0151  0.0404
11529W        W27338   5.448   4.615  14.172 -0.0674 -0.2286  0.0393
11530W        W27339   3.940   0.139   2.326  0.1098 -0.0208  0.1043
11531W        W27340  11.712  10.650  15.203  0.1176 -0.1742 -0.2201
11532W        W27341  13.298   5.642  15.057 -0.2222  0.2848 -0.1126
11533W        W27342   3.222  14.117  11.179 -0.0225  0.2915  0.0333
11534W        W27343   5.526   1.092  12.784 -0.1042  0.2148  0.2430
11535W        W27344   7.972   0.386  11.937  0.0959  0.1413  0.1125
11536W        W27345   7.362  17.094  11.530 -0.2342  0.0639 -0.0741
11537W        W27346  12.418   7.271   4.515  0.3028  0.0777 -0.3752
11538W        W27347  14.962  16.318   2.641 -0.4917  0.1580 -0.1323
11539W        W27348  17.693   3.750   1.552 -0.0047 -0.0826 -0.1267
11540W        W27349   8.421  16.332  11.482 -0.3036  0.0117 -0.3954
11541W        W27350  18.220   8.031   4.571  0.3359 -0.1736  0.2085
11542W        W27351   6.788   5.125   1.380 -0.1436  0.0655  0.0077
11543W        W27352   2.920  12.974   1.157  0.2364  0.2752  0.0040
11544W        W27353   0.701   1.513  13.202  0.1544  0.1388  0.1931
11545W        W27354   2.845   3.490  12.833 -0.0078 -0.0888 -0.2801
11546W        W27355  14.853  17.129   4.783  0.0133 -0.0569 -0.1340
11547W        W27356   4.670  15.158   2.689 -0.1509  0.5575  0.3721
11548W        W27357  17.951   9.084   5.391 -0.1952 -0.1344 -0.0986
11549W        W27358  10.456  10.729   1.465  0.2131 -0.0865 -0.2108
11550W        W27359   9.711   3.362   2.742 -0.2329 -0.1309 -0.2355
11551W        W27360   5.237  16.362   1.238  0.1085  0.0039 -0.0127
11552W        W27361   6.684   4.517   3.301 -0.1633  0.0832  0.2720
11553W        W27362   0.422   4.674   4.826  0.2827 -0.0159 -0.0028
11554W        W27363   8.171  14.623   3.221  0.4375 -0.0846  0.0871
11555W        W27364   2.592  17.278   1.981  0.0047 -0.0923  0.2808
11556W        W27365   1.411   4.989   1.160 -0.4574  0.3215 -0.0425
11557W        W27366  14.990   1.905   3.346  0.0655  0.0645 -0.3557
11558W        W27367   9.879  14.731   0.583  0.1492  0.0263 -0.1400
11559W        W27368  10.365  17.927  15.162  0.2166  0.0266  0.3716
11560W        W27369  14.314   5.160   4.416 -0.0323 -0.0626 -0.0038
11561W        W27370  16.443   5.177   4.098  0.2665 -0.1137  0.0656
11562W        W27371  11.725  12.249  13.136  0.0184 -0.1004  0.0657
11563W        W27372   4.435  13.286   1.448  0.0813  0.2733 -0.0757
11564W        W27373   5.034   8.588   4.289 -0.0656  0.3011 -0.2033
11565W        W27374   9.348  11.083   1.474  0.0859 -0.1401 -0.0332
11566W        W27375   6.925   5.928  14.831  0.1385 -0.1293 -0.1962
11567W        W27376  10.884   9.163  15.159  0.0060 -0.0211  0.0665
11568W        W27377   2.216   6.569  15.522  0.4674 -0.2268 -0.1681
11569W        W27378   1.665   8.187   2.329  0.2637 -0.0521 -0.0651
11570W        W27379  15.080  15.327  11.096 -0.1700  0.3737 -0.1230
11571W        W27380  18.134  15.886   4.454  0.0134  0.2671 -0.0934
11572W        W27381   8.071  16.947   0.551  0.0396 -0.0623  0.2559
11573W        W27382  11.466   1.492  12.726  0.2316 -0.2454  0.0367
11574W        W27383  11.667   0.757   3.326  0.0531  0.0654 -0.1297
11575W        W27384  12.585   5.829  12.249  0.0083 -0.1442  0.1071
11576W        W27385   4.588   6.157  11.703  0.0325  0.1130 -0.0703
11577W        W27386  10.030  17.686  13.279 -0.1488 -0.3278 -0.2404
11578W        W27387   5.618   1.897  13.891  0.0877 -0.2401 -0.2691
11579W        W27388   7.454  12.945   2.124  0.0336 -0.2636  0.1463
11580W        W27389   2.319   1.613  13.707  0.0464  0.4302 -0.0078
11581W        W27390   4.952  15.355   5.466  0.0842 -0.2679  0.0881
11582W        W27391  14.239  12.348  11.776 -0.2232 -0.0424 -0.3062
11583W        W27392  13.953   3.289   0.593  0.1222  0.1233 -0.0437
11584W        W27393   6.897   5.359   0.332 -0.2052  0.1464 -0.0709
11585W        W27394   1.054  13.327   3.937 -0.1020 -0.0539  0.0741
11586W        W27395   1.872   0.371   4.554 -0.1936  0.0600  0.0809
11587W        W27396  12.164  10.550  13.657  0.0523 -0.0844  0.1173
11588W        W27397   4.417   4.611   1.599  0.3342  0.0052  0.0248
11589W        W27398   0.765  17.472  13.026  0.1564 -0.5972  0.1574
11590W        W27399  15.575  16.880   4.313 -0.1083  0.0300 -0.1785
11591W        W27400   2.212   4.640   0.207 -0.0366  0.0993 -0.0076
11592W        W27401   3.276   7.806   3.486  0.4450  0.0667 -0.0178
11593W        W27402   7.350  16.268  13.881 -0.0855  0.2215 -0.4663
11594W        W27403  13.603  10.544  13.722  0.0182 -0.0794  0.0800
11595W        W27404   3.455  16.402   4.794  0.1783  0.0250  0.0135
11596W        W27405  10.638  15.640   3.678 -0.1110 -0.0249  0.1868
11597W        W27406   0.051   0.763   3.321 -0.1227 -0.1492 -0.0957
11598W        W27407  13.657   3.718   3.160  0.0914  0.2270 -0.0708
11599W        W27408  16.390   4.464  12.931  0.0332 -0.2808 -0.1240
11600W        W27409  13.611  10.403  10.286  0.3494 -0.0271  0.1434
11601W        W27410   2.574   0.752   5.075 -0.1047  0.2108  0.2130
11602W        W27411   7.012   2.869   0.371  0.0559 -0.0559 -0.1447
11603W        W27412   6.904  12.087   1.589 -0.2292 -0.4400 -0.1346
11604W        W27413   3.905   0.405  12.156 -0.0275  0.0122 -0.1681
11605W        W27414  14.189  14.860   5.878 -0.1422 -0.1627  0.0798
11606W        W27415   8.107  15.994  13.743  0.0716  0.1688  0.2965
11607W        W27416   8.456  17.398  14.193 -0.2564 -0.0488 -0.0183
11608W        W27417  18.324  15.299  12.184  0.2297  0.1140 -0.1554
11609W        W27418   3.549  16.733  15.518 -0.1179  0.2558 -0.0680
11610W        W27419   5.550  12.444   3.519 -0.1304 -0.1242 -0.1367
11611W        W27420  16.964   9.132   2.401 -0.1989 -0.1393 -0.0540
11612W        W27421  10.961  14.158   2.529 -0.1173 -0.3067  0.0388
11613W        W27422  18.007  17.571   1.729  0.1702  0.1106 -0.2588
11614W        W27423  17.625  16.325   0.750 -0.0401 -0.0777  0.1201
11615W        W27424   6.796   0.759   0.176  0.1359 -0.0165 -0.0763
11616W        W27425   1.616   5.695   4.718  0.1722 -0.1589  0.2773
11617W        W27426  11.418  13.257   5.071 -0.0654 -0.0319  0.0970
11618W        W27427   8.796   3.605  15.559  0.0152 -0.2252 -0.0030
11619W        W27428   3.012   2.499  14.438 -0.4301 -0.0143  0.0227
11620W        W27429   0.549   4.587  15.631  0.1787  0.1307 -0.0833
11621W        W27430   2.666   4.434  12.103  0.0408  0.3697 -0.1899
11622W        W27431  15.236   5.096  15.714  0.0568 -0.0581 -0.0755
11623W        W27432  16.489   7.407  15.618  0.0257 -0.1815  0.1376
11624W        W27433   0.934  16.878  14.065  0.2042 -0.1711 -0.0492
11625W        W27434  15.012   2.928  15.291  0.2616  0.2894  0.1026
11626W        W27435  15.537  10.900   2.466  0.0018  0.1433 -0.2635
11627W        W27436   5.676   9.931   3.311  0.3296  0.1760  0.1220
11628W        W27437   5.148  10.437  11.961 -0.1785 -0.1204  0.1173
11629W        W27438   9.583  10.748   1.939  0.0800  0.0019 -0.1612
11630W        W27439   2.697  10.155   5.478  0.2232  0.0906 -0.0008
11631W        W27440  16.604   1.361   4.624 -0.5061  0.2776 -0.1046
11632W        W27441  17.677   1.701   0.558 -0.3359  0.0248  0.0280
11633W        W27442  14.280   1.604  15.037 -0.0754  0.2692  0.2043
11634W        W27443   5.232   3.339   2.528 -0.0272  0.0248  0.0514
11635W        W27444   3.173   2.737  13.464  0.3475  0.0736  0.2337
11636W        W27445   1.194   3.194  11.158  0.4198 -0.2219  0.0829
11637W        W27446   4.307   9.483  15.361 -0.2253  0.0885  0.2551
11638W        W27447   6.089   0.958  13.681 -0.0528  0.0289 -0.0329
11639W        W27448  17.572   9.248  12.351 -0.2320 -0.1724 -0.0550
11640W        W27449  16.481  11.538   1.728  0.0666  0.2920  0.1746
11641W        W27450  13.659  17.732   6.104 -0.1355  0.2265 -0.1369
11642W        W27451   3.365  16.140  13.292 -0.1426  0.1352  0.2917
11643W        W27452  14.083  16.549  13.318 -0.0015 -0.0328  0.1527
11644W        W27453  17.141   9.338  14.342  0.0939  0.1617 -0.1643
11645W        W27454   3.006  14.598  11.401 -0.1624 -0.0142  0.0571
11646W        W27455   7.318  12.474  11.216 -0.0356 -0.2733 -0.0290
11647W        W27456  12.085   4.018   1.187  0.2720 -0.2761 -0.0073
11648W        W27457  12.992   8.801  15.112 -0.3366  0.1260  0.1215
11649W        W27458   4.468   1.005   1.890  0.0096 -0.2993 -0.1474
11650W        W27459   0.812  11.952   4.988 -0.0895  0.2012  0.2936
11651W        W27460  17.533   6.841   4.950 -0.0899  0.3699 -0.1575
11652W        W27461  13.522   5.150   5.405 -0.2593 -0.0214 -0.1597
11653W        W27462  18.274  16.200  14.867  0.2722  0.2223 -0.0350
11654W        W27463   2.713   0.092   4.748 -0.1615 -0.0230  0.1308
11655W        W27464   8.587   5.258  13.788  0.1565 -0.2619  0.4895
11656W        W27465  12.427  14.035   0.763 -0.0079  0.0347  0.1286
11657W        W27466   5.709   7.097  11.112  0.0920 -0.0710  0.2826
11658W        W27467   1.140   5.328   1.386  0.0671 -0.2073  0.0592
11659W        W27468  10.980   4.285   3.607 -0.3894  0.0245  0.2385
11660W        W27469   9.251   1.404   3.220  0.0641  0.0678  0.1293
11661W        W27470   2.640   6.722   4.774 -0.0599 -0.0702 -0.1687
11662W        W27471   5.726   0.063   1.890  0.2713 -0.1180  0.1490
11663W        W27472   9.155   8.331   2.334 -0.1292  0.0865 -0.1353
11664W        W27473  15.953   2.192   1.490  0.2302 -0.0320 -0.2089
11665W        W27474   9.520   0.299   1.245 -0.1307  0.1000 -0.0816
11666W        W27475  17.818  14.516   4.461 -0.2394  0.4210  0.2714
11667W        W27476   7.640  11.771   1.154  0.1585 -0.0018 -0.0381
11668W        W27477   4.811   3.558   4.246  0.2322 -0.1224 -0.1555
11669W        W27478   9.563  12.391  12.153  0.0548 -0.1731 -0.0278
11670W        W27479   9.153   1.793  15.253  0.1979 -0.1416 -0.2735
11671W        W27480   0.042   3.817  15.417  0.0243  0.0708 -0.3022
11672W        W27481   6.543   9.138  11.733 -0.1943 -0.1072 -0.3531
11673W        W27482   9.357   6.414  12.586 -0.3148 -0.2039  0.0527
11674W        W27483  10.371   6.894   1.879  0.1459  0.2103  0.1306
11675W        W27484  14.234  14.661   3.816  0.0401 -0.1646  0.1154
11676W        W27485   5.222   1.415  14.527  0.3356 -0.0215 -0.0898
11677W        W27486   4.508  16.063   1.742  0.0749 -0.0275 -0.1066
11678W        W27487  15.827  18.140  14.964 -0.0879 -0.2058 -0.2437
11679W        W27488  14.122   9.325   4.225  0.0348 -0.1912  0.3694
11680W        W27489   2.246   0.925  10.428 -0.2248 -0.0777  0.2458
11681W        W27490   7.224   7.270  15.459  0.2219  0.4401  0.2588
11682W        W27491   9.348  18.330  11.594  0.1699  0.2678  0.1217
11683W        W27492   1.834  12.273  13.799 -0.1056 -0.0814 -0.0641
11684W        W27493   8.421  11.917   3.453  0.1842  0.1512  0.2088
11685W        W27494  15.958  10.458   0.703  0.1011  0.1047 -0.1557
11686W        W27495   9.605   8.526  11.697  0.0346 -0.0662  0.4402
11687W        W27496   9.634   2.440   1.763  0.0450 -0.0125  0.0163
11688W        W27497  11.243  14.279   3.923 -0.0036  0.0437 -0.1412
11689W        W27498  16.118  15.335   0.549  0.0121 -0.1050 -0.0488
11690W        W27499   9.027   4.964   1.270  0.0685  0.0326  0.2012
11691W        W27500   6.029   5.797  14.921  0.0914  0.0810  0.2490
11692W        W27501  10.931   5.703   4.422 -0.3248 -0.0703  0.0653
11693W        W27502   7.940  14.792   4.214  0.0117 -0.0735  0.1574
11694W        W27503  11.655   2.421   5.680  0.1379  0.0655  0.2100
11695W        W27504  18.093   2.737   2.843 -0.1366 -0.1574 -0.3178
11696W        W27505  11.761  17.766   0.681 -0.0279  0.0795  0.0477
11697W        W27506   0.473   8.175   3.483  0.0196  0.1736 -0.1727
11698W        W27507   0.542  16.639  13.055  0.0816 -0.1751  0.4448
11699W        W27508  10.623  17.032  12.202  0.2983  0.1069  0.0077
11700W        W27509  14.549  15.454   1.076  0.1407 -0.3379  0.0487
11701W        W27510  16.619   6.606  15.797  0.1949  0.1470 -0.0243
11702W        W27511  10.166   4.508  13.797  0.2246 -0.0651 -0.0811
11703W        W27512   4.896  12.331   4.637  0.2371 -0.0616  0.0272
11704W        W27513   5.737   9.677   2.420 -0.0179  0.2234  0.1148
11705W        W27514  15.523  15.334  13.821 -0.2029 -0.1943  0.0473
11706W        W27515  16.022  17.639  12.928 -0.3455  0.2574 -0.0208
11707W        W27516  11.496   8.954   4.646  0.0825  0.0819  0.2075
11708W        W27517   2.572  18.223  15.826 -0.2878  0.2521 -0.1941
11709W        W27518   4.796  15.919  12.115  0.3983 -0.0654 -0.0824
11710W        W27519   0.821  16.705   2.120 -0.1353  0.1341 -0.3962
11711W        W27520  13.154  17.023  13.199  0.2431 -0.2049 -0.1148
11712W        W27521   8.140   0.544  13.093 -0.2235 -0.0167  0.1999
11713W        W27522  17.792   8.929  11.424 -0.3608  0.1363 -0.1308
11714W        W27523  16.859   9.084   2.955 -0.1461  0.0514 -0.2450
11715W        W27524   0.654   3.526   6.084  0.2395 -0.3039 -0.0324
11716W        W27525  11.687   7.836   9.797  0.1313  0.2894 -0.0318
11717W        W27526   2.343   6.856  13.588 -0.1515 -0.0775 -0.0186
11718W        W27527  17.085   9.403  10.514 -0.2212  0.0343  0.0461
11719W        W27528  10.900  17.853  11.616  0.0113  0.2524  0.2987
11720W        W27529   1.318  15.499  13.561  0.3353  0.1771 -0.1053
11721W        W27530   1.454  15.310  12.789  0.0363  0.0714 -0.0716
11722W        W27531  10.974  15.343  12.561  0.0584  0.3266  0.0140
11723W        W27532   7.175  14.702   3.470  0.0287 -0.0661  0.2965
11724W        W27533  13.872   5.186   1.706 -0.0337  0.2055  0.1691
11725W        W27534   8.064  16.896   5.658  0.0252 -0.2182 -0.1698
11726W        W27535  12.934  16.787  14.045  0.0293 -0.2288 -0.0182
11727W        W27536   4.917   8.956   0.115  0.1760  0.1449 -0.1306
11728W        W27537  10.306   6.102  11.470  0.0939 -0.1217 -0.0368
11729W        W27538   3.848   9.967   2.462  0.1974 -0.0272  0.3358
11730W        W27539   0.980  13.184   2.909 -0.1720  0.1267  0.0588
11731W        W27540  10.012   1.199   4.745  0.1660  0.1693 -0.0006
11732W        W27541  15.464  10.612  12.220 -0.1642 -0.3874  0.0168
11733W        W27542  12.637   8.147  10.933 -0.0909 -0.2620 -0.1068
11734W        W27543  12.154   1.225   0.355  0.0555  0.0939 -0.1818
11735W        W27544   8.859  18.115   5.154  0.1416  0.0941 -0.0402
11736W        W27545   7.711   3.756   3.718  0.3056 -0.1400  0.0363
11737W        W27546  17.051  10.671   3.136 -0.0423  0.0628 -0.1119
11738W        W27547   6.245   6.184   1.388 -0.0453 -0.0718 -0.1051
11739W        W27548   0.744   2.185   0.431  0.2619 -0.0561  0.0100
11740W        W27549  13.145  17.832   3.380 -0.0894 -0.2551 -0.2450
11741W        W27550   1.617  11.159  12.461  0.1787  0.0446  0.2662
11742W        W27551   4.406   0.869  14.804  0.4108  0.0914 -0.1940
11743W        W27552  10.602   8.593  11.738 -0.2998 -0.2137  0.0738
11744W        W27553   8.786  15.655   0.326  0.0295 -0.0819 -0.0922
11745W        W27554   7.368  18.373   4.954 -0.1012  0.3370 -0.2452
11746W        W27555   6.213  10.986   2.744 -0.1767 -0.1408 -0.0349
11747W        W27556   0.306  14.093  13.558  0.2020 -0.1343  0.5149
11748W        W27557   3.566   5.968  13.511 -0.1439 -0.0299  0.4237
11749W        W27558   9.521   5.386  10.870  0.2556 -0.0103 -0.0183
11750W        W27559   2.861  10.829   4.400  0.2442  0.2304 -0.3903
11751W        W27560  17.459  14.469  13.569 -0.0501 -0.0687 -0.2137
11752W        W27561   3.852   1.043  15.033 -0.0132  0.0091 -0.1100
11753W        W27562   6.958   6.637  11.116  0.1849 -0.0619  0.1636
11754W        W27563   3.647   3.139  14.130 -0.0238  0.0795 -0.2142
11755W        W27564  13.094   1.790   2.611  0.0655 -0.0824 -0.1139
11756W        W27565  16.300   7.750  14.166  0.1422  0.1514  0.0489
11757W        W27566  14.880   5.300   3.436 -0.1523  0.2291  0.0085
11758W        W27567  14.117   9.808  14.418 -0.0763  0.5010  0.1563
11759W        W27568   5.344   6.646   2.522 -0.1086 -0.4857  0.2086
11760W        W27569   6.752  10.163  15.663 -0.1543 -0.3962  0.4118
11761W        W27570   7.110   9.940   0.279 -0.0577 -0.0309  0.0227
11762W        W27571  10.334   9.111  15.059 -0.1890  0.0296 -0.2298
11763W        W27572   4.625  16.403   2.995  0.0210 -0.2204 -0.1050
11764W        W27573   7.798  15.785  11.384 -0.1577 -0.0599 -0.0696
11765W        W27574  11.043   8.496   0.418 -0.1873  0.1729  0.2660
11766W        W27575  11.840   5.384  12.869 -0.2426 -0.1456 -0.0908
11767W        W27576   5.978   4.567  13.409 -0.0590 -0.0382 -0.0193
11768W        W27577   3.588   9.245   5.165 -0.0417 -0.0105  0.0840
11769W        W27578  15.366   4.493   5.156  0.3287  0.0374  0.1435
11770W        W27579   7.959   8.068   4.190  0.1966 -0.0349  0.1105
11771W        W27580   4.332   5.538  12.903  0.0845 -0.0092 -0.3028
11772W        W27581  15.949  14.280  11.704  0.0387  0.1249 -0.0747
11773W        W27582  15.367  12.163  14.089  0.0014  0.1293 -0.2850
11774W        W27583  17.316  13.558  10.725 -0.0191 -0.0856 -0.2099
11775W        W27584  14.691  10.982  12.182 -0.0533  0.0573  0.0552
11776W        W27585   8.395   7.737  15.509 -0.2546  0.2133  0.1063
11777W        W27586   8.267   5.769  15.112  0.1793 -0.0316  0.2900
11778W        W27587  12.168   9.251  15.300 -0.0757  0.4079 -0.3641
11779W        W27588  14.095   1.256  13.331  0.1635  0.0807  0.0824
11780W        W27589  10.844   9.789   5.122 -0.2422 -0.1449  0.0228
11781W        W27590   6.717  16.412   1.272  0.0673 -0.0358 -0.3042
11782W        W27591   7.088   9.243   4.106  0.0643  0.2516  0.0218
11783W        W27592   2.726   4.902  12.344 -0.0391 -0.0055  0.2350
11784W        W27593  14.800  10.711  15.715  0.4249 -0.2164  0.1961
11785W        W27594   0.112   1.177  11.390 -0.3421 -0.3210 -0.5262
11786W        W27595  17.337   6.283   5.405 -0.1413 -0.0552  0.3545
11787W        W27596  17.771  11.119  11.059 -0.3241 -0.2175  0.0006
11788W        W27597   5.239  16.842   3.782  0.4062  0.0758 -0.0161
11789W        W27598   1.609  13.514   0.611  0.2634  0.0614  0.1013
11790W        W27599   0.761   8.556  13.815  0.0263 -0.3051 -0.0601
11791W        W27600   3.003   2.361  15.721  0.0076  0.1215  0.2598
11792W        W27601   4.934  15.202   3.112 -0.0751 -0.0482  0.1697
11793W        W27602  14.374   8.848  12.651 -0.0879 -0.1068 -0.0692
11794W        W27603  14.672  13.292   5.670 -0.1044  0.2383  0.1706
11795W        W27604   2.528   0.936   1.223 -0.2060 -0.0780  0.0798
11796W        W27605  11.776   7.594  11.231 -0.1454 -0.3187 -0.1331
11797W        W27606  11.475   0.208  11.886 -0.1225 -0.1181 -0.0738
11798W        W27607   6.112  10.421   0.386  0.0387 -0.3084 -0.1017
11799W        W27608  15.366   6.827  14.319  0.2227  0.0245 -0.2348
11800W        W27609  13.561  11.917   4.886 -0.1199  0.1689 -0.1898
11801W        W27610   9.292  12.048   2.986  0.1079  0.1639  0.0643
11802W        W27611  14.976   8.350   2.818 -0.0757  0.0167  0.2540
11803W        W27612  17.816   7.112   0.391  0.1002  0.0648  0.1493
11804W        W27613   2.066  18.229   5.497 -0.0222 -0.2157  0.1157
11805W        W27614  16.395  16.698  13.627  0.0570 -0.2508  0.0846
11806W        W27615   6.328   2.537   0.969 -0.2979  0.2108 -0.0254
11807W        W27616   2.064  10.896  11.100  0.1440 -0.0605 -0.0301
11808W        W27617  16.194  12.464  14.546  0.0667  0.0507  0.0884
11809W        W27618   3.329   2.916   0.222 -0.2956  0.3249 -0.2278
11810W        W27619   6.333   1.673   0.979 -0.0942 -0.1940  0.1483
11811W        W27620  11.515   9.354  12.191  0.1358 -0.1198  0.0139
11812W        W27621  17.468   8.720  11.051  0.1098 -0.3255 -0.1134
11813W        W27622   8.575   2.502  10.875 -0.1156 -0.0620 -0.0731
11814W        W27623   0.350  15.475  11.752 -0.1500  0.0140 -0.1183
11815W        W27624  15.828   7.098  14.458 -0.3280 -0.1224 -0.2392
11816W        W27625  15.630   7.819  11.066  0.0229  0.0937  0.0650
11817W        W27626   4.282   4.254  11.436  0.1526  0.2653  0.0647
11818W        W27627   5.154  17.668   2.545 -0.2897 -0.2012 -0.0801
11819W        W27628  12.608   6.894   0.356 -0.1841  0.0016  0.0386
11820W        W27629   2.107   8.548   1.613  0.1407  0.0451 -0.3310
11821W        W27630   0.382  12.142  12.336 -0.0088 -0.1694  0.1338
11822W        W27631   9.887   8.907  14.317 -0.1104  0.2825 -0.2738
11823W        W27632   9.078  13.421  12.708 -0.3254  0.1991 -0.1747
11824W        W27633  10.386   7.233   2.447 -0.2678  0.0146 -0.2687
11825W        W27634  16.484  17.882   3.100 -0.2440  0.0031  0.2449
11826W        W27635   7.436  17.316   5.087  0.0255  0.0557  0.1334
11827W        W27636  15.987  14.146   3.013 -0.0571  0.2442 -0.1583
11828W        W27637   6.996  16.176  11.438 -0.1783 -0.0211  0.0871
11829W        W27638   3.707  14.691  14.718 -0.1700  0.1497  0.1992
11830W        W27639  12.873   9.792   0.964 -0.1077  0.2711 -0.1057
11831W        W27640   6.896   9.199  15.000 -0.1467  0.0268  0.1441
11832W        W27641   3.182  16.635  12.428  0.1629 -0.0386  0.3492
11833W        W27642   3.031  13.129   6.005 -0.0200  0.0394 -0.0348
11834W        W27643   4.636   1.956   5.082  0.1476 -0.0584 -0.0306
11835W        W27644   8.020  10.249  13.282 -0.1287 -0.1885  0.0942
11836W        W27645   9.284   0.904   4.015  0.0506  0.1346  0.0712
11837W        W27646   3.161  16.503   0.487  0.0530 -0.0610 -0.0429
11838W        W27647   0.712   6.543  13.196  0.2009 -0.0781  0.0814
11839W        W27648  10.887   9.626  10.203  0.1580 -0.0410  0.0957
11840W        W27649   8.640   8.977  12.187 -0.1267  0.0423 -0.0213
11841W        W27650   1.398  18.455   3.232 -0.0881 -0.1817 -0.1182
11842W        W27651   7.929  10.845   4.014  0.0919  0.1200 -0.4089
11843W        W27652  13.710   3.996   3.625 -0.0989 -0.0006 -0.0451
11844W        W27653  11.322  12.419   3.483 -0.0209  0.0203 -0.2651
11845W        W27654  12.344  13.291  12.034  0.1375 -0.0563 -0.0431
11846W        W27655  14.734  16.964   3.805  0.0709 -0.0748  0.1459
11847W        W27656   3.032   5.643  10.793  0.1933  0.0254 -0.0995
11848W        W27657   0.250  12.231   2.757 -0.0699  0.0202  0.1791
11849W        W27658   0.178   4.364   1.927 -0.0745 -0.0139 -0.0352
11850W        W27659   9.300  11.691   4.918  0.4164  0.0158 -0.1581
11851W        W27660   2.150   7.740   4.311 -0.2584  0.0657 -0.1811
11852W        W27661   6.115  11.772   0.457 -0.1010 -0.1028 -0.0933
11853W        W27662  17.741   3.617   3.032  0.1370 -0.2128  0.0203
11854W        W27663  14.735   9.389   4.065  0.1572  0.0066 -0.1906
11855W        W27664  10.447   5.797  12.528  0.1583 -0.0588  0.1077
11856W        W27665  18.433  12.278  11.267 -0.0484  0.2834  0.1511
11857W        W27666   1.336  13.392  14.924  0.0128 -0.3394 -0.1130
11858W        W27667   7.025  14.033   5.227  0.1132 -0.0485 -0.0076
11859W        W27668  15.435   0.462   3.135 -0.0311 -0.1102 -0.2481
11860W        W27669  15.945  15.277  12.719 -0.0800 -0.1292 -0.2523
11861W        W27670  12.636   5.355   0.141  0.0488 -0.2766  0.1357
11862W        W27671   2.555   9.555  12.159  0.0701  0.0989 -0.2961
11863W        W27672  14.978  15.518   1.248  0.0456 -0.1369  0.1464
11864W        W27673  10.742   0.444  11.514 -0.0108  0.2626 -0.1188
11865W        W27674   1.911  16.414  12.691  0.0874  0.3109  0.4659
11866W        W27675   7.104   3.755  12.466  0.2670 -0.2616  0.0672
11867W        W27676   7.458   3.093   1.863  0.0264  0.0319  0.2465
11868W        W27677  16.372   1.885  15.180  0.0311  0.0869  0.3088
11869W        W27678   5.105   6.978  11.736 -0.2792  0.0225 -0.0463
11870W        W27679  12.043   9.836   1.594  0.2453 -0.3676  0.0961
11871W        W27680   5.977  17.387  13.535 -0.0156 -0.0386  0.0667
11872W        W27681   7.921   2.835   1.555  0.2253 -0.0705  0.1185
11873W        W27682   2.853  10.371   4.011  0.2550 -0.4117 -0.2061
11874W        W27683   5.976  10.939   5.954  0.2791  0.2519  0.0428
11875W        W27684  11.963  14.152  11.647  0.0803 -0.2106  0.2246
11876W        W27685   3.952  10.440   2.352  0.2336 -0.0802  0.3604
11877W        W27686   1.464  10.151   1.934  0.2607 -0.0296 -0.0981
11878W        W27687   7.790   3.551   4.688  0.1621  0.2731  0.1223
11879W        W27688  17.944   7.117  13.378 -0.2247 -0.3894  0.0860
11880W        W27689   7.804   1.630  15.689 -0.1775  0.3212  0.0851
11881W        W27690  17.140   0.724   2.180 -0.2326 -0.2400 -0.1516
11882W        W27691   6.290   7.289  12.163 -0.1520 -0.2499  0.0879
11883W        W27692   4.271   7.741   0.237  0.1096 -0.0629 -0.0964
11884W        W27693  13.414   4.105  11.556  0.1731 -0.2464 -0.2605
11885W        W27694   4.961   8.754  13.157 -0.1197  0.1135 -0.0873
11886W        W27695   0.096  11.796  11.196 -0.3629 -0.4631  0.0378
11887W        W27696  13.256   0.589  14.588 -0.2562  0.0225 -0.2283
11888W        W27697  10.939  10.425   1.239 -0.2644 -0.1879 -0.0405
11889W        W27698   4.797   1.436   5.073 -0.0209  0.0580  0.1868
11890W        W27699  15.845  10.357   3.264 -0.0712  0.0252  0.0959
11891W        W27700   7.086  13.657  11.905  0.0328  0.0770 -0.0357
11892W        W27701  12.793  15.312   2.279  0.1166 -0.1765 -0.0672
11893W        W27702  16.289   0.734  13.518 -0.0449  0.1342  0.1946
11894W        W27703   5.707  11.573   0.792  0.0755  0.1532 -0.1688
11895W        W27704   7.996   9.611   3.192 -0.0338 -0.1626 -0.1780
11896W        W27705  15.926  15.931   0.218 -0.0407  0.3037 -0.1765
11897W        W27706  12.929   6.417  15.195  0.0535  0.1814  0.3171
11898W        W27707   3.358  10.397   1.674  0.1463 -0.0908  0.0086
11899W        W27708  12.471   8.916   2.625 -0.0152  0.0013  0.1358
11900W        W27709   0.261   0.391   3.713  0.1051 -0.1082  0.0841
11901W        W27710   0.998  11.417   3.212  0.0150  0.0666  0.0163
11902W        W27711   2.001   0.068  14.679 -0.0106 -0.1120 -0.0141
11903W        W27712   4.437  15.561  14.634  0.0671 -0.0101  0.1798
11904W        W27713  12.027   2.187   2.154  0.1184  0.0663 -0.2849
11905W        W27714   1.299  16.927   0.146 -0.0189 -0.1392  0.0815
11906W        W27715  12.045  13.587  13.558  0.0804  0.0403  0.1990
11907W        W27716  16.467   8.199  11.886 -0.0871  0.2237 -0.0314
11908W        W27717   5.172  11.150   2.104  0.0801 -0.1167 -0.2020
11909W        W27718  10.488   8.844  15.449 -0.0040  0.0631  0.0069
11910W        W27719   4.481   2.202   4.213  0.2298 -0.3532 -0.1626
11911W        W27720  17.920  11.318  11.518  0.2671 -0.1396  0.0650
11912W        W27721   1.289   7.342   3.930 -0.0406  0.1921  0.1640
11913W        W27722   3.939  14.383   3.195 -0.0251  0.2809  0.1588
11914W        W27723   0.197  14.526   3.774 -0.1471  0.1801 -0.0771
11915W        W27724   6.370  15.607   1.879  0.2181  0.0472 -0.1059
11916W        W27725   2.754  17.475  15.669 -0.0500 -0.0179  0.0232
11917W        W27726   1.308  13.832  13.444 -0.1478 -0.0269 -0.2259
11918W        W27727   8.569   3.040  10.830  0.0516 -0.1092  0.3570
11919W        W27728  17.140   1.766  13.872  0.1027 -0.1211  0.2128
11920W        W27729   5.063   1.302  11.658  0.2556  0.2229  0.3366
11921W        W27730   2.657   0.601  10.724 -0.1252 -0.0755  0.1880
11922W        W27731  17.750   9.484   2.571 -0.3472 -0.1038  0.0910
11923W        W27732  15.352  17.597   5.499 -0.0689 -0.0021  0.1532
11924W        W27733   8.136  16.128  14.709 -0.1147  0.2442  0.2475
11925W        W27734  16.636   1.374  10.974  0.2246 -0.1591  0.1503
11926W        W27735   4.397   4.430  12.343  0.0134 -0.2477 -0.0176
11927W        W27736  15.512  16.515   3.241 -0.0463  0.1877 -0.1848
11928W        W27737   0.531   7.721  13.559  0.0164  0.1931 -0.2364
11929W        W27738   7.890   0.271   1.921  0.0936 -0.2504 -0.0141
11930W        W27739  15.536  16.547   1.842  0.0068 -0.2674 -0.0233
11931W        W27740   4.470   8.731   4.270 -0.0323  0.0112 -0.0662
11932W        W27741  17.502   4.549   1.994  0.4846 -0.0425  0.2934
11933W        W27742   1.078   4.136  12.136  0.1123  0.1632 -0.1223
11934W        W27743   2.588  14.425   2.588 -0.0103 -0.0577  0.0585
11935W        W27744   9.860   4.330   4.621 -0.1442 -0.0570  0.1322
11936W        W27745  15.806   5.108   0.491  0.2362 -0.2077 -0.0835
11937W        W27746  15.825  16.632   4.776 -0.2267 -0.2217 -0.0386
11938W        W27747  10.646   1.869   1.009  0.0484  0.0618 -0.0912
11939W        W27748  15.853   6.360   0.819  0.1699 -0.1369 -0.1166
11940W        W27749   3.377  13.537   1.773  0.2735 -0.0232  0.0381
11941W        W27750   9.232  10.565  12.898  0.0364 -0.1414  0.2504
11942W        W27751   7.769  12.506  14.683  0.1027 -0.2320 -0.3728
11943W        W27752  13.948  17.945   4.513  0.0828 -0.0005 -0.1092
11944W        W27753   3.197   1.432  14.915 -0.1314 -0.0875  0.0148
11945W        W27754   5.582   5.475   5.297  0.1101  0.1565  0.0323
11946W        W27755  15.743   8.608   3.389  0.2637  0.1806  0.3350
11947W        W27756  10.814   9.205   1.694  0.1042 -0.2262  0.3524
11948W        W27757  12.911   7.670   3.864  0.0849  0.0206  0.0574
11949W        W27758   3.050   1.157  14.351 -0.0041  0.3583  0.0179
11950W        W27759  11.300   7.197   1.646  0.5213  0.0327 -0.4597
11951W        W27760   4.613   3.378  13.210  0.2627 -0.0882  0.2510
11952W        W27761   9.455  15.787  13.137 -0.0682 -0.0897 -0.2668
11953W        W27762   8.870   1.013  11.093 -0.1288 -0.0780 -0.1991
11954W        W27763  14.599   8.716  13.626 -0.4239 -0.0822  0.0678
11955W        W27764   6.778  10.087   4.392  0.1120  0.1338 -0.0214
11956W        W27765  15.805  11.539  13.060  0.0012 -0.2274 -0.1888
11957W        W27766  13.325  11.855   4.423 -0.0767 -0.1404 -0.1279
11958W        W27767   5.340   3.121   5.287 -0.0894  0.1764  0.0205
11959W        W27768   7.822  14.856  15.453  0.0354  0.0607  0.1506
11960W        W27769  12.976   0.859   2.315 -0.0067  0.0114  0.0077
11961W        W27770   3.922   4.634  15.279 -0.1013  0.0156 -0.0212
11962W        W27771   3.321  10.402   3.812  0.1875  0.0291 -0.0645
11963W        W27772  14.395  10.251  12.002 -0.1853  0.2126  0.0206
11964W        W27773   8.911  17.821  12.795 -0.1833 -0.0683  0.1825
11965W        W27774  15.577   4.414   2.577  0.0255 -0.2884 -0.0118
11966W        W27775   1.885   3.535   2.299  0.0907  0.1313  0.0123
11967W        W27776  15.028   0.142   2.871  0.1544 -0.2400  0.1984
11968W        W27777   4.977   7.771  11.560  0.1943 -0.1107 -0.1569
11969W        W27778   8.250   5.914  14.145  0.1195 -0.1091 -0.1313
11970W        W27779   2.553   9.284  11.633 -0.2687 -0.0391  0.0352
11971W        W27780   9.772  15.985   4.232  0.0754 -0.1224  0.1705
11972W        W27781  15.435  17.456   1.395  0.0944  0.0915 -0.2544
11973W        W27782  15.878  16.188  15.122 -0.0248  0.1688  0.0033
11974W        W27783   2.397  10.427  11.941 -0.2108 -0.0702 -0.3398
11975W        W27784  12.607   7.120   2.644  0.3929  0.0514 -0.0856
11976W        W27785   9.840  16.491  15.015 -0.1397  0.2763 -0.4812
11977W        W27786   2.742  11.813   3.910  0.3218  0.0595  0.1807
11978W        W27787  14.640   6.618   5.297  0.1528 -0.0130  0.1003
11979W        W27788  10.143   0.852  14.009 -0.3152  0.0903 -0.1842
11980W        W27789  10.546   9.235   4.270 -0.1803  0.1947  0.0733
11981W        W27790  14.860   5.011  15.407 -0.0237  0.2063 -0.1193
11982W        W27791  16.136   9.112   0.744  0.0870 -0.2169  0.1468
11983W        W27792   7.954   9.838   0.224  0.0573  0.1021  0.0188
11984W        W27793   5.890   7.301  14.681 -0.1413 -0.1958  0.4752
11985W        W27794  14.426  10.543   0.991  0.3360  0.1035 -0.2457
11986W        W27795  10.134   8.037  10.773 -0.2058 -0.1844 -0.1447
11987W        W27796   3.335   1.653   4.681  0.0436 -0.1653  0.0010
11988W        W27797  11.003   1.439   4.918 -0.3913 -0.1354 -0.1345
11989W        W27798   0.198  15.156   0.219  0.1454  0.0456 -0.1125
11990W        W27799  18.111   8.553   4.738  0.0855  0.1096 -0.0379
11991W        W27800  14.767   9.047  15.388  0.1416  0.0472 -0.0968
11992W        W27801  17.768   6.981   1.860 -0.3841  0.5226 -0.0059
11993W        W27802   7.308   2.385  15.107  0.1713 -0.0096  0.1173
11994W        W27803   6.703   9.746  14.296  0.0037  0.1280  0.0271
11995W        W27804   6.755   7.827   1.304  0.0024 -0.0045  0.0242
11996W        W27805   5.599  13.597   0.819 -0.0341 -0.0965  0.1208
11997W        W27806   1.474  14.898  14.157 -0.0019 -0.1171 -0.0480
11998W        W27807   5.497   3.562   4.005 -0.1821 -0.3839  0.1854
11999W        W27808  14.197  12.720   2.509  0.1923 -0.0876  0.0747
12000W        W27809  13.836  14.990  12.285 -0.0926 -0.0485  0.3676
12001W        W27810  13.242   0.129  10.046  0.1299  0.2190 -0.0717
12002W        W27811   8.309  16.785   3.149 -0.4285  0.3006  0.2564
12003W        W27812  13.723   2.429   0.021 -0.0517 -0.0706 -0.1472
12004W        W27813   0.151   1.215  10.260 -0.0511 -0.1913  0.1554
12005W        W27814  17.057  13.743  15.402  0.0173 -0.2220 -0.2851
12006W        W27815   7.206  17.505   3.284 -0.1647 -0.2521  0.1187
12007W        W27816  14.670   0.707   2.620 -0.0187  0.1960  0.1241
12008W        W27817  14.956   7.929   1.828  0.2085 -0.1043  0.0032
12009W        W27818   0.678  16.798   0.832 -0.2011 -0.1105 -0.0237
12010W        W27819   4.369   9.882   1.002  0.0968 -0.1304 -0.2087
12011W        W27820   4.800   3.658   1.812  0.0522  0.0564 -0.2287
12012W        W27821  10.011  17.160   0.837  0.1772 -0.0801 -0.0601
12013W        W27822  14.475   2.717  11.467  0.2495  0.0406 -0.3885
12014W        W27823  15.031   5.755   4.134 -0.1275 -0.2887 -0.0111
12015W        W27824  12.846  15.250   0.875  0.1231 -0.1207 -0.2183
12016W        W27825   3.244  17.679  12.354 -0.0431 -0.1022  0.0618
12017W        W27826   6.183  15.819  13.201  0.2109 -0.4716  0.1470
12018W        W27827   8.025  14.392  15.770 -0.0320 -0.0444 -0.2575
12019W        W27828  14.156   6.184   3.800  0.0092  0.1328 -0.0085
12020W        W27829   5.218  15.114   4.528 -0.0041  0.0814  0.1945
12021W        W27830   4.417   7.190  12.790  0.3057  0.0456  0.3831
12022W        W27831   2.589  14.328   0.895 -0.0022  0.0263  0.0295
12023W        W27832   2.830   0.681  14.276  0.0362  0.0814  0.1516
12024W        W27833  13.939  10.021   4.370 -0.2522  0.0899  0.1122
12025W        W27834  13.540  15.925   5.223  0.0556  0.0768 -0.0640
12026W        W27835  18.216  14.696   5.330  0.1750 -0.2411 -0.0370
12027W        W27836   6.994   6.834  12.836  0.1395  0.1099  0.0550
12028W        W27837  16.176   7.020  13.102 -0.1208 -0.0537  0.0481
12029W        W27838   2.773   6.275  13.585  0.1493  0.0086 -0.0932
12030W        W27839   4.713   3.865  12.991  0.0775 -0.0219 -0.2429
12031W        W27840   3.553  16.903  14.464  0.1525 -0.2717 -0.1662
12032W        W27841   8.670  14.143  11.610  0.0140 -0.1835  0.0300
12033W        W27842  13.397  10.050   2.812  0.1342 -0.3044 -0.1043
12034W        W27843   4.918  15.070   3.762  0.2725 -0.0703  0.1332
12035W        W27844  11.283  16.536  12.957  0.1723 -0.0591 -0.2583
12036W        W27845  13.406  18.099   3.021  0.0049 -0.0390 -0.1354
12037W        W27846   2.936   1.941   1.993 -0.1770 -0.0021 -0.2157
12038W        W27847   0.883   4.693  14.082  0.1063 -0.0839  0.0494
12039W        W27848  16.908  18.120   0.701 -0.3381  0.0274  0.1851
12040W        W27849   6.351   8.015  13.614 -0.1516  0.0091  0.1081
12041W        W27850  12.338   5.980  13.605  0.1176 -0.0516  0.3105
12042W        W27851   4.143   8.314   4.220  0.1936 -0.1156  0.3020
12043W        W27852   6.393  11.791   1.943  0.0092 -0.1445  0.1123
12044W        W27853   3.825   7.881  10.501  0.1599  0.1400 -0.1627
12045W        W27854   2.419   3.708   0.043 -0.4660  0.1188  0.0206
12046W        W27855   7.606   9.174   2.783  0.0031  0.0089 -0.3314
12047W        W27856   4.172  14.416   0.705 -0.1508  0.0622 -0.0359
12048W        W27857   1.618  11.393   5.268  0.2841 -0.1256  0.2573
12049W        W27858   6.257   3.941  10.948 -0.0524  0.2145  0.0196
12050W        W27859   5.001   0.736  14.392  0.0430 -0.1377 -0.1712
12051W        W27860  17.244   3.758  15.384  0.0725 -0.0055 -0.0114
12052W        W27861   4.919  18.336   0.744  0.0324  0.0224  0.0274
12053W        W27862  10.974  17.744   1.898  0.2836  0.0060 -0.1004
12054W        W27863   8.330  18.263   0.070 -0.2132  0.1639  0.3123
12055W        W27864   9.311   2.714  12.791 -0.0071  0.0382  0.0073
12056W        W27865   4.601   4.816   5.380 -0.2231  0.1716 -0.0428
12057W        W27866  14.535  15.428  12.763 -0.2194  0.0169  0.2777
12058W        W27867  17.090  11.256  13.995  0.0260  0.2153  0.1752
12059W        W27868   5.886   2.121   3.830  0.0361 -0.0562 -0.1956
12060W        W27869  16.368  18.346   2.931  0.3128  0.0352 -0.0958
12061W        W27870   3.299   8.019   2.078  0.0626  0.0533  0.0820
12062W        W27871  12.711  12.134   2.241 -0.0548  0.1922  0.0362
12063W        W27872  12.593   2.679   3.572  0.1162 -0.2844 -0.1879
12064W        W27873   1.407  13.200   4.252  0.2611  0.0078 -0.0765
12065W        W27874  16.326   1.904  14.243 -0.1029 -0.2429  0.1649
12066W        W27875   4.647  15.935  13.221 -0.0426 -0.2192 -0.0522
12067W        W27876   9.034  16.039   1.847  0.1583 -0.1865  0.1675
12068W        W27877   6.064   1.932  13.676  0.0517  0.1190 -0.0960
12069W        W27878   1.728   8.347   1.238  0.1369 -0.0911  0.3472
12070W        W27879   5.053   3.626  13.975  0.1836  0.1281 -0.0735
12071W        W27880   1.111   3.811  12.578  0.1536 -0.2679  0.1346
12072W        W27881   1.481  12.065  11.382 -0.1668  0.1427 -0.3043
12073W        W27882   0.253   9.247  13.764 -0.1214 -0.2302  0.2108
12074W        W27883  10.171   8.295  14.108  0.0717 -0.1451  0.1824
12075W        W27884   4.381   8.506  11.849  0.1532 -0.2812 -0.1491
12076W        W27885  10.247   2.059  11.637 -0.1258  0.4280  0.1688
12077W        W27886  11.764  14.772   4.876  0.2161  0.1585  0.0169
12078W        W27887  13.582  17.455  12.309  0.0140 -0.0804 -0.1455
12079W        W27888   4.709  15.946  15.433 -0.3017  0.1778  0.0728
12080W        W27889   4.865   4.493   3.770 -0.0126 -0.0568  0.0050
12081W        W27890   7.301  18.250  12.373  0.1213 -0.0103 -0.0545
12082W        W27891   0.847   2.237  11.790  0.4447 -0.3305  0.1276
12083W        W27892   5.770  18.024   0.088 -0.1220  0.0659  0.0348
12084W        W27893   8.457   8.311   4.373  0.1256 -0.1129 -0.2471
12085W        W27894   3.254   3.401  13.986  0.0870 -0.0748 -0.3576
12086W        W27895   8.066  13.095  12.816  0.2103  0.2720  0.1400
12087W        W27896  17.075   8.433   4.166  0.1118  0.2137 -0.0812
12088W        W27897   0.447   5.680  13.566  0.0793  0.0083 -0.0186
12089W        W27898  18.400  13.963  10.591 -0.0321  0.0602  0.0634
12090W        W27899  16.927  10.150  14.604 -0.3584 -0.1039 -0.1296
12091W        W27900  10.913   9.040  15.741  0.1222  0.1840  0.0863
12092W        W27901  13.622   9.211   1.911  0.2646 -0.1509 -0.1192
12093W        W27902  12.745   9.514  12.896  0.0546 -0.2075  0.2178
12094W        W27903   8.126  11.790  12.734 -0.2901  0.0888  0.3412
12095W        W27904  15.250   1.942   2.077 -0.0153  0.1930 -0.0101
12096W        W27905  18.254   9.717  15.366  0.0825 -0.2572  0.0003
12097W        W27906   4.585   6.220   2.396  0.0416  0.0559 -0.1587
12098W        W27907   6.790   0.650   2.591 -0.1059  0.0145  0.2479
12099W        W27908   8.612  15.168  15.409  0.0717 -0.1482  0.1085
12100W        W27909  11.359  12.359   2.073  0.2095 -0.1021  0.2005
12101W        W27910   9.261  12.936  14.126 -0.6417  0.0235  0.0373
12102W        W27911   2.217  13.581  10.369  0.1028 -0.1228 -0.0467
12103W        W27912   9.514  15.091  13.646  0.1492 -0.0823  0.0248
12104W        W27913   7.470  18.461  14.703  0.4035 -0.2014  0.0415
12105W        W27914  16.050   2.316   3.048  0.1812 -0.2037 -0.0577
12106W        W27915  12.380  17.729  14.484 -0.1932 -0.0440 -0.0844
12107W        W27916  11.139   2.166  11.271  0.1804 -0.1488  0.1206
12108W        W27917   4.178   7.829   1.061  0.1628  0.0703 -0.0380
12109W        W27918   4.517  13.749  14.155  0.0890 -0.0476  0.1074
12110W        W27919   5.823  17.992  15.443  0.1302  0.0843  0.0875
12111W        W27920  14.137   9.307   0.367  0.0331  0.0958 -0.0680
12112W        W27921   8.960  11.376  14.245 -0.4082  0.1635 -0.1658
12113W        W27922   9.950   6.477  14.167 -0.0457 -0.0259 -0.0761
12114W        W27923   0.399   8.966  15.004 -0.0765 -0.0170  0.1988
12115W        W27924   1.471   9.546   2.618  0.1435  0.2366  0.4341
12116W        W27925  10.581   7.383  10.851  0.1397 -0.1688 -0.2175
12117W        W27926  18.116  16.405   3.597  0.2123 -0.0104  0.2728
12118W        W27927   2.487  12.594  12.035  0.0582  0.1459 -0.2455
12119W        W27928  15.633  10.203  14.983  0.1007 -0.5066 -0.0110
12120W        W27929  13.648  14.920   3.272  0.1048  0.0283 -0.0822
12121W        W27930   3.619   9.069   2.467  0.0491 -0.0500 -0.0476
12122W        W27931   4.783  13.616   4.125 -0.0508  0.0745  0.1745
12123W        W27932  16.547  14.232   4.792  0.0265  0.0662  0.0293
12124W        W27933   5.745   5.347  12.425 -0.1327  0.2059  0.2370
12125W        W27934  18.331  15.049   1.119 -0.3302 -0.0380  0.0768
12126W        W27935   7.387   4.770  10.287 -0.1551  0.0077  0.3315
12127W        W27936   1.623   7.319   3.112 -0.0851  0.1056  0.3426
12128W        W27937   3.548   1.764  15.378  0.0509  0.1835 -0.1377
12129W        W27938  15.378  15.467  15.448 -0.0193  0.0309  0.3921
12130W        W27939   9.011  11.395   1.656 -0.0538 -0.0638 -0.0811
12131W        W27940   1.857  12.509  15.324  0.0570 -0.2427 -0.2124
12132W        W27941  15.169  13.182   3.598  0.2888  0.2338  0.1684
12133W        W27942  11.860  12.569   1.797  0.2817  0.1980 -0.1918
12134W        W27943  16.884  14.972  14.205  0.3031 -0.0518  0.1331
12135W        W27944   3.316   9.270  10.068 -0.0968 -0.1304 -0.1476
12136W        W27945  17.218  15.132   2.160  0.0761 -0.0225 -0.2031
12137W        W27946   4.301   3.605   4.581  0.0925  0.1845 -0.2414
12138W        W27947  17.219  15.258  12.773  0.1319 -0.0010  0.0113
12139W        W27948   7.068  16.338  10.984  0.0113  0.2528 -0.0105
12140W        W27949   3.458   8.780   1.800 -0.0358  0.1994 -0.0324
12141W        W27950  10.051  15.621  15.194 -0.2730 -0.1290 -0.1071
12142W        W27951   7.640  17.918   4.488 -0.0098  0.3050  0.1343
12143W        W27952   6.040  18.037   4.077  0.0918  0.0783  0.1299
12144W        W27953   5.411  15.843  14.667  0.1056 -0.1900 -0.0764
12145W        W27954  12.221   8.241  15.725 -0.0901  0.2616  0.1111
12146W        W27955   4.974  13.049  14.456 -0.0031  0.1098 -0.0855
12147W        W27956  11.720   5.712   4.493  0.2289  0.3181  0.0470
12148W        W27957  14.788  13.665  13.230  0.0267  0.0393  0.0595
12149W        W27958  16.922   5.404   5.737  0.0676  0.2462  0.1281
12150W        W27959   8.414   3.091   5.703  0.3409 -0.0991  0.3335
12151W        W27960  15.445  11.225   4.675  0.1352  0.3519  0.1773
12152W        W27961  10.630   9.874  12.399 -0.1181  0.0252  0.0994
12153W        W27962   5.217  10.100   1.019 -0.2190 -0.1260  0.3627
12154W        W27963   6.203  17.090   2.048 -0.0056  0.2247 -0.2138
12155W        W27964   4.319  17.612   3.758 -0.1384  0.2070  0.3186
12156W        W27965  16.655  16.487   3.785 -0.0596 -0.1930 -0.3536
12157W        W27966  15.754  11.527  14.110  0.0507 -0.2613 -0.1576
12158W        W27967  12.439  18.135  14.865  0.0750  0.0193 -0.1295
12159W        W27968  12.151   3.649  12.916 -0.4209 -0.3764 -0.0618
12160W        W27969  11.460  15.699   1.540 -0.0981  0.0701 -0.2882
12161W        W27970  10.256   0.715  12.299  0.0892  0.2027 -0.2547
12162W        W27971   1.052  15.972  15.659  0.2286  0.1084 -0.0245
12163W        W27972   3.936   2.848   4.606 -0.1114  0.1989  0.0741
12164W        W27973   0.871   6.204   0.482 -0.0934 -0.3341 -0.0358
12165W        W27974  14.177  14.279  14.365 -0.1118  0.0119 -0.2730
12166W        W27975  13.427  14.884  12.670  0.0589 -0.1554 -0.2117
12167W        W27976   6.324  13.442   2.686  0.0942 -0.2124  0.0135
12168W        W27977  10.529  13.034  15.246  0.0453  0.0903  0.1827
12169W        W27978  15.046   5.884  14.374  0.3296 -0.0168  0.2324
12170W        W27979  14.336   4.416  11.462 -0.1185  0.0425 -0.1195
12171W        W27980   6.299  18.039   1.391  0.0070 -0.1375  0.2840
12172W        W27981  12.754  10.717  12.155  0.0980 -0.2199 -0.2033
12173W        W27982  14.494   3.185   0.628 -0.0445  0.2706 -0.2090
12174W        W27983   2.391   0.018   1.917  0.0316 -0.3819  0.1603
12175W        W27984   5.156  15.508  13.931  0.2037 -0.0480 -0.1151
12176W        W27985   5.080   7.789   2.682 -0.2257 -0.0637  0.1681
12177W        W27986   0.701  14.130  13.975  0.0525 -0.2265  0.3438
12178W        W27987   0.669   6.678   3.931  0.4273  0.4114  0.0217
12179W        W27988   6.026   7.862  13.257 -0.1475  0.0983 -0.0151
12180W        W27989  16.052   0.677  15.762  0.0480  0.1487 -0.2927
12181W        W27990   9.521  16.634   5.351 -0.0477  0.0274 -0.0759
12182W        W27991   0.521  11.111   1.212 -0.0523 -0.1646 -0.0855
12183W        W27992  12.986   6.711   4.969  0.0347 -0.1849 -0.1373
12184W        W27993   0.952  11.193  11.356 -0.2007  0.0179  0.2586
12185W        W27994   6.397   2.773  11.852  0.1882  0.4715 -0.2433
12186W        W27995  15.801   2.289   5.370 -0.2212  0.0666  0.1434
12187W        W27996  11.552   9.817   5.802 -0.0548  0.2056  0.0422
12188W        W27997   8.908  16.891   0.257  0.0082  0.0537 -0.0805
12189W        W27998  15.934   3.104   5.098 -0.0993  0.0545  0.1565
12190W        W27999  17.246  10.749   5.221 -0.0325 -0.0234 -0.1209
12191W        W28000  13.922   2.404  13.296 -0.0622 -0.1135 -0.0115
12192W        W28001  12.484   6.196   3.199 -0.1275 -0.0623  0.0702
12193W        W28002   8.484   6.108   4.188  0.0599  0.4304  0.1134
12194W        W28003   3.530   7.719  13.942  0.0887  0.3636  0.2131
12195W        W28004  10.623  12.997  14.696  0.3095  0.3664 -0.0374
12196W        W28005   8.858   8.315   3.094 -0.0532  0.0912 -0.2826
12197W        W28006   6.502   5.818   5.210  0.0661  0.3996  0.4376
12198W        W28007  14.206  14.191   3.575  0.0450  0.0561  0.0070
12199W        W28008  10.178  14.610   1.037 -0.2009 -0.1196 -0.1037
12200W        W28009   9.597   1.251   1.090  0.1142 -0.1725  0.2485
12201W        W28010  13.026   5.667   3.793 -0.0994  0.2304 -0.1615
12202W        W28011   0.772   8.966  12.972 -0.2093  0.0158  0.0169
12203W        W28012  12.771   0.797   3.769 -0.0878  0.2386 -0.0697
12204W        W28013  12.144   8.513   2.519  0.0200 -0.0559  0.0827
12205W        W28014   2.055   4.296   0.804  0.1865  0.2187 -0.3354
12206W        W28015  18.069  13.494  13.443 -0.1156  0.1634 -0.3126
12207W        W28016   7.365   0.397   3.872 -0.1255 -0.2285  0.0242
12208W        W28017  18.002   4.749   5.031 -0.0070  0.0143 -0.0119
12209W        W28018   2.884   9.179   3.026  0.1243 -0.2352 -0.2755
12210W        W28019   0.639  15.436   0.382 -0.2054 -0.0728 -0.0996
12211W        W28020   0.960   1.149   0.285 -0.0078 -0.2336  0.1264
12212W        W28021  12.861  11.207  12.198 -0.1556  0.1068  0.2591
12213W        W28022   5.522  12.794   4.126  0.1002  0.0068  0.0753
12214W        W28023   0.435   8.504   6.359  0.0042 -0.0949  0.0530
12215W        W28024  16.702   4.654  14.863  0.0722 -0.0166  0.1938
12216W        W28025  16.714   9.938  14.206  0.0366 -0.1038  0.1569
12217W        W28026   1.565   6.910   2.815 -0.0455  0.0517 -0.1271
12218W        W28027  15.754  12.141  15.429  0.1279  0.1186 -0.1009
12219W        W28028  10.514   5.347  13.964 -0.0068  0.1692  0.2099
12220W        W28029  12.814   6.463   0.179 -0.3852 -0.3812 -0.2003
12221W        W28030   2.770   8.449   2.932  0.1048 -0.3131 -0.0148
12222W        W28031   1.106   6.968  11.106 -0.0594  0.1560 -0.1146
12223W        W28032   5.334  14.607  15.157 -0.0195 -0.1022 -0.1341
12224W        W28033  17.378  15.270   1.507 -0.1089 -0.0309  0.2263
12225W        W28034   7.987   8.334  15.076  0.0855  0.2272  0.0326
12226W        W28035   0.510   8.657  14.584 -0.5550  0.0798  0.1788
12227W        W28036   2.159  10.316   5.536 -0.1232  0.1923  0.1806
12228W        W28037  13.762  12.760   2.789 -0.0858  0.1726 -0.1981
12229W        W28038  14.278  11.234   2.714  0.3589 -0.1075  0.1917
12230W        W28039   7.910   5.416   2.031 -0.1235 -0.3953  0.1895
12231W        W28040   9.089   2.262   3.213  0.1605  0.1689  0.2312
12232W        W28041  17.859   3.727  13.487 -0.0689 -0.0689  0.2976
12233W        W28042  17.994  11.300   3.466 -0.2523  0.2989  0.0835
12234W        W28043   0.325   1.346  12.881  0.1036  0.1145 -0.0428
12235W        W28044  16.181  15.008   2.697  0.2328 -0.0873  0.0021
12236W        W28045  18.362  16.028   1.562  0.0290 -0.0216 -0.2277
12237W        W28046   0.712  12.187   3.597  0.0823 -0.2335  0.1033
12238W        W28047  14.860  12.376   4.425  0.1284 -0.2500  0.0263
12239W        W28048   8.284   3.407   4.517 -0.0670 -0.1795 -0.1522
12240W        W28049  17.607   2.244  13.656 -0.1241  0.0561  0.0632
12241W        W28050   5.068  10.080   2.620  0.0075 -0.1159 -0.0244
12242W        W28051  15.705   5.437  12.442  0.1657  0.1797  0.0565
12243W        W28052  15.707  10.611   1.353  0.2075  0.0324  0.2323
12244W        W28053   5.440  14.461   2.719 -0.0911  0.3832 -0.0400
12245W        W28054  10.018   7.156   1.153  0.2721  0.0686  0.0736
12246W        W28055   7.797   4.604  10.731  0.1064 -0.3340  0.2073
12247W        W28056  14.826  18.000   4.012 -0.0880  0.1685 -0.1600
12248W        W28057  12.728   6.807  12.004  0.0647  0.3576 -0.1041
12249W        W28058  17.118  12.140  14.065  0.1659  0.0922  0.1025
12250W        W28059  16.788   5.073  13.137  0.0404 -0.0811 -0.1103
12251W        W28060   3.206   6.039   2.980  0.2311  0.0516 -0.3546
12252W        W28061  12.334  10.879   5.768  0.2286 -0.0197  0.0948
12253W        W28062  14.000   7.382   0.878  0.1952  0.2115  0.0440
12254W        W28063   3.357   2.540   3.173 -0.0366 -0.3447 -0.0156
12255W        W28064   7.053  13.173   0.020  0.0898  0.0455 -0.0668
12256W        W28065   8.933   0.723  12.261  0.1265  0.1098  0.3904
12257W        W28066  15.200  15.557   2.434 -0.0249  0.1466  0.1230
12258W        W28067  13.397  11.387   2.673 -0.1477  0.0318  0.0903
12259W        W28068  16.524  12.026  13.720  0.0086  0.0657 -0.1206
12260W        W28069   0.099   5.360  15.539 -0.0754 -0.0371 -0.3506
12261W        W28070  10.948  12.429  14.128 -0.0358 -0.0852 -0.1606
12262W        W28071  13.839   1.703  13.983 -0.0726  0.2208  0.0080
12263W        W28072   0.363  10.258   3.685 -0.1168  0.0484  0.0823
12264W        W28073  14.474  13.352  15.244  0.3595  0.1441  0.1681
12265W        W28074   7.410  18.020   2.028 -0.0103 -0.0922 -0.2553
12266W        W28075   6.555   7.132  13.099  0.1664  0.0250  0.0362
12267W        W28076  17.692  14.049   0.356 -0.0590  0.2671  0.1249
12268W        W28077  16.100  12.231  13.562  0.1039 -0.1030  0.1229
12269W        W28078   5.354  16.081   1.624  0.6432  0.0801 -0.0608
12270W        W28079   3.754   0.882  15.520 -0.1002  0.0213 -0.1857
12271W        W28080  16.602   9.405  13.489 -0.2894 -0.0587  0.2634
12272W        W28081  12.096   4.434   2.424  0.1743  0.2770 -0.1308
12273W        W28082   6.890   0.295   0.285 -0.0145  0.1021 -0.1939
12274W        W28083   3.608   8.599   2.610  0.2012  0.1459 -0.1253
12275W        W28084  17.044  14.429   3.926  0.2767  0.0631 -0.1884
12276W        W28085   7.835  12.548   5.965  0.2150  0.3748  0.4091
12277W        W28086   9.470   6.646  14.101  0.1611  0.1361 -0.2849
12278W        W28087   1.514   5.312  14.563  0.1666  0.0521 -0.0840
12279W        W28088  17.118   2.219   5.492  0.0564 -0.0689  0.2664
12280W        W28089  11.459   7.143  13.387 -0.1640  0.0648  0.0814
12281W        W28090   5.723  17.860   5.017  0.0309 -0.0824 -0.3175
12282W        W28091   1.915   3.593   3.723  0.1052  0.0385 -0.0725
12283W        W28092  16.342  15.014   5.581  0.1051 -0.1544  0.1504
12284W        W28093   0.674   1.235   3.955  0.1496  0.1384  0.0999
12285W        W28094  11.408  10.592  14.444 -0.3348 -0.2201 -0.0924
12286W        W28095  17.821  10.830   5.959 -0.0195 -0.2182 -0.0014
12287W        W28096  16.905   7.252   5.640  0.2171  0.0629  0.0695
12288W        W28097   5.321   5.493  15.778  0.0248 -0.1231  0.0458
12289W        W28098  10.142  16.184   2.934 -0.0763 -0.2126  0.2720
12290W        W28099   4.043  11.558  13.526 -0.0645  0.1924 -0.0278
12291W        W28100   4.370   5.121  13.371 -0.0634  0.0926 -0.2685
12292W        W28101  11.453   0.501   4.696 -0.0744  0.0760  0.0874
12293W        W28102  17.906   7.787   3.363 -0.3344  0.2009 -0.2377
12294W        W28103  10.225   5.045  11.457 -0.1629  0.1346 -0.0961
12295W        W28104   1.697  10.867  10.802 -0.0194 -0.0799  0.0349
12296W        W28105  14.181   8.485  11.128 -0.0744 -0.2382  0.3225
12297W        W28106  16.331  11.791   5.852 -0.0947  0.0302 -0.1557
12298W        W28107   1.017  13.440  13.667  0.0072 -0.1885  0.0331
12299W        W28108  15.626   2.428  14.073 -0.0015  0.0390 -0.1236
12300W        W28109   8.701   4.606  12.622 -0.1207  0.3924  0.2272
12301W        W28110   0.541   1.072  13.987  0.0971 -0.2070  0.0516
12302W        W28111  10.399   8.482   2.926 -0.0908  0.2110  0.0776
12303W        W28112  17.398   2.213   3.045  0.1804  0.1425  0.0348
12304W        W28113  10.407   0.171   4.943  0.0496 -0.4400 -0.0494
12305W        W28114  17.523   5.579  14.504 -0.0408  0.1422 -0.1425
12306W        W28115   4.340  14.522  15.527  0.2838  0.2133 -0.1750
12307W        W28116  13.068   0.241  10.573  0.0975 -0.2885  0.4301
12308W        W28117  11.878  15.590  14.821 -0.3278 -0.0696 -0.1050
12309W        W28118   1.994   2.709  11.148  0.0739 -0.0902  0.2315
12310W        W28119  15.455  16.610  12.898 -0.1482  0.2077 -0.0134
12311W        W28120   8.170   0.009  10.771  0.1387 -0.0422 -0.0750
12312W        W28121   9.247   7.189   0.781  0.0437  0.0450 -0.2574
12313W        W28122   8.935  13.064  14.461 -0.0373 -0.1684  0.3448
12314W        W28123   7.008   1.072   2.792  0.1229 -0.1400 -0.1489
12315W        W28124  15.628   4.901  12.248 -0.2395 -0.0707  0.1297
12316W        W28125   2.449  11.096   4.394  0.1410  0.4794 -0.0569
12317W        W28126   3.938  13.696   0.644 -0.0000  0.0324 -0.1160
12318W        W28127   1.211   3.981   4.093 -0.1722 -0.2516  0.0837
12319W        W28128  12.945  15.450  15.745  0.1936  0.2097  0.1312
12320W        W28129  13.821   2.819  12.113 -0.2050 -0.0975  0.1550
12321W        W28130   8.294  11.691  15.787  0.4579 -0.0864  0.3175
12322W        W28131   7.046   9.392   0.090 -0.0774 -0.1044  0.2107
12323W        W28132  10.830  15.724  10.450 -0.2483 -0.2311  0.0209
12324W        W28133  11.068   4.989   5.052 -0.1070 -0.1259  0.2713
12325W        W28134  15.089   4.854  11.644  0.1396  0.1972 -0.0207
12326W        W28135  18.447  11.756  11.684 -0.0319 -0.2316  0.3955
12327W        W28136   5.807   9.353  12.365 -0.1763 -0.1341 -0.0019
12328W        W28137   6.239   1.270  14.455 -0.0928 -0.0594 -0.1309
12329W        W28138   6.212  10.915   4.398 -0.1143 -0.1258  0.2266
12330W        W28139  16.102   5.303   0.175  0.1633  0.1579  0.4380
12331W        W28140   6.767  13.230  13.248  0.1947  0.1190 -0.1556
12332W        W28141  17.731   6.898  15.208  0.0935 -0.0874  0.0008
12333W        W28142   1.490  13.081  11.918 -0.0678  0.1376 -0.1926
12334W        W28143   1.602   4.095  11.554  0.1178  0.0273 -0.1868
12335W        W28144   9.740   3.837   9.991  0.1384  0.1439 -0.0239
12336W        W28145  12.468  15.930  12.392 -0.0791 -0.0159 -0.1745
12337W        W28146   7.691   2.467   1.866  0.1661  0.0295  0.0763
12338W        W28147   3.612   3.565  13.314  0.0589  0.2851 -0.0233
12339W        W28148  13.552  14.269  13.456  0.1046 -0.0232 -0.3260
12340W        W28149   7.033  13.309  14.942  0.1111  0.3887  0.0101
12341W        W28150   0.909   7.344   0.146 -0.0134  0.3396 -0.0136
12342W        W28151  14.236  17.014   3.897  0.0054 -0.2194  0.1561
12343W        W28152   5.813  10.264   5.184 -0.1106 -0.2620 -0.3790
12344W        W28153   6.258  15.904   4.760  0.2009  0.2902 -0.0800
12345W        W28154  14.424   2.021  13.611  0.0464  0.0342 -0.0761
12346W        W28155  11.729   2.024   3.015  0.2132 -0.2364  0.0279
12347W        W28156  16.225  17.678   2.245  0.2061  0.1888  0.1016
12348W        W28157   0.084   2.774   0.809 -0.1749  0.2670 -0.0465
12349W        W28158   2.677   7.723   3.340 -0.0654  0.1980 -0.0222
12350W        W28159   8.559   7.518   3.841  0.2674  0.2187  0.0526
12351W        W28160  15.818   9.676  14.153  0.1237 -0.1828 -0.3548
12352W        W28161   8.308  14.782  15.609  0.1234 -0.0441 -0.0920
12353W        W28162   2.979  10.873   1.403 -0.0094 -0.2053 -0.2757
12354W        W28163   1.333  13.850   5.762 -0.1467  0.3144 -0.0697
12355W        W28164  10.594   7.765   0.582  0.4401  0.0246  0.0829
12356W        W28165   2.308  12.996   0.412 -0.1023 -0.0748 -0.0416
12357W        W28166   1.814   5.066   1.535 -0.1472 -0.0988 -0.0089
12358W        W28167   0.481   0.598   2.108 -0.0159  0.0028  0.0520
12359W        W28168  18.410  11.919   1.061 -0.1863  0.2283 -0.2619
12360W        W28169   8.643  13.279   3.032 -0.1882 -0.1219 -0.6089
12361W        W28170   4.467  13.171  15.183 -0.1062  0.0972  0.0526
12362W        W28171  10.508  17.472  15.409  0.0325  0.1067  0.0034
12363W        W28172  16.757   4.936  12.165  0.2184 -0.1333  0.0811
12364W        W28173  16.382  16.855   3.863  0.1114  0.1085 -0.0087
12365W        W28174   2.318   8.735   3.979 -0.1768  0.2190  0.0287
12366W        W28175   9.270   0.315   3.130  0.4157 -0.1526  0.1743
12367W        W28176   3.957   0.904   1.847 -0.3530  0.0041 -0.1101
12368W        W28177   4.134   8.634  15.585 -0.0666  0.0350 -0.2489
12369W        W28178   2.812  13.103   3.529 -0.0033  0.2266  0.0832
12370W        W28179   5.442  18.002  11.441  0.2494 -0.3688  0.2006
12371W        W28180   4.701   6.313   0.260 -0.0982 -0.1131 -0.0245
12372W        W28181  11.671  13.628  14.226 -0.3322  0.1988 -0.1261
12373W        W28182   4.289  16.208  15.287  0.2259  0.0233  0.2963
12374W        W28183  15.451   6.793   3.736  0.1534 -0.0098 -0.0173
12375W        W28184   9.574  13.474   2.724 -0.0912 -0.0965 -0.0623
12376W        W28185   7.220   9.719  13.500 -0.0251  0.2482  0.1125
12377W        W28186  14.547  13.859   3.665  0.1265 -0.2412 -0.4096
12378W        W28187  17.812   4.636   1.498  0.0938 -0.1102 -0.2826
12379W        W28188   2.005   5.480  11.315  0.0748  0.2558 -0.1640
12380W        W28189  18.442   9.353   3.790 -0.4198 -0.2238 -0.0329
12381W        W28190   1.264  16.015   1.566 -0.0357  0.0282 -0.0844
12382W        W28191  13.201  10.168  11.114 -0.0544  0.4622  0.1264
12383W        W28192  14.952  18.410  13.179  0.0891 -0.3516 -0.2654
12384W        W28193  10.934   0.255  15.105 -0.0439 -0.1020  0.0328
12385W        W28194   7.210  12.548   2.902 -0.0082  0.1022 -0.0608
12386W        W28195   2.255   1.384  13.132 -0.0219  0.0196 -0.1245
12387W        W28196   9.944  15.947   5.559  0.0752 -0.3064 -0.4724
12388W        W28197  14.838  15.735   2.895 -0.0382  0.1079  0.2373
12389W        W28198   3.980  13.863   3.340 -0.0104 -0.1749  0.1344
12390W        W28199  10.619  11.398  11.739  0.2542  0.2055 -0.2320
12391W        W28200   8.410  11.056   4.168  0.1016  0.0192  0.1299
12392W        W28201  15.761  14.282   1.646  0.2072  0.3023 -0.0036
12393W        W28202   7.217   7.350  12.002 -0.0909  0.2765  0.0236
12394W        W28203   2.787   7.064   2.671  0.1887 -0.0825 -0.2255
12395W        W28204  13.414  17.622   3.833  0.3282  0.0326 -0.1789
12396W        W28205  18.101  12.585  12.113 -0.2181  0.2702 -0.2982
12397W        W28206  12.434  12.454  14.200  0.1329  0.0453 -0.0864
12398W        W28207  16.005  18.043   1.969 -0.1852  0.1379  0.1383
12399W        W28208   7.506   4.907  14.592  0.0859 -0.2063  0.0159
12400W        W28209  14.780   8.767   2.020 -0.0945  0.1318 -0.1624
12401W        W28210  10.898  11.441   1.926 -0.2655  0.0436 -0.2209
12402W        W28211   9.318   3.538  15.559 -0.3059  0.1037  0.0202
12403W        W28212   9.634  11.497   5.422 -0.1286 -0.2175  0.0052
12404W        W28213  13.537  12.409  14.455  0.0085  0.1034  0.0235
12405W        W28214  14.621  14.406   0.612 -0.3018 -0.0105 -0.0978
12406W        W28215  17.564   0.511  13.437  0.0243 -0.3980 -0.1369
12407W        W28216  10.016   8.083   0.782 -0.4120 -0.2156  0.0842
12408W        W28217  12.352   4.716  14.263  0.0313 -0.2328 -0.1771
12409W        W28218  11.081   7.838   4.716  0.0179  0.0179 -0.1137
12410W        W28219   2.996  12.983  10.626  0.1595 -0.2340 -0.5074
12411W        W28220   3.149   6.516   3.247  0.0571  0.2704  0.0853
12412W        W28221  16.749   5.840   0.103 -0.1000 -0.2557  0.1463
12413W        W28222  13.715  12.245  12.442 -0.2737 -0.0189  0.1577
12414W        W28223  18.015  10.976   4.533  0.2996 -0.0241 -0.0776
12415W        W28224   7.427  18.027  14.429  0.3531 -0.0920 -0.1853
12416W        W28225  15.217  16.757  13.883 -0.1594  0.3214 -0.0838
12417W        W28226   5.770   1.240  14.610 -0.0282  0.0902  0.4361
12418W        W28227   2.470  14.607   4.990 -0.0669 -0.0354  0.0127
12419W        W28228   7.234   0.285   1.254  0.0813 -0.1650  0.2191
12420W        W28229  12.669  12.109  14.572  0.1151  0.0208 -0.0727
12421W        W28230   9.872   0.943  15.249 -0.1188 -0.1167 -0.0633
12422W        W28231   9.147   0.977   1.973  0.2372 -0.0542  0.0592
12423W        W28232   4.683  15.182   1.342  0.0693 -0.0937  0.1288
12424W        W28233  12.178   2.487   1.785  0.2215  0.3934  0.1271
12425W        W28234   3.744   3.531  12.040  0.0456 -0.1948  0.0286
12426W        W28235  15.544   7.303  14.086  0.0443  0.1772 -0.4268
12427W        W28236  16.945  13.348   2.530 -0.1531 -0.0043  0.2030
12428W        W28237   9.391   3.595  12.759 -0.0072 -0.2036 -0.0559
12429W        W28238   4.522   4.355   4.612  0.0696 -0.0545 -0.5077
12430W        W28239  10.280   9.336   3.413 -0.0693 -0.0193  0.1431
12431W        W28240   6.784  14.001   1.629 -0.0769 -0.3041  0.1839
12432W        W28241  10.920  13.183   1.540  0.1731  0.3502 -0.0799
12433W        W28242  16.066   0.952  14.452 -0.2649  0.0205  0.0854
12434W        W28243  13.162  12.894  12.900  0.0428 -0.2061 -0.4018
12435W        W28244  13.227  13.444  11.509 -0.0247  0.0622  0.2573
12436W        W28245   9.082   5.374   4.166  0.2057 -0.1269 -0.0543
12437W        W28246   0.561   4.182  14.239  0.0633 -0.3527 -0.1686
12438W        W28247   6.982   4.384  14.167  0.0290  0.3463 -0.1130
12439W        W28248  13.433   4.387   0.553  0.1473  0.0874  0.1748
12440W        W28249   9.601   1.744  14.484  0.2541  0.1908  0.0784
12441W        W28250  13.528  12.778  12.541  0.1370 -0.2014  0.1352
12442W        W28251   3.300   1.631   0.823 -0.0944 -0.0628 -0.0527
12443W        W28252   0.345   0.703  14.283 -0.1842  0.0402 -0.1827
12444W        W28253  15.461   1.005   4.289  0.0856  0.1902  0.1663
12445W        W28254   5.263  10.621  14.396  0.2360  0.1142  0.0217
12446W        W28255   0.655  14.498  15.586 -0.0504 -0.0902 -0.0656
12447W        W28256   5.002  17.479  12.875  0.4388  0.1659  0.5601
12448W        W28257  18.203  14.819  12.206 -0.1427  0.0554 -0.3322
12449W        W28258   5.733  12.115  13.773  0.0372  0.0243 -0.0266
12450W        W28259   6.209   0.090   0.731 -0.0833 -0.1138 -0.0037
12451W        W28260   8.835  12.873  15.311 -0.0346  0.2248 -0.1216
12452W        W28261   4.410  10.455   5.676 -0.0900  0.2299  0.3250
12453W        W28262   6.695  11.591   1.594 -0.0116  0.0905  0.0618
12454W        W28263   0.040  13.522   0.693  0.1507 -0.0794 -0.1003
12455W        W28264  10.507   0.528   2.805 -0.0858 -0.0381 -0.0779
12456W        W28265   5.431   7.374   1.405  0.2348 -0.0329 -0.2194
12457W        W28266  10.046   4.290   1.095 -0.1201 -0.1707  0.3504
12458W        W28267  14.397  16.050   2.218 -0.0191 -0.0539  0.0151
12459W        W28268   8.505   8.076  12.740  0.1278 -0.1550 -0.1806
12460W        W28269   4.928   5.955   2.745  0.1920 -0.0582  0.0495
12461W        W28270  17.214   3.385  10.049 -0.0821  0.0792  0.1657
12462W        W28271   8.916  16.757   2.769 -0.1406  0.3422 -0.2412
12463W        W28272   1.950   1.832   2.609  0.2154 -0.1431  0.0744
12464W        W28273  10.848  12.203   2.186 -0.2839 -0.0251 -0.0359
12465W        W28274   0.100   8.305   0.511 -0.0950  0.0148  0.0576
12466W        W28275  18.178  13.217  11.226  0.1145 -0.1341 -0.0816
12467W        W28276   6.230   8.781   5.773  0.0378  0.1414  0.0099
12468W        W28277  11.371   2.374  15.732  0.0497  0.0366  0.1653
12469W        W28278   9.580   4.132   1.097  0.0009  0.0963  0.0487
12470W        W28279   3.682   3.915   0.758 -0.0920 -0.1390 -0.0611
12471W        W28280   9.354  15.222  13.006  0.3675 -0.1357  0.3583
12472W        W28281  14.723   8.475  14.609 -0.0098  0.0561  0.2949
12473W        W28282   7.084   4.403  11.798 -0.0252 -0.1053 -0.4010
12474W        W28283  14.186  10.007   3.224 -0.1000 -0.0999  0.3914
12475W        W28284  17.514   8.028  14.623  0.2245 -0.0380  0.0214
12476W        W28285  14.364  11.363  10.068 -0.0570  0.0462 -0.0842
12477W        W28286   2.396   4.276   2.486  0.0369 -0.0509  0.0016
12478W        W28287   2.732   3.543  13.738  0.0629 -0.0256  0.2405
12479W        W28288   4.867   7.363  12.792 -0.4484 -0.0444 -0.0445
12480W        W28289   3.115   5.397   2.375  0.0915 -0.2716  0.1416
12481W        W28290   1.383  13.785  14.518  0.2618 -0.0050  0.0714
12482W        W28291   0.378  12.208   1.769  0.2877 -0.2454 -0.2031
12483W        W28292   0.242  11.707   0.548  0.1582 -0.0246 -0.0142
12484W        W28293  13.652  16.529   3.611  0.0415  0.0335 -0.0577
12485W        W28294  14.134   2.185   1.848 -0.2006  0.0928 -0.4525
12486W        W28295  15.790  13.066  13.967  0.0188 -0.0388 -0.2645
12487W        W28296  13.524   1.747  15.049  0.0907 -0.0646 -0.5272
12488W        W28297   0.483  16.569   9.758 -0.0836 -0.0995  0.0537
12489W        W28298   3.461   1.370  14.061 -0.1060  0.1093 -0.1194
12490W        W28299   9.823   1.720   4.629  0.1855 -0.1199  0.2522
12491W        W28300   1.642  18.208  11.857  0.1347 -0.0112  0.1248
12492W        W28301   2.030   6.021   4.639 -0.0462  0.0672 -0.2019
12493W        W28302   9.064  14.106   5.579 -0.2248 -0.1012 -0.3647
12494W        W28303   6.102  15.241  13.233  0.1205 -0.0910 -0.2202
12495W        W28304  12.650   5.940   4.069 -0.0905  0.3582  0.0947
12496W        W28305  14.339  16.843  11.265  0.1303 -0.2407 -0.1693
12497W        W28306   3.097   8.357   5.069 -0.2024 -0.1730  0.1534
12498W        W28307  11.080   6.721  14.247 -0.0231 -0.0172  0.0711
12499W        W28308   7.551   2.094   1.179 -0.4145 -0.1354  0.1509
12500W        W28309  14.946  17.719   0.526  0.1190  0.1062  0.0379
12501W        W28310   0.994  11.730   5.870 -0.2594 -0.0959 -0.1789
12502W        W28311   0.286   6.080  13.316  0.0682  0.0604  0.0883
12503W        W28312   2.523  11.558   4.331  0.0248 -0.1006  0.2314
12504W        W28313   6.310  16.238  10.975  0.0736  0.1404  0.2081
12505W        W28314   0.982  12.441   5.788  0.1540  0.2231 -0.1987
12506W        W28315  14.283   9.271  14.260 -0.5019 -0.0066 -0.1372
12507W        W28316  15.321   1.592  14.437  0.1107 -0.3570  0.0925
12508W        W28317   2.105  17.457  11.870  0.0521  0.1315 -0.1189
12509W        W28318  17.827   5.571   2.433  0.1990  0.1624  0.0402
12510W        W28319  15.569  12.398   2.874  0.0784 -0.1375 -0.1886
12511W        W28320   3.611  13.008  13.933  0.0629  0.1420  0.1329
12512W        W28321  17.827   5.075   2.796 -0.0179 -0.0323  0.0142
12513W        W28322   2.855  17.514   3.861  0.1095 -0.4430 -0.0577
12514W        W28323   6.717   5.482   3.231  0.1918  0.2901  0.0669
12515W        W28324   4.593  12.755   5.460 -0.2505 -0.0754  0.0647
12516W        W28325   6.431   2.009   4.525  0.0581  0.0392 -0.1506
12517W        W28326   9.222  10.299  11.964  0.0015  0.1911 -0.0478
12518W        W28327  13.916   3.790  13.363  0.1048 -0.2015 -0.4510
12519W        W28328  16.065   7.686   5.281  0.1249 -0.3086 -0.0428
12520W        W28329  16.694   3.254   0.488 -0.0907 -0.0885 -0.0570
12521W        W28330   6.497   5.578  14.905 -0.2708  0.3441  0.0639
12522W        W28331   1.217   5.526   3.596  0.0921  0.0347  0.1663
12523W        W28332   5.411  11.452   5.967  0.0079  0.0180 -0.0247
12524W        W28333   5.747  17.364   0.772  0.2657  0.0758 -0.0854
12525W        W28334  16.314  11.221   2.963  0.0221 -0.1009 -0.2086
12526W        W28335  10.233  11.123   4.556  0.0747 -0.2644  0.2485
12527W        W28336  16.036   2.686   1.620  0.0075  0.0355  0.1222
12528W        W28337   9.039   5.733   2.626 -0.1726  0.1089  0.0259
12529W        W28338  14.260   0.496  12.189  0.0968 -0.1008  0.1345
12530W        W28339   6.166   3.039  11.508 -0.2212  0.1571 -0.0567
12531W        W28340   7.557   1.986  15.467  0.1405 -0.2284  0.2255
12532W        W28341  16.990   0.768   5.119 -0.1083  0.1545  0.0421
12533W        W28342  14.868  10.607   4.483  0.1706 -0.1109  0.1280
12534W        W28343  17.982   3.689  13.945  0.1007  0.1607 -0.0180
12535W        W28344  18.186  10.866  11.025  0.2401 -0.2592 -0.1228
12536W        W28345  18.231  14.969  13.506 -0.1129  0.2592  0.0397
12537W        W28346  13.488   2.138  13.224 -0.1867  0.2559 -0.4706
12538W        W28347   5.141  13.642   5.279  0.0733 -0.1839  0.1313
12539W        W28348   4.527  15.640  13.738  0.0514 -0.0228 -0.2120
12540W        W28349   0.786   9.287   1.817 -0.1206 -0.2443 -0.2355
12541W        W28350  14.117   0.737  11.784  0.0566  0.0323  0.0142
12542W        W28351   8.433   3.530  10.784  0.1212 -0.0646  0.0732
12543W        W28352  14.352  18.281  13.240  0.0868 -0.1347 -0.1338
12544W        W28353   8.558   0.946   4.430 -0.1953  0.2566  0.0635
12545W        W28354   0.076   8.135   3.223  0.1226 -0.0674  0.2756
12546W        W28355   3.448   5.520  14.361 -0.0307 -0.0123 -0.0980
12547W        W28356  15.109  16.431   0.289 -0.2470 -0.2631 -0.0945
12548W        W28357   3.603   0.474   0.436 -0.4006  0.2377 -0.0806
12549W        W28358  18.197  13.786  14.402 -0.1224  0.0223 -0.1215
12550W        W28359   4.648   6.500   0.722  0.2297 -0.3207 -0.0310
12551W        W28360   8.588  18.298  12.083  0.1764 -0.0698  0.1819
12552W        W28361   1.975  16.252   3.253  0.0576  0.1192 -0.3850
12553W        W28362  10.806   3.034  10.299 -0.1199  0.1550  0.2177
12554W        W28363  10.575  13.840  15.133  0.0536 -0.3743 -0.1337
12555W        W28364  12.239  12.054  13.212 -0.0906  0.1710 -0.0263
12556W        W28365  13.608   3.729  10.921  0.0136 -0.4041 -0.0039
12557W        W28366   4.669   6.791   1.134  0.3955  0.0526  0.0699
12558W        W28367  12.465  14.686   2.992  0.0155 -0.2177  0.0814
12559W        W28368   2.684   7.988   5.253 -0.0316  0.0595  0.0187
12560W        W28369   9.615  12.292  14.702 -0.2192  0.1719  0.0788
12561W        W28370   8.020   9.973   3.802  0.2150  0.0600  0.2414
12562W        W28371   7.072   2.761  14.430 -0.1713  0.1434 -0.3201
12563W        W28372  11.526  12.654  15.158  0.0317  0.2531  0.0281
12564W        W28373   6.436   1.803  13.007 -0.0734  0.2665 -0.2042
12565W        W28374  11.375   5.231  14.207 -0.1156  0.0504  0.1104
12566W        W28375   5.996   6.972   2.099  0.2643  0.3006  0.0332
12567W        W28376  16.808  15.857   2.478  0.0909 -0.0458  0.0902
12568W        W28377  17.205  16.621   0.865 -0.0068  0.0993  0.1877
12569W        W28378   8.282   1.614   0.094  0.1925 -0.1471 -0.1277
12570W        W28379   7.861  12.828  15.670 -0.0193  0.0168 -0.3797
12571W        W28380   7.413  17.063   2.638  0.0690  0.1567  0.0078
12572W        W28381   0.184   0.445   4.262  0.2306  0.0413 -0.1506
12573W        W28382  15.301   7.966  12.811  0.0641  0.0769  0.0149
12574W        W28383   6.771  12.634   3.215  0.3372 -0.1166 -0.0805
12575W        W28384   1.561  11.202   2.106  0.0531 -0.0901  0.1846
12576W        W28385   8.008   2.802  12.246  0.0035  0.4534 -0.1174
12577W        W28386  10.537   2.254   1.291 -0.2450 -0.0028 -0.4179
12578W        W28387  11.219   3.357  11.218  0.3063  0.0121 -0.4133
12579W        W28388  10.427  15.935   1.518 -0.0244 -0.0602 -0.1571
12580W        W28389  11.584  12.407   4.337 -0.2096  0.3459  0.0103
12581W        W28390  14.293  17.375  13.812  0.0169 -0.2706 -0.0273
12582W        W28391  11.060  16.244  11.353 -0.2972 -0.0369 -0.3781
12583W        W28392  13.537  15.670  11.025  0.1422 -0.0505 -0.0229
12584W        W28393  15.480   1.341   1.042 -0.0325  0.3521  0.1088
12585W        W28394   9.985   2.783   1.781 -0.0041  0.3993 -0.1143
12586W        W28395   5.135   0.700   1.683  0.1340  0.0015 -0.0909
12587W        W28396  15.667  13.845  13.514  0.0905  0.1673  0.0854
12588W        W28397   4.796  18.302   1.262 -0.3523 -0.1732 -0.3013
12589W        W28398  16.093  12.277  10.468  0.0023  0.1033 -0.0591
12590W        W28399  16.716  11.956  14.345 -0.0764  0.0760  0.0569
12591W        W28400   1.854   0.252   4.015  0.1955  0.0825  0.2394
12592W        W28401   5.636  12.978   2.082 -0.2836 -0.0278 -0.1262
12593W        W28402  15.584  13.949  12.977  0.0102 -0.1601  0.1226
12594W        W28403  16.446   0.960  15.568 -0.1465 -0.4377 -0.4294
12595W        W28404   0.093  16.415   4.084  0.2197 -0.1896  0.4027
12596W        W28405   6.383  16.282   0.289 -0.2768  0.0693  0.3730
12597W        W28406   3.093   2.339  10.941  0.0715  0.1905  0.1343
12598W        W28407   4.021   5.510   0.383 -0.3296  0.0752  0.1402
12599W        W28408   4.343  16.404  13.092  0.1386 -0.0303 -0.0241
12600W        W28409  16.068  12.620  12.191  0.0812  0.2255 -0.3041
12601W        W28410   0.361   4.762  10.982  0.2597 -0.2368 -0.0750
12602W        W28411  13.685   6.142   4.292  0.0763  0.0839  0.0128
12603W        W28412   4.752  10.378  10.482 -0.0491 -0.0095 -0.1257
12604W        W28413  16.731   5.327   0.986 -0.0360  0.1334  0.3837
12605W        W28414   1.105   7.972  14.244 -0.1390  0.3012 -0.1044
12606W        W28415   7.942  12.497   5.429 -0.0801  0.3426  0.3499
12607W        W28416   1.803   7.648   0.448  0.2527 -0.0346 -0.1296
12608W        W28417  12.696   7.177  13.674  0.1262  0.1250  0.0352
12609W        W28418  16.364  14.347   9.602  0.4435 -0.1380 -0.0809
12610W        W28419   5.297  15.820  12.039  0.1636 -0.3311 -0.1435
12611W        W28420   8.138   1.234  11.135  0.3260  0.0225 -0.1597
12612W        W28421  10.970  15.694  13.071  0.0015  0.1496  0.3774
12613W        W28422  11.292  15.357   0.282 -0.0774  0.2262  0.0018
12614W        W28423   7.958   4.391   0.635 -0.0080  0.3157 -0.0979
12615W        W28424  13.707  16.185  12.235 -0.1061  0.1400 -0.0608
12616W        W28425  12.954  14.101  13.683  0.1746 -0.4571 -0.0533
12617W        W28426   1.155   7.034   5.342 -0.1283  0.1605  0.0929
12618W        W28427  12.498  16.019  10.592 -0.1574  0.0313 -0.0872
12619W        W28428  15.572   3.292   3.789 -0.1018 -0.2272  0.1927
12620W        W28429  12.269   0.637  12.481  0.1644 -0.0160 -0.2890
12621W        W28430   6.231   8.152   5.090  0.2660  0.0174 -0.1395
12622W        W28431   6.690   7.436   4.766  0.0961  0.1081 -0.0828
12623W        W28432   2.547  17.682  11.975 -0.1861  0.2641 -0.0243
12624W        W28433  17.973   3.615   0.809 -0.0261  0.2361  0.2840
12625W        W28434  17.556  13.540   2.850  0.1886  0.4054 -0.2474
12626W        W28435  12.664   9.597   2.117 -0.1536 -0.2580  0.1147
12627W        W28436  11.085  14.728   4.852 -0.1310  0.1292  0.0633
12628W        W28437  10.013   8.344   0.257 -0.2412 -0.3118 -0.2877
12629W        W28438  14.113   5.053   2.154 -0.0139 -0.1395 -0.2307
12630W        W28439  17.082  10.756  13.188 -0.1039 -0.1757 -0.1392
12631W        W28440   2.496  15.085   1.533 -0.3710 -0.1836  0.0323
12632W        W28441  14.470   6.528  10.901 -0.0454 -0.0359 -0.1916
12633W        W28442   7.291   0.178  14.204  0.0513 -0.0602 -0.0043
12634W        W28443   6.490   7.021   4.493  0.3390  0.0633 -0.0338
12635W        W28444  14.344   7.843  13.357 -0.2244  0.1826 -0.1692
12636W        W28445   0.004  11.766   1.733 -0.1485 -0.0899 -0.1225
12637W        W28446  10.842  18.425   4.804  0.0450 -0.1402 -0.1978
12638W        W28447   8.315  11.343  12.896  0.1471 -0.1329  0.1552
12639W        W28448  15.054  16.030  15.713 -0.0065 -0.0319  0.0898
12640W        W28449   6.901  17.060  15.190  0.1684 -0.1130  0.0022
12641W        W28450   7.313   3.891  11.077 -0.2588 -0.0078 -0.2028
12642W        W28451  17.410  14.023  15.709 -0.2756  0.0774  0.1517
12643W        W28452   2.877  11.427   2.169  0.0436 -0.0137 -0.0811
12644W        W28453  14.302   6.997  14.906  0.0273  0.1953 -0.1456
12645W        W28454  11.450   7.125   4.504  0.2787 -0.2513  0.0803
12646W        W28455  10.274   3.978   1.409  0.1284  0.2423  0.0589
12647W        W28456  14.338   4.286   3.960 -0.0061 -0.2311 -0.1354
12648W        W28457   8.544   0.081   3.433  0.2032 -0.0681  0.0552
12649W        W28458   3.566  13.702  12.210  0.0830 -0.0420 -0.1056
12650W        W28459   4.510  17.563   0.291  0.1232  0.1181  0.0922
12651W        W28460   6.969   9.571  12.006  0.2187  0.1945  0.2443
12652W        W28461   7.313  15.190   3.604  0.0590  0.2164 -0.0556
12653W        W28462   1.972   7.145   0.443  0.0810  0.0037  0.0791
12654W        W28463   7.277   9.712   3.890 -0.1197  0.1874 -0.1275
12655W        W28464  16.187  10.262  15.674  0.2481  0.4106  0.1527
12656W        W28465   9.985  12.513   3.746 -0.0896  0.1449 -0.1012
12657W        W28466   8.488  16.781  13.554  0.2322 -0.1603 -0.0095
12658W        W28467   6.678   3.041   3.916 -0.1130  0.0436 -0.0199
12659W        W28468  17.620  10.255   3.901 -0.3148  0.0878  0.0027
12660W        W28469   3.473   0.967  12.568  0.1432  0.0255  0.0970
12661W        W28470   7.363   0.667  15.073 -0.0836  0.1198  0.1160
12662W        W28471  11.827   5.821  11.450  0.0743  0.0622  0.0919
12663W        W28472  15.295  15.970   2.669 -0.1151  0.0130  0.1801
12664W        W28473  10.321  10.186   4.613 -0.1741  0.0328  0.1708
12665W        W28474   5.946   7.199   4.564  0.1333 -0.0084  0.2327
12666W        W28475  13.639  15.518  14.045  0.3942 -0.0630 -0.3660
12667W        W28476  10.807  15.327   4.128 -0.0127  0.1516  0.1226
12668W        W28477   1.325  12.047   1.318  0.1519  0.0524 -0.0974
12669W        W28478  11.083  12.727   1.391  0.0133 -0.3531  0.2743
12670W        W28479   1.824   3.013  15.389  0.3467 -0.0479  0.1974
12671W        W28480  11.961   0.289  12.061 -0.3082  0.0139  0.0363
12672W        W28481   6.695   6.726  14.809  0.0322 -0.0144  0.0556
12673W        W28482   8.109  12.235   0.000  0.2035  0.0730  0.2008
12674W        W28483   8.841  18.118   3.654  0.0181 -0.2557 -0.1698
12675W        W28484   4.163   0.824   3.919  0.1162  0.2706  0.0388
12676W        W28485   1.018  17.158  11.337  0.1084  0.2093  0.0665
12677W        W28486   0.984  10.577  15.095 -0.1631  0.0885  0.1825
12678W        W28487   0.254  11.267  11.481 -0.0724  0.0547  0.1203
12679W        W28488   9.387  11.612  12.113 -0.1557 -0.0185  0.0743
12680W        W28489  16.055   1.457  15.112  0.3388  0.0046 -0.0597
12681W        W28490   3.013   9.185   3.583  0.0124 -0.1591 -0.0855
12682W        W28491   3.416  17.854   2.009 -0.1662 -0.3259 -0.2611
12683W        W28492  11.858   2.468   4.816 -0.2763 -0.0094  0.0622
12684W        W28493  12.985   8.343   5.370  0.0135  0.0187 -0.1163
12685W        W28494   7.896   1.390   5.184  0.1573  0.1452 -0.1188
12686W        W28495  12.005   5.420  14.844  0.0975 -0.2986 -0.3854
12687W        W28496  12.344   2.826   3.183  0.1240  0.3664 -0.1123
12688W        W28497   6.052   4.334   0.368 -0.2415 -0.0418  0.0046
12689W        W28498  18.200   8.061   0.020 -0.1017  0.0984 -0.2870
12690W        W28499   4.136   9.357   1.155  0.0198 -0.1563 -0.1788
12691W        W28500   9.549   3.074  15.725 -0.2144 -0.3818 -0.0212
12692W        W28501  18.393  15.574  13.678  0.3827  0.0122 -0.1265
12693W        W28502  15.640   7.615  13.136  0.0780 -0.2636 -0.0962
12694W        W28503  16.910  11.667   3.134 -0.0836  0.0340  0.3011
12695W        W28504   4.975  10.941  14.671  0.1103 -0.1016  0.1199
12696W        W28505   7.631  12.127   3.760  0.1043 -0.0363  0.1058
12697W        W28506   3.603   4.798  13.763  0.0731  0.0155  0.1358
12698W        W28507  17.270  17.324  15.510  0.0452 -0.0745 -0.2046
12699W        W28508  13.511  17.109  15.387  0.0384 -0.1232  0.1353
12700W        W28509   5.666  13.258   3.980  0.2292 -0.1106 -0.3038
12701W        W28510   6.216   2.805   5.544  0.4042  0.1477  0.2986
12702W        W28511  17.648   9.246  15.461 -0.0654 -0.0585 -0.0550
12703W        W28512   4.712   1.412   3.283  0.4186  0.2318 -0.0224
12704W        W28513   6.747  14.749   2.903  0.1429  0.1343 -0.2897
12705W        W28514  17.253   8.247  15.435 -0.0415 -0.3199 -0.0690
12706W        W28515  17.274  14.430   2.712 -0.1209 -0.0411  0.0751
12707W        W28516  18.041  18.221   5.016 -0.0875 -0.1686  0.0233
12708W        W28517  14.645  17.706  13.141 -0.2190 -0.1711  0.0481
12709W        W28518   9.869   9.747  14.546  0.0344  0.2192 -0.1116
12710W        W28519   5.623  11.398  12.834 -0.1338  0.1406  0.0272
12711W        W28520   4.477   1.650   2.390  0.1063  0.1913  0.0942
12712W        W28521   9.009   3.598   4.357  0.0350 -0.3095 -0.2437
12713W        W28522   6.991   8.990  11.486  0.0744 -0.0798 -0.5125
12714W        W28523   3.976   5.029  11.088 -0.1775  0.0463 -0.1425
12715W        W28524  12.638  11.213  11.565  0.0781  0.0077  0.0159
12716W        W28525   2.763   5.743  14.980  0.0748  0.0846  0.0018
12717W        W28526   9.533  17.002   0.795  0.1181 -0.0411 -0.0177
12718W        W28527  17.495   7.323   2.107 -0.1521  0.2737 -0.0829
12719W        W28528  12.088  13.571  11.286  0.0783 -0.1804 -0.0290
12720W        W28529  10.890  14.725  12.746  0.2030 -0.1096 -0.1426
12721W        W28530   8.697  17.614   9.999 -0.2380 -0.1723 -0.0572
12722W        W28531  10.072   7.558   4.013  0.0099  0.0400 -0.1268
12723W        W28532   3.738  17.895  10.725 -0.1874  0.2322 -0.3959
12724W        W28533  18.114   6.420   2.413 -0.1453  0.0556 -0.2130
12725W        W28534   0.482   9.199  15.461 -0.0615  0.2737  0.1705
12726W        W28535   6.431  14.934   1.264  0.1995  0.0689 -0.0222
12727W        W28536  16.213   7.920   2.736  0.1566 -0.0999 -0.0723
12728W        W28537  13.503   7.698   5.048  0.3133  0.1782  0.2327
12729W        W28538  13.922   7.398  14.091  0.1316  0.0256 -0.0182
12730W        W28539   1.497  13.737  11.046 -0.1050  0.2173  0.1464
12731W        W28540   0.976  13.628   2.669 -0.3662  0.2688 -0.4081
12732W        W28541   5.569   8.123  13.897  0.3856  0.1366 -0.1876
12733W        W28542   9.322  18.046   5.415 -0.3961  0.0990 -0.0050
12734W        W28543  12.443  18.225  14.263  0.0303  0.1828  0.2534
12735W        W28544  10.262   2.733   2.231 -0.0479  0.2281  0.0543
12736W        W28545   5.411   4.558  10.419 -0.1112 -0.2882 -0.0565
12737W        W28546   0.930  16.005  12.349 -0.0953 -0.2257  0.2196
12738W        W28547   8.303   6.511  15.807 -0.1810 -0.1476  0.0048
12739W        W28548  15.153  18.314  11.478 -0.0407  0.1526 -0.1978
12740W        W28549   8.068  10.119  12.166  0.2335 -0.0222 -0.0399
12741W        W28550  16.417  15.847   0.427 -0.0892  0.1722 -0.3096
12742W        W28551  12.013  16.518  12.848  0.1660  0.0697 -0.0992
12743W        W28552   8.734   9.523  14.629 -0.3027  0.2014 -0.0429
12744W        W28553  15.691   3.431   4.531  0.2082 -0.0117 -0.3773
12745W        W28554  16.510  10.450  13.336  0.1336 -0.0091 -0.0144
12746W        W28555  14.502   7.497  14.956 -0.1593  0.0371  0.0664
12747W        W28556  11.501  15.845  14.374 -0.2002  0.1685 -0.3558
12748W        W28557  10.475   9.140   0.165  0.0371 -0.0605 -0.1378
12749W        W28558  11.498  11.379   2.534 -0.0801 -0.2466 -0.2277
12750W        W28559  13.799  13.315  12.370  0.2687 -0.2027  0.1342
12751W        W28560   0.721   0.697  10.912  0.2787 -0.0230 -0.1622
12752W        W28561   8.169  18.075  12.678  0.1266  0.1063  0.1354
12753W        W28562   8.615  10.531   4.172  0.3438 -0.1086 -0.3002
12754W        W28563   2.126  17.051  14.668 -0.1445 -0.0147 -0.0060
12755W        W28564   1.545  14.754   3.429  0.3017 -0.5584  0.0616
12756W        W28565   2.703  11.341   0.696 -0.2510 -0.1356 -0.2040
12757W        W28566   6.419  11.283   3.137 -0.1627 -0.1361  0.2871
12758W        W28567   4.349  16.978   9.890  0.0168 -0.4391  0.3512
12759W        W28568  12.117  15.081  14.175  0.0227  0.1146 -0.1346
12760W        W28569  14.558   9.368  12.531  0.1266  0.0773  0.0340
12761W        W28570  13.462   4.079  12.436  0.1130 -0.3234 -0.4052
12762W        W28571  15.184   8.110  15.533 -0.0272  0.0535 -0.1136
12763W        W28572   4.348   4.045   5.587  0.1880  0.0519 -0.2167
12764W        W28573  12.779  16.650   2.827  0.3453  0.1407  0.0722
12765W        W28574  10.870   5.412   1.557 -0.0467  0.0034  0.3288
12766W        W28575  10.067  16.826   5.216 -0.0254 -0.1797 -0.2684
12767W        W28576  12.900  10.322   5.295  0.0787 -0.0485  0.0764
12768W        W28577  13.763   7.813   2.750  0.1275  0.0305 -0.0263
12769W        W28578   6.873  12.397  15.486  0.1089  0.0622  0.0771
12770W        W28579   2.994   9.881   0.084 -0.0171 -0.1855 -0.1395
12771W        W28580  11.126   2.689  12.432  0.0479  0.1330 -0.1885
12772W        W28581   4.875   2.254  12.179  0.3630  0.3253  0.0699
12773W        W28582  17.105   1.127  11.590 -0.3993 -0.0640 -0.1074
12774W        W28583  18.021  10.388  12.919 -0.2565 -0.2185  0.0111
12775W        W28584   5.254  18.317  12.299 -0.2371  0.1591  0.0938
12776W        W28585   4.780   2.727   0.582  0.0495  0.1183 -0.0179
12777W        W28586  17.233   2.740  11.843  0.1106 -0.1510  0.0815
12778W        W28587   9.170   7.387  10.721 -0.0261  0.2176 -0.0004
12779W        W28588  17.070   2.329   3.546 -0.0224  0.2384 -0.4006
12780W        W28589  10.811  14.800  13.706  0.2945 -0.2257 -0.3758
12781W        W28590   0.340   3.889  13.905  0.1538 -0.0846 -0.2545
12782W        W28591  13.177  10.895   0.615 -0.0747 -0.1320  0.1660
12783W        W28592  12.883   8.211   0.720  0.3268 -0.2626 -0.2545
12784W        W28593   8.770  17.999   1.831 -0.2737 -0.1151 -0.2682
12785W        W28594  17.009  16.688   0.232  0.1195 -0.2024 -0.1014
12786W        W28595  18.094   3.492   9.790  0.1215 -0.0900 -0.3704
12787W        W28596  14.370   9.763   4.252  0.1167 -0.1747 -0.1844
12788W        W28597   6.439  17.202  15.817  0.0759  0.0135  0.2524
12789W        W28598   2.852  14.252  14.504  0.2077 -0.0728 -0.1925
12790W        W28599  13.262  16.342  14.035 -0.0212  0.0816 -0.2363
12791W        W28600   9.022  13.126   5.223 -0.1788 -0.1087 -0.1163
12792W        W28601   1.963   4.937  11.702  0.3291  0.1932 -0.3010
12793W        W28602   0.025   8.730   4.989  0.1602 -0.0258 -0.1078
12794W        W28603   5.885   8.712   3.070  0.2989 -0.1391  0.0235
12795W        W28604   0.841  17.990   3.658  0.0470 -0.2162 -0.1646
12796W        W28605   8.235   9.092  11.856 -0.1055 -0.2225  0.1152
12797W        W28606   1.021   8.241   1.885 -0.0593 -0.1445 -0.1302
12798W        W28607   3.448  11.341   2.070  0.4529 -0.3182 -0.1925
12799W        W28608   1.277   4.284  11.166  0.1602  0.2052 -0.1382
12800W        W28609   4.068   2.758   2.735  0.0054  0.2179  0.0052
12801W        W28610  12.034   0.474  14.771 -0.4624  0.0156  0.1292
12802W        W28611   6.734  12.828  11.081 -0.0331  0.0027  0.0559
12803W        W28612  10.210   4.114   1.868 -0.0135  0.1712 -0.0194
12804W        W28613   2.026  11.661   5.343 -0.0440 -0.0678  0.3520
12805W        W28614  10.164  16.658  12.792  0.1073 -0.0920 -0.0495
12806W        W28615  12.504   1.917   4.167  0.0085 -0.3822 -0.0079
12807W        W28616  12.910  12.845   3.832  0.1614 -0.2100  0.1279
12808W        W28617   4.136  14.601  14.961 -0.0082 -0.1110 -0.1651
12809W        W28618  14.602   5.243  11.218  0.0672  0.0957 -0.1637
12810W        W28619   5.230  11.900  10.688 -0.0949  0.1026  0.1242
12811W        W28620  14.245   9.235   5.070 -0.2032 -0.3865 -0.3040
12812W        W28621  12.084   3.725  14.290 -0.2839 -0.0193  0.1394
12813W        W28622   1.148   5.640   2.617  0.0809  0.1395  0.1823
12814W        W28623  10.631  14.760   9.956 -0.3257 -0.0269 -0.0383
12815W        W28624  12.414   2.067   1.185 -0.0671 -0.0010 -0.4672
12816W        W28625   3.757   3.345  14.727  0.0378  0.1706 -0.0395
12817W        W28626  16.633  13.023  13.829 -0.1375  0.0374  0.1438
12818W        W28627  11.107  11.205   2.838 -0.1130 -0.1956 -0.0552
12819W        W28628   7.630   0.406   5.380 -0.1280 -0.3187 -0.4170
12820W        W28629   7.359   9.868   0.737 -0.3286  0.0290 -0.2252
12821W        W28630   4.797   6.198   1.121 -0.1148  0.2950 -0.1767
12822W        W28631   4.620  10.937   4.382  0.1988 -0.1292 -0.2622
12823W        W28632   8.904   0.390  14.139 -0.0745  0.1253 -0.1865
12824W        W28633  16.280   3.032   1.314 -0.1212 -0.2860  0.3247
12825W        W28634  15.146   4.934  12.639 -0.2551 -0.0450 -0.0289
12826W        W28635   9.290   4.548  14.880  0.3370  0.1035 -0.3330
12827W        W28636   9.061  10.250   2.527 -0.0972  0.3968 -0.1735
12828W        W28637   5.665  15.102  15.078  0.1157  0.2844 -0.0167
12829W        W28638   6.707   5.859  14.241 -0.0664  0.0154  0.1725
12830W        W28639   8.801   7.653  14.031 -0.1564 -0.0037  0.3554
12831W        W28640  18.022  12.108   1.803  0.2625 -0.1949  0.0640
12832W        W28641  14.767  13.094   3.913 -0.2648 -0.2572  0.0362
12833W        W28642  12.004  16.048  12.632 -0.0744 -0.0795 -0.0175
12834W        W28643   7.827  14.822   2.405  0.0781 -0.2884  0.1042
12835W        W28644   4.334  17.682  11.574 -0.3682  0.1997 -0.1412
12836W        W28645   1.169  11.468   2.305 -0.0514 -0.3106 -0.1547
12837W        W28646   7.740   5.936   0.613 -0.1239 -0.0278 -0.1944
12838W        W28647   0.030   4.362   5.835 -0.2606 -0.2220  0.0836
12839W        W28648   0.308  13.945  11.055  0.1782 -0.5474  0.2920
12840W        W28649   2.376  13.187   3.201  0.1762  0.1499  0.0099
12841W        W28650  12.947  10.277  15.549 -0.0168  0.0410 -0.1793
12842W        W28651  13.360  10.911   2.464  0.0110  0.0314  0.2115
12843W        W28652  11.914  12.979  15.160 -0.2925 -0.1492 -0.0048
12844W        W28653  10.014  10.960  13.962  0.3614 -0.1542  0.1609
12845W        W28654   0.625   8.023  12.770 -0.2876  0.0006  0.2019
12846W        W28655  14.025  16.079  13.585  0.1957  0.2107 -0.0824
12847W        W28656   3.216   3.876   2.763  0.0607  0.0165 -0.0238
12848W        W28657  15.595   6.223   1.929  0.2767  0.0691 -0.1806
12849W        W28658   1.069   3.457   2.136  0.1664  0.1129  0.0352
12850W        W28659   2.155   0.165   9.959  0.2971  0.0652  0.3932
12851W        W28660  12.166  10.953  11.388  0.1119  0.1016 -0.2512
12852W        W28661   4.714   6.747   4.512 -0.1763 -0.2262 -0.3241
12853W        W28662   3.207  11.336   3.550 -0.0801  0.0612 -0.4032
12854W        W28663   2.959  12.382  11.015 -0.2918  0.0809  0.3445
12855W        W28664   9.828  12.721   0.888 -0.0708  0.0863  0.0811
12856W        W28665   6.735   0.249  15.252  0.0254  0.2320 -0.3340
12857W        W28666   9.767   6.664  12.359  0.2574  0.1012 -0.0034
12858W        W28667  11.772   0.723   1.786  0.0225  0.1295  0.6527
12859W        W28668  15.978   8.958  11.666  0.1554 -0.0178  0.1269
12860W        W28669   5.392   6.440   4.926  0.1498 -0.1304  0.1896
12861W        W28670   2.794   6.772   0.892  0.0538  0.0931 -0.0945
12862W        W28671   2.389  14.069  14.755  0.0226  0.0913 -0.0542
12863W        W28672  15.189  12.405  11.226  0.1657 -0.0234 -0.0495
12864W        W28673   0.322  12.236   0.517  0.0729 -0.0374 -0.1195
12865W        W28674   4.129   7.813  11.870 -0.0180 -0.2711 -0.0101
12866W        W28675   7.404  11.949  11.197 -0.0289 -0.0190  0.3691
12867W        W28676  11.890   5.510   1.531  0.0627 -0.0312 -0.3078
12868W        W28677   0.265  11.028  13.168  0.0430  0.2941  0.0541
12869W        W28678   6.795   7.557  14.202  0.0272  0.0857  0.0064
12870W        W28679   9.935   3.863  14.460  0.1338 -0.1013 -0.2464
12871W        W28680  14.853  18.227   0.616 -0.2434 -0.0244  0.1049
12872W        W28681  13.102   5.299  14.679 -0.1772 -0.2074 -0.2055
12873W        W28682  15.137   0.707   3.973 -0.1271 -0.0839  0.0532
12874W        W28683  12.456  12.477  10.809 -0.1510  0.0242 -0.2937
12875W        W28684  15.658   2.278  10.208 -0.0918 -0.0602  0.1249
12876W        W28685   0.957  18.399  10.588  0.3026 -0.2023  0.4422
12877W        W28686  11.906  13.969   2.767  0.2795  0.0687  0.0383
12878W        W28687   8.333   9.890  13.082  0.0046 -0.1465 -0.1492
12879W        W28688  15.823   8.080  11.403  0.0519  0.0289  0.5757
12880W        W28689  13.131   7.308   5.065 -0.2517 -0.1904 -0.1455
12881W        W28690  14.543  11.667  14.864 -0.1020 -0.2395  0.1178
12882W        W28691   6.712  12.860  15.676  0.0161  0.3270 -0.1040
12883W        W28692  17.351   5.573   5.194 -0.0964 -0.4506 -0.0062
12884W        W28693   9.021   0.651   1.659 -0.1318 -0.2564  0.0149
12885W        W28694   5.856   7.708   1.458 -0.1714 -0.5182  0.1062
12886W        W28695   4.834  10.256   4.557 -0.3263 -0.1944 -0.0462
12887W        W28696   1.558  11.451   2.647  0.1421  0.1312  0.1249
12888W        W28697   0.816   1.242   1.577  0.1331 -0.1659 -0.1642
12889W        W28698   3.242  16.861   3.908  0.2722 -0.1186  0.0390
12890W        W28699  15.458  15.181  12.896  0.1538  0.0984  0.2618
12891W        W28700  11.533  12.714  11.096  0.1815 -0.2273 -0.0160
12892W        W28701   0.687   7.336   0.941 -0.0397 -0.1092 -0.1002
12893W        W28702   9.847  14.210  15.691  0.0660 -0.1928  0.0668
12894W        W28703   1.381   8.568   1.878 -0.1246  0.3929 -0.1139
12895W        W28704   5.083   0.337  12.104 -0.0752 -0.0355  0.2529
12896W        W28705   5.026   6.995  15.649  0.0947 -0.1313  0.0118
12897W        W28706   4.197   9.128  15.677  0.1934  0.0200 -0.1675
12898W        W28707   0.773   3.432  10.891 -0.0963 -0.1079  0.0999
12899W        W28708  10.768   9.126   2.209 -0.0821  0.1787  0.0568
12900W        W28709   2.213  12.541   3.928  0.1230 -0.3939  0.1245
12901W        W28710   6.566   0.223  14.781  0.2451  0.2397  0.0151
12902W        W28711   1.891   4.001  13.265  0.0327 -0.1205  0.3220
12903W        W28712  12.812   9.136   3.976  0.1505 -0.0322  0.3286
12904W        W28713  13.938  10.488  12.063  0.1684  0.1798  0.3718
12905W        W28714   5.226  17.128  14.767 -0.1204 -0.1455 -0.1680
12906W        W28715  15.464   8.453  14.814  0.0602 -0.0101 -0.3631
12907W        W28716   4.162   2.047  13.766  0.0804  0.0678 -0.0149
12908W        W28717   4.575  17.594  11.081 -0.3139 -0.4384  0.1307
12909W        W28718   4.400   8.496  15.002 -0.0506 -0.2034  0.2773
12910W        W28719  15.390   8.191   4.160  0.0696 -0.0997  0.1577
12911W        W28720   8.667   0.556   4.866  0.1488  0.4836  0.0353
12912W        W28721   4.631   8.278   4.462  0.1509 -0.2360 -0.2893
12913W        W28722  11.083  18.316   0.727 -0.0302 -0.0472 -0.2146
12914W        W28723  17.881  15.288  13.613  0.1649 -0.0228  0.0931
12915W        W28724   1.665   5.090  11.257 -0.0085 -0.0401  0.0465
12916W        W28725  17.812   7.172  14.337  0.2214  0.0439  0.1139
12917W        W28726  11.253  12.579  11.525  0.0563  0.0339  0.1964
12918W        W28727   4.688  12.581   0.882  0.2036 -0.3048  0.0492
12919W        W28728   2.408   5.972  14.532 -0.0098 -0.2142 -0.1387
12920W        W28729   5.545  12.609   5.215 -0.0550 -0.0929  0.3653
12921W        W28730   9.514  13.196   5.016  0.3014  0.0306  0.0807
12922W        W28731   5.114   8.127  11.246  0.1792 -0.4288 -0.1579
12923W        W28732   9.612   0.119  15.137 -0.1445 -0.2363  0.0832
12924W        W28733  12.256   1.855   5.279  0.1617  0.2469  0.2311
12925W        W28734  13.271  14.673   4.609 -0.0548  0.1169 -0.0883
12926W        W28735   9.556   3.538  12.035  0.1107  0.1762  0.0503
12927W        W28736   8.908   9.445   5.062  0.1907  0.0694 -0.0014
12928W        W28737  17.672  14.979   1.845 -0.3706  0.1913  0.1611
12929W        W28738   9.146   8.936   1.703  0.1264  0.1785 -0.0862
12930W        W28739  10.556   9.334  15.512 -0.1050 -0.1430  0.1161
12931W        W28740  14.332   3.578  15.544  0.0346  0.0881  0.2378
12932W        W28741   7.398  15.518  15.294  0.3934 -0.2930  0.0730
12933W        W28742   0.186  15.922   5.841 -0.0361  0.0079  0.0076
12934W        W28743  12.142   3.511   2.154 -0.1138 -0.1467  0.0185
12935W        W28744   0.349  13.648   3.322  0.0030  0.0189  0.0824
12936W        W28745  14.775  16.537  13.830 -0.3734 -0.1785  0.1404
12937W        W28746   7.885  13.837   0.289 -0.0501  0.0880  0.2155
12938W        W28747  12.366  12.263   1.910  0.1396 -0.1935  0.2130
12939W        W28748   3.427   7.922  15.528 -0.0856 -0.1997  0.1065
12940W        W28749  10.460  10.814  13.698 -0.2547  0.1085  0.1829
12941W        W28750   2.814  11.948   0.503 -0.0461 -0.1506  0.0646
12942W        W28751  11.014   4.527  14.828  0.2542 -0.1209 -0.1147
12943W        W28752   0.785   4.212   3.818 -0.2328 -0.0416 -0.2957
12944W        W28753  14.898   6.861   3.529 -0.2511  0.0139  0.0348
12945W        W28754   5.157   4.204  14.221  0.1913 -0.2154  0.1008
12946W        W28755   8.579  17.761  15.790  0.1562  0.1485 -0.1305
12947W        W28756   9.322  15.331  10.078  0.0461  0.2418  0.0756
12948W        W28757   5.398  17.043  11.037 -0.0044  0.2710  0.0430
12949W        W28758  18.236   7.407   0.634  0.4838  0.0226 -0.1036
12950W        W28759  15.816   9.622   3.328 -0.1428  0.0775  0.0240
12951W        W28760  16.378   0.681   4.177 -0.0070  0.0923 -0.0369
12952W        W28761   7.384  13.144   2.783 -0.1917  0.0530  0.3715
12953W        W28762   3.224  10.658  12.550 -0.0642 -0.2255  0.2123
12954W        W28763   7.502  13.404  14.846 -0.1864 -0.1629 -0.0442
12955W        W28764   0.230   7.504   4.530  0.2137 -0.1187  0.0439
12956W        W28765   4.781   5.543   4.038  0.0918 -0.2113  0.2263
12957W        W28766  13.851   7.244   2.179  0.0101 -0.0668  0.0647
12958W        W28767   3.256  10.049   0.603  0.1192 -0.0275 -0.3430
12959W        W28768  10.164  12.818   1.335 -0.1113  0.0656 -0.0406
12960W        W28769   4.021  14.409  11.990 -0.0651 -0.1085 -0.0083
12961W        W28770   2.369   1.195  10.859 -0.3257  0.2447  0.1394
12962W        W28771  12.715  16.224   4.707 -0.1158  0.2480  0.0343
12963W        W28772  10.247   4.153  11.070 -0.3752 -0.2020  0.0387
12964W        W28773  14.114   0.605  15.098 -0.2552  0.1337  0.1754
12965W        W28774   0.169   2.830  13.059 -0.0459  0.0455  0.0138
12966W        W28775   8.846  15.132  13.009  0.1163 -0.1537 -0.2941
12967W        W28776   8.289  13.154   0.672  0.0302 -0.2078 -0.0228
12968W        W28777  11.062  13.688  12.238  0.1597 -0.0785 -0.4434
12969W        W28778  18.432  17.503  13.622 -0.0685 -0.0090 -0.2168
12970W        W28779   6.653  12.311   2.192  0.0482  0.0623 -0.0204
12971W        W28780  11.106   0.265  13.690 -0.0565  0.1864 -0.0014
12972W        W28781   5.721   5.426  13.880  0.0305  0.1141 -0.0782
12973W        W28782  14.310  15.368  14.847 -0.0237  0.1527  0.0377
12974W        W28783  16.592   9.810   1.448  0.1562  0.3140 -0.1719
12975W        W28784   8.388  12.838  11.322  0.1385  0.2992 -0.1014
12976W        W28785  18.262   1.745  15.528  0.4737  0.2462  0.1097
12977W        W28786   8.261   9.913   1.916 -0.0294 -0.0657 -0.1645
12978W        W28787  16.339  17.875  12.183  0.0059  0.0058 -0.0115
12979W        W28788   6.358  18.130   2.531  0.0056  0.0149  0.0863
12980W        W28789   8.895   6.382  12.227  0.0470 -0.2721 -0.1802
12981W        W28790   4.721   0.479   0.507 -0.3323 -0.0841  0.2179
12982W        W28791   2.410  16.756  14.953  0.1705 -0.0164 -0.0018
12983W        W28792  10.941   1.615  14.907 -0.0624  0.1324 -0.2319
12984W        W28793  11.543   3.982  15.496  0.1730 -0.0775 -0.1770
12985W        W28794   7.777   7.709  14.336 -0.1615 -0.1801 -0.1441
12986W        W28795  17.904  15.728   0.143  0.2383  0.2302 -0.1974
12987W        W28796  11.494   8.448   1.111 -0.2006 -0.2058  0.0978
12988W        W28797  11.892   0.003  14.871 -0.2334  0.4066 -0.1750
12989W        W28798   7.509  11.720  15.130  0.1782 -0.0673  0.3403
12990W        W28799  12.066   1.901  14.785 -0.0455  0.1381 -0.3940
12991W        W28800  14.942   6.113  14.820  0.1659  0.0538 -0.0057
12992W        W28801   5.122  14.488  11.755  0.1439  0.1322 -0.0865
12993W        W28802   3.531   1.481   3.219 -0.1331  0.0304  0.0333
12994W        W28803   5.601  18.391  10.441  0.1975 -0.1493  0.1655
12995W        W28804  15.986  17.819  11.872  0.1936  0.0332 -0.0844
12996W        W28805   2.496   0.542   2.916  0.2423  0.1756  0.0810
12997W        W28806   5.985   7.774   1.970  0.2511  0.3102  0.1392
12998W        W28807   9.540   1.594   6.010  0.0962 -0.2475  0.1585
12999W        W28808   5.403  10.575   1.058 -0.3034  0.1191 -0.1885
13000W        W28809  11.410  14.586   1.333 -0.0522  0.0443 -0.0559
13001W        W28810   9.019  17.366  15.207  0.1932  0.2751  0.0143
13002W        W28811  11.822   4.501  14.487 -0.0179 -0.1615  0.1213
13003W        W28812  15.398   1.789  10.332 -0.2295 -0.0073  0.2556
13004W        W28813   7.441   3.304   2.340  0.5928 -0.2361  0.2605
13005W        W28814   9.273   3.332   1.956  0.1616 -0.1122  0.1186
13006W        W28815   2.168  12.884  14.493 -0.2092 -0.2158  0.0047
13007W        W28816  14.528   3.136   2.581 -0.0215 -0.2333  0.2277
13008W        W28817   8.515  14.605   2.458 -0.1673  0.0953  0.2984
13009W        W28818   8.633   2.587  14.929 -0.0014 -0.0737 -0.0319
13010W        W28819  10.153   9.432   3.924 -0.0083  0.0470  0.2240
13011W        W28820   6.235  16.024   3.681  0.0674 -0.0004  0.0479
13012W        W28821   0.454  11.270   2.245  0.1037  0.1400 -0.0233
13013W        W28822   3.005  15.295   2.345  0.1392  0.3354 -0.1845
13014W        W28823   5.358  11.409  15.232  0.2671  0.2245 -0.3185
13015W        W28824   6.879   4.616   0.830 -0.0549  0.2789  0.1842
13016W        W28825   9.891  18.067   4.232 -0.0503 -0.0965  0.1273
13017W        W28826   1.477   3.937  14.777 -0.2839  0.1311  0.0687
13018W        W28827   7.474   9.117  11.418  0.1133 -0.2515 -0.2297
13019W        W28828  14.789   3.664  13.773 -0.0415  0.2364  0.1601
13020W        W28829   4.866  10.308  15.077 -0.0423 -0.2477  0.0952
13021W        W28830   2.175   5.724  10.914  0.0546 -0.0336 -0.3285
13022W        W28831   7.894  16.416  11.335  0.0896  0.2337  0.0570
13023W        W28832   4.571   6.890  13.174 -0.0533  0.2054  0.0498
13024W        W28833   9.461  14.073  15.395  0.1940  0.2521  0.1426
13025W        W28834  10.372   0.266   2.346 -0.1091  0.0449  0.0289
13026W        W28835  14.901   8.250  11.612  0.0910  0.1623  0.1161
13027W        W28836   1.378  15.632   4.065 -0.1768 -0.2374 -0.0070
13028W        W28837   3.806  17.678  15.065 -0.0146 -0.0908 -0.0351
13029W        W28838   4.182   6.211   2.097 -0.0921  0.2913  0.0427
13030W        W28839   4.758   5.427  13.213 -0.2135 -0.0121 -0.0520
13031W        W28840  15.542   0.334   2.593 -0.1940  0.0229  0.2074
13032W        W28841   1.526   1.713   2.329  0.1561 -0.1774  0.0265
13033W        W28842  18.354  16.111  10.545 -0.0135 -0.2799 -0.0544
13034W        W28843   7.625   5.708   2.372  0.0585  0.1293  0.3338
13035W        W28844  17.752  13.017  11.282  0.1639  0.2556 -0.0629
13036W        W28845  15.013   4.866   0.586  0.0579 -0.0355 -0.0423
13037W        W28846   8.828   0.530  10.976 -0.0792  0.0193 -0.1224
13038W        W28847  16.325  11.660   0.482 -0.0708 -0.0186 -0.0705
13039W        W28848   9.996   2.453  13.996 -0.3180  0.0904 -0.4202
13040W        W28849  15.360  10.677   4.595 -0.1011 -0.0542  0.0128
13041W        W28850  18.018   3.199  13.807 -0.2564 -0.2341 -0.0944
13042W        W28851   1.539   9.495   5.755 -0.0851 -0.1224  0.1032
13043W        W28852  10.885  14.116   0.829  0.1192 -0.2399 -0.0733
13044W        W28853   3.339  11.101   5.792 -0.1681 -0.3269  0.1930
13045W        W28854  11.923  12.522  10.585  0.2178 -0.1123 -0.2293
13046W        W28855  12.182   4.117  12.806 -0.0823 -0.1443 -0.0584
13047W        W28856   9.862   4.604  15.169  0.1088  0.0264  0.1087
13048W        W28857  17.001   6.102   4.557  0.2309 -0.0500 -0.1801
13049W        W28858  15.866   5.504   3.464  0.0793  0.1072 -0.1399
13050W        W28859  16.961   5.082   2.482  0.1413  0.0281 -0.2371
13051W        W28860  16.242   2.958  11.709  0.1072  0.3231 -0.0694
13052W        W28861   7.320   0.515  12.214 -0.0540  0.0742  0.1802
13053W        W28862   0.500   1.266   2.991  0.0225  0.2049  0.0803
13054W        W28863   4.769   1.247   0.888 -0.0617 -0.0496 -0.0350
13055W        W28864   1.403   1.165  12.020  0.0031 -0.0946 -0.0877
13056W        W28865   9.184  18.393  14.110 -0.0227 -0.0732  0.0177
13057W        W28866  16.365  18.346  12.411  0.0507  0.0875 -0.2666
13058W        W28867   0.435   4.428   3.580  0.0592  0.0879  0.1505
13059W        W28868  12.049  17.254   5.943  0.1999  0.0226 -0.0414
13060W        W28869   6.427  12.014   2.786 -0.1522 -0.0342 -0.1480
13061W        W28870  10.083   1.713  13.419  0.4424 -0.2205  0.0391
13062W        W28871   5.375   5.668   1.321  0.1378  0.2296 -0.0439
13063W        W28872  17.292   6.710   1.761  0.3256 -0.1505 -0.1413
13064W        W28873   9.601   2.645   4.654  0.1625 -0.0870 -0.1107
13065W        W28874   3.298   2.861  10.743 -0.3506 -0.0826 -0.1213
13066W        W28875   6.355  16.913  12.382  0.0532  0.0555 -0.3585
13067W        W28876   4.307   9.897   0.481 -0.1161 -0.0089  0.3849
13068W        W28877  12.289   3.407  15.592  0.1374 -0.2331  0.0905
13069W        W28878   2.533  14.452  12.982 -0.2132 -0.0859  0.1011
13070W        W28879   6.140   6.931  13.324 -0.1095 -0.0246 -0.1543
13071W        W28880   5.821  11.832   3.881  0.2805  0.0049  0.3563
13072W        W28881  18.351   8.184  11.704 -0.4001 -0.1901 -0.0001
13073W        W28882   7.322   0.916   1.749  0.0425 -0.1959 -0.2978
13074W        W28883  17.630  17.032  13.457  0.2193 -0.2335  0.0299
13075W        W28884   9.826   4.990  13.313 -0.0223  0.1903  0.1291
13076W        W28885  10.235   1.289  15.239  0.1551  0.2494  0.0282
13077W        W28886  10.336   3.421   0.005  0.0299 -0.1939 -0.0035
13078W        W28887   8.492  12.810  12.621  0.0316 -0.1724  0.0280
13079W        W28888  13.420  14.548   2.023 -0.0709  0.0099  0.0507
13080W        W28889  16.716   3.635  11.683 -0.3690 -0.1026 -0.2327
13081W        W28890  12.337  12.067  12.705  0.2244  0.1663 -0.0446
13082W        W28891   4.513   9.089   3.249  0.0188  0.3608  0.2427
13083W        W28892  10.283   6.183   4.943 -0.2125 -0.2453 -0.1582
13084W        W28893  11.534   0.019   0.917 -0.0764  0.2505  0.0246
13085W        W28894  12.536  14.820   4.163 -0.1034  0.1248  0.1960
13086W        W28895   0.592   7.576   0.457  0.3600 -0.0470 -0.2189
13087W        W28896   2.451   2.748   0.792 -0.2771 -0.2561 -0.3605
13088W        W28897  11.107   5.961   5.086 -0.1129  0.0491  0.2094
13089W        W28898   7.361   8.924  15.275  0.1680 -0.0386  0.1677
13090W        W28899   7.293   9.750  14.601 -0.2508  0.0514  0.3001
13091W        W28900   9.710  12.789  15.828  0.0847  0.1765 -0.0518
13092W        W28901  10.433  15.076   3.301 -0.0709 -0.0214 -0.2531
13093W        W28902   8.413  15.753   3.309 -0.2738  0.4954  0.0782
13094W        W28903   2.113  14.813   0.604  0.3027  0.0458 -0.2583
13095W        W28904   7.252   8.341   3.392  0.1005 -0.0205 -0.0287
13096W        W28905  17.931   6.898  14.695 -0.2419  0.1735  0.0282
13097W        W28906  16.854   5.908   1.844  0.0793 -0.1219  0.0489
13098W        W28907   5.541  11.081  12.426 -0.2667  0.0158  0.3806
13099W        W28908  14.898   0.449   5.066 -0.1238  0.1067  0.1589
13100W        W28909  12.180  13.226  15.606 -0.3495  0.0869  0.3423
13101W        W28910  17.851  14.785  15.718  0.2628 -0.1278 -0.1298
13102W        W28911  18.359   1.634  13.468 -0.2813 -0.0364  0.1544
13103W        W28912   2.012   6.604  13.289  0.2832  0.0858 -0.2286
13104W        W28913   6.922  14.149  11.912 -0.0145  0.0589  0.0824
13105W        W28914   8.144   2.713  13.046  0.0824  0.2837 -0.1140
13106W        W28915  16.200   2.546   5.153  0.3806 -0.3623  0.0780
13107W        W28916   7.373  11.472  10.303 -0.0822  0.2208 -0.0767
13108W        W28917  15.476  16.556  14.884 -0.1143 -0.1942  0.2407
13109W        W28918   7.246  11.145  15.129  0.1251  0.0878 -0.0386
13110W        W28919  14.101   5.270  13.564  0.2895 -0.0517  0.1099
13111W        W28920   3.921  16.565   1.694  0.0826 -0.1032  0.0212
13112W        W28921   0.411  16.875  13.847  0.0737  0.1176  0.1775
13113W        W28922   3.479   5.030  11.177  0.0526  0.1446  0.1104
13114W        W28923  12.262   5.110  13.703  0.0124  0.2657 -0.0432
13115W        W28924   6.548  10.335  12.888  0.0439 -0.0680  0.2013
13116W        W28925  13.262   6.181   1.640 -0.1841 -0.0308  0.1753
13117W        W28926   5.177  16.695  13.450 -0.3495  0.0228  0.1858
13118W        W28927   8.382   2.467  12.250 -0.1723 -0.0149 -0.0560
13119W        W28928  13.983  18.230   0.318 -0.3182 -0.1765 -0.0243
13120W        W28929   8.816  14.614  11.735  0.0975  0.1400 -0.0282
13121W        W28930   5.473   0.214  13.119 -0.3081 -0.2213 -0.0884
13122W        W28931   1.460  12.281   2.773  0.1104  0.1880  0.0221
13123W        W28932  17.397  13.611  14.098 -0.0644  0.0381 -0.1509
13124W        W28933  10.515  11.055   4.100  0.3403 -0.1009  0.1122
13125W        W28934   2.213  11.760   1.845  0.1101 -0.1513 -0.0681
13126W        W28935   3.404   1.597  11.329 -0.0739 -0.0157 -0.3960
13127W        W28936   2.097  10.636  11.506  0.2624  0.0320  0.2894
13128W        W28937  17.866  14.737   5.683  0.0132 -0.1546 -0.0134
13129W        W28938   7.559   8.282   4.365 -0.1251 -0.0437 -0.1201
13130W        W28939  17.627   7.836  15.783 -0.1659  0.4006  0.1191
13131W        W28940   0.295   0.172   2.124  0.1955 -0.0064  0.1714
13132W        W28941  11.836   7.861   5.236 -0.1253 -0.1780  0.2664
13133W        W28942  11.191   1.693   4.102  0.1497 -0.0608  0.0635
13134W        W28943   7.665   7.154   2.645 -0.1662  0.1977 -0.2104
13135W        W28944   0.624   9.882   0.958 -0.1271 -0.1216  0.2146
13136W        W28945   9.908   8.521   1.651 -0.0851 -0.0055  0.1015
13137W        W28946  11.537  13.430   4.649 -0.2763 -0.1191 -0.0242
13138W        W28947  14.874  12.365  11.621  0.2300  0.3079 -0.0496
13139W        W28948   4.849  16.638  14.698  0.4730 -0.1084  0.3783
13140W        W28949   2.516  15.260   0.630  0.0646 -0.0126 -0.1695
13141W        W28950   8.596   8.652   2.240  0.2552  0.0137  0.0098
13142W        W28951  14.361   6.225   2.739  0.2408  0.3411  0.3184
13143W        W28952  11.071   9.115   5.917  0.2172 -0.2450 -0.1512
13144W        W28953  10.076  17.256  10.484  0.0182 -0.0184  0.3325
13145W        W28954  11.468   7.241   4.023  0.2044  0.0389 -0.0681
13146W        W28955   2.344  18.365   3.418 -0.1258  0.1958 -0.0675
13147W        W28956  16.394  16.251  13.854 -0.1397 -0.0903  0.2396
13148W        W28957   3.332  14.099   2.708  0.0008  0.1995 -0.0269
13149W        W28958  12.833   5.231  12.476  0.1336  0.1512 -0.0140
13150W        W28959   8.627   7.382  14.436  0.1582 -0.2550  0.3287
13151W        W28960   2.835  15.495   2.777 -0.0343  0.1645  0.1052
13152W        W28961   2.424  14.797   4.053 -0.1238  0.0345 -0.2878
13153W        W28962   7.825   8.616  12.618 -0.0323  0.1489 -0.0337
13154W        W28963  13.004   1.697  14.238 -0.0040  0.3571  0.0043
13155W        W28964   3.177  12.508  13.004 -0.1873 -0.1562  0.0520
13156W        W28965   2.008   5.747  15.762  0.0061 -0.0334  0.0705
13157W        W28966   1.616  13.464   1.146 -0.0313  0.0735 -0.0356
13158W        W28967   9.235  14.046   0.987  0.0976 -0.0746 -0.0348
13159W        W28968   2.147  13.425   0.651  0.1930 -0.0075 -0.1078
13160W        W28969   3.613  14.277   1.557  0.0405  0.0210  0.0526
13161W        W28970   8.742   5.045   1.684  0.2932 -0.1184 -0.0507
13162W        W28971  13.821  14.557   3.565  0.0805 -0.1388 -0.2746
13163W        W28972   5.634   4.937  10.251  0.0995 -0.1923 -0.0002
13164W        W28973  11.233  13.806   1.656  0.1371  0.1619 -0.1647
13165W        W28974  16.162  17.227   2.020 -0.0037  0.0784 -0.2029
13166W        W28975   6.086  11.738  15.229  0.6075  0.1666 -0.3556
13167W        W28976   6.535   9.000   3.517 -0.2027 -0.1316  0.3488
13168W        W28977   0.784  17.479   1.524 -0.1033  0.3998  0.1098
13169W        W28978  13.880  12.768  12.169  0.2082 -0.0486 -0.3772
13170W        W28979   6.916   5.970   1.097 -0.0106 -0.0790  0.0987
13171W        W28980  12.701  12.333   5.676  0.4253 -0.1253 -0.0691
13172W        W28981   3.128  14.311  14.069  0.1699 -0.0298  0.0841
13173W        W28982   7.885  14.230   4.341 -0.0920 -0.1719 -0.0975
13174W        W28983   6.821  12.924  13.731  0.0564 -0.2907 -0.1594
13175W        W28984   8.522  15.483  13.059 -0.0599  0.2061 -0.4495
13176W        W28985  13.428   0.867  13.770 -0.1016  0.4069 -0.1242
13177W        W28986  14.389  11.197   3.826  0.2034  0.0897 -0.0382
13178W        W28987  11.327  17.281   0.642  0.1033 -0.1209 -0.2370
13179W        W28988   4.697  14.729   0.098  0.1278 -0.0716  0.1926
13180W        W28989   0.872   9.031   5.475  0.1093  0.1851  0.2963
13181W        W28990   9.667  12.430   4.267 -0.0448  0.0135 -0.0334
13182W        W28991   5.467   1.148   0.311 -0.1432  0.1768 -0.1101
13183W        W28992  14.645  14.972  15.702 -0.0144  0.2544 -0.0081
13184W        W28993  15.599   5.920   3.281  0.2061 -0.2630  0.1894
13185W        W28994   5.191  13.770  13.951 -0.0022 -0.1590  0.0722
13186W        W28995  13.424   6.796   1.017  0.2676 -0.0844 -0.3280
13187W        W28996   1.653  17.315  14.718 -0.0010 -0.0036  0.2869
13188W        W28997  11.986  13.592   3.135 -0.3550  0.0046 -0.2021
13189W        W28998   4.124   0.130   4.945  0.2660 -0.0472  0.0736
13190W        W28999   2.048   8.882   3.540 -0.0756 -0.0127 -0.1014
13191W        W29000  15.057   9.010  11.987 -0.0323 -0.4196 -0.0173
13192W        W29001   5.928   2.112   4.781 -0.1147  0.1212 -0.2173
13193W        W29002   4.529  12.926  14.110 -0.1923  0.0961 -0.0853
13194W        W29003   9.942  11.449  13.922  0.2853 -0.1468 -0.2211
13195W        W29004   3.427  14.671   0.083  0.1022  0.2099  0.1744
13196W        W29005  15.189  18.054  13.908 -0.0387 -0.1945 -0.3282
13197W        W29006   4.402  11.886   5.436  0.1272 -0.0880 -0.2769
13198W        W29007   8.124   7.572   4.145  0.0517  0.2606  0.0680
13199W        W29008  16.699  15.274  10.622 -0.4038 -0.2213 -0.1509
13200W        W29009  17.470   5.341   3.796  0.1921 -0.1514 -0.3399
13201W        W29010  14.345  14.130   1.119  0.1778  0.2960 -0.1261
13202W        W29011   8.942  15.085   2.203 -0.2915  0.1101  0.0941
13203W        W29012  10.421  18.022   2.708  0.3470 -0.4191  0.1724
13204W        W29013  12.298  14.003   4.688  0.3459  0.1663 -0.3575
13205W        W29014  10.859   0.791  13.021  0.2316  0.2467 -0.1598
13206W        W29015   1.551   6.923  14.208  0.0632  0.3375 -0.1610
13207W        W29016  17.839  10.208   0.508 -0.0431  0.1508  0.1224
13208W        W29017  17.595  16.550  14.267  0.0015 -0.1116  0.1259
13209W        W29018   3.394  17.115  14.005  0.1818 -0.0722 -0.0071
13210W        W29019  17.287   7.919   0.379 -0.0334  0.0067  0.1297
13211W        W29020  16.485  12.065   2.094 -0.0849 -0.3279 -0.0020
13212W        W29021   8.184   0.117   3.929 -0.2725 -0.0890 -0.1569
13213W        W29022  17.473   2.860   5.404  0.2398 -0.2896  0.0762
13214W        W29023   6.297  16.069  12.785 -0.1535 -0.0958  0.1537
13215W        W29024  16.806  12.402   0.193 -0.0560 -0.2555  0.2395
13216W        W29025  10.073   8.982   4.356 -0.1470  0.0817 -0.2138
13217W        W29026  18.267  17.142   2.293 -0.1966  0.0636  0.0023
13218W        W29027  16.516  14.004   1.805 -0.0397  0.1201  0.2068
13219W        W29028   7.697   9.048   1.210 -0.2133  0.1570  0.1520
13220W        W29029   7.433   4.672  12.864 -0.1632  0.0719  0.0803
13221W        W29030   1.409   4.122  15.787  0.0210 -0.0846 -0.2691
13222W        W29031   6.577  16.186  14.426  0.0610  0.1017 -0.1595
13223W        W29032   5.790  11.012   0.107 -0.2037 -0.1293  0.3033
13224W        W29033   9.828   6.970   1.668 -0.2307  0.0071  0.0024
13225W        W29034   8.085  17.458   0.681  0.0503  0.0284 -0.1358
13226W        W29035   0.101   6.787   4.621 -0.0760 -0.1392  0.1322
13227W        W29036   6.470  18.454   1.178  0.2488 -0.1550 -0.1932
13228W        W29037  14.379  11.131  14.147 -0.0373 -0.0777  0.0683
13229W        W29038  10.099   3.158   1.460  0.0517 -0.0357  0.0556
13230W        W29039  15.668  15.259   5.546  0.2347  0.0546  0.0496
13231W        W29040   6.199  13.312   3.792  0.0371 -0.0890  0.0823
13232W        W29041   0.857  17.252   0.019  0.3783  0.0169  0.4000
13233W        W29042  16.303  10.194   2.929  0.0832  0.0048  0.1475
13234W        W29043  15.956   3.096   0.011 -0.0999 -0.0905 -0.4202
13235W        W29044   6.589   8.914   1.852 -0.3074  0.0542  0.1718
13236W        W29045  10.195   8.309   2.528 -0.0960 -0.3251  0.0415
13237W        W29046   4.866   6.687   2.518  0.0513  0.0158  0.0174
13238W        W29047  16.666  18.228  11.412 -0.1325 -0.1283 -0.0242
13239W        W29048   4.653  12.787   1.392  0.3213 -0.0687 -0.0392
13240W        W29049   0.402   6.848  12.791 -0.1547  0.1219 -0.0542
13241W        W29050   0.078   1.604  15.144  0.1219 -0.0588  0.1411
13242W        W29051  13.314  11.108   1.822  0.3326 -0.2773 -0.4103
13243W        W29052   3.772  16.043  14.374  0.0632  0.2492  0.0514
13244W        W29053  11.917   3.609   5.611  0.2819  0.1468  0.0188
13245W        W29054  16.789  14.463  14.077 -0.0880 -0.1524 -0.1812
13246W        W29055   1.599  16.935  13.432  0.0869 -0.1069  0.0069
13247W        W29056   7.333  10.666  15.015 -0.0461 -0.0264 -0.1411
13248W        W29057   8.258  15.083  12.886 -0.0896 -0.0758  0.0086
13249W        W29058  17.227  12.969   3.577  0.1062  0.1873 -0.4493
13250W        W29059  17.072   3.183  15.094  0.2902  0.2546  0.0255
13251W        W29060  12.814   4.452  14.540  0.0504 -0.0534  0.0694
13252W        W29061  13.301  11.961  13.912  0.3001  0.1588  0.0479
13253W        W29062  15.487  15.797   0.008 -0.1077  0.0058 -0.3793
13254W        W29063  15.503   6.106  13.433  0.0751 -0.1714 -0.1420
13255W        W29064   3.293  16.298  11.922 -0.1991  0.0664 -0.1287
13256W        W29065  11.375   9.684   0.176 -0.1878 -0.1485  0.0725
13257W        W29066  17.230   7.955  13.910  0.1689  0.3623  0.3043
13258W        W29067   0.842   2.706   1.513  0.1066 -0.2366  0.2637
13259W        W29068  17.693  13.254   0.241 -0.3141 -0.1620  0.0486
13260W        W29069  16.428  12.067   0.126  0.0158  0.0306 -0.4644
13261W        W29070  15.695   7.285   3.585 -0.1548 -0.2747  0.1003
13262W        W29071  16.076   3.131  13.281 -0.0362 -0.0003  0.1591
13263W        W29072   0.667  15.713   4.155 -0.0767 -0.2878  0.0908
13264W        W29073  13.615  15.799  12.704  0.1386  0.1046 -0.0104
13265W        W29074  14.256  14.119  12.450  0.0294  0.3844  0.1217
13266W        W29075   0.773  13.565  13.245 -0.3213  0.2034  0.0986
13267W        W29076   1.259   1.459  14.865 -0.1203  0.0285 -0.0339
13268W        W29077   1.576   4.087  12.404 -0.0685  0.2892  0.0531
13269W        W29078  17.998   5.303   1.466 -0.1348  0.2759 -0.2072
13270W        W29079  18.038  14.150  12.876 -0.2019 -0.0551 -0.1292
13271W        W29080   9.214  11.718   0.874 -0.0439 -0.1424 -0.1220
13272W        W29081  11.541  15.172   3.617 -0.0714  0.1331  0.1844
13273W        W29082  16.548   6.655   5.303 -0.0414 -0.0805  0.0282
13274W        W29083   5.135  15.522   0.694  0.2184  0.2265 -0.2777
13275W        W29084   5.710   5.483  15.268 -0.0972 -0.0297 -0.0974
13276W        W29085   3.814   5.864  14.508  0.0790  0.3373  0.1000
13277W        W29086   5.282   8.904  14.608 -0.0489 -0.1029 -0.1269
13278W        W29087  13.637   9.571   4.316 -0.3490 -0.0178 -0.1886
13279W        W29088   9.458   7.593   1.266 -0.0133 -0.1031 -0.0776
13280W        W29089  17.760  15.012  11.275 -0.1854  0.1912 -0.0544
13281W        W29090  17.216   4.937   2.012 -0.0607 -0.0927 -0.1895
13282W        W29091   7.601   0.983   3.542 -0.1936  0.0783  0.0923
13283W        W29092  15.554  11.829   1.515 -0.1671  0.0786  0.4333
13284W        W29093  10.602   9.150   3.798 -0.0809 -0.1822  0.1514
13285W        W29094   7.116  17.785   2.750 -0.3817 -0.1359  0.2650
13286W        W29095   9.533   2.960   1.708 -0.0947 -0.0181 -0.1455
13287W        W29096  13.964  18.188  15.447 -0.0151  0.2109 -0.0893
13288W        W29097   4.371   2.824  10.462 -0.1463 -0.2439 -0.1251
13289W        W29098   6.946  15.930  13.919 -0.3620  0.0560 -0.1576
13290W        W29099  16.218   0.657   5.063 -0.4395 -0.0673 -0.0542
13291W        W29100  14.574   9.836  12.224  0.3441  0.0690  0.0029
13292W        W29101  15.821  13.373  13.565  0.2611  0.1200 -0.0857
13293W        W29102   7.779   7.865   0.255  0.0768 -0.2470  0.3048
13294W        W29103   2.204   2.682   3.924  0.2775 -0.1452  0.0334
13295W        W29104  16.334   5.705   0.473  0.0855 -0.1271 -0.1928
13296W        W29105   4.217  12.113  13.409  0.0126 -0.0544  0.0180
13297W        W29106  10.129  16.178  12.601 -0.0041 -0.0128  0.3651
13298W        W29107  16.707   1.892  12.438  0.0727 -0.2909  0.3837
13299W        W29108   6.288   8.930  15.688 -0.1017  0.0053 -0.0570
13300W        W29109   2.971  13.517  13.386 -0.1450  0.3821 -0.2512
13301W        W29110  13.139   9.144  14.314 -0.1419 -0.2262  0.4401
13302W        W29111  15.755  10.005  12.761  0.1908 -0.0948 -0.0144
13303W        W29112   7.741   9.356  11.053  0.2642 -0.1271 -0.3211
13304W        W29113   7.757   3.146   0.200 -0.0164  0.2671  0.2248
13305W        W29114   2.134   9.292   4.913  0.1634  0.1922 -0.1792
13306W        W29115   8.000   0.099   3.275 -0.0289  0.2200  0.1173
13307W        W29116  12.963   8.288  12.587  0.0806 -0.0379  0.0771
13308W        W29117   8.999   5.256   3.438 -0.0129 -0.2070  0.1959
13309W        W29118   9.623   6.682   2.102 -0.1934  0.3887  0.0531
13310W        W29119  17.169   8.630  14.632  0.0315  0.1527 -0.0676
13311W        W29120   5.444   8.098  12.846  0.0086 -0.2025 -0.0158
13312W        W29121   9.965   2.839   0.692 -0.1524  0.1076  0.0436
13313W        W29122  11.097   8.754   0.849  0.0701  0.3051 -0.0999
13314W        W29123  16.234   1.756  13.775  0.1588  0.1450  0.1017
13315W        W29124   4.413   8.781   5.808  0.0133 -0.2722 -0.1765
13316W        W29125   2.551  14.974   1.063 -0.0494  0.2471  0.0389
13317W        W29126   7.093   2.855  10.852 -0.0080 -0.0990 -0.0818
13318W        W29127  15.907   6.215  13.641  0.1181 -0.1063 -0.0541
13319W        W29128   4.068  15.445  14.234  0.0062  0.0543  0.0875
13320W        W29129  17.678   4.966   0.709  0.2423  0.1767 -0.1719
13321W        W29130  18.431   4.369   5.101  0.1653  0.0405 -0.1976
13322W        W29131  14.959  13.224   2.686 -0.1065  0.1567 -0.0460
13323W        W29132  16.277  17.634   1.751 -0.0718  0.1224 -0.3684
13324W        W29133  16.583  14.570  10.854  0.1575  0.0912  0.0956
13325W        W29134  18.193   0.114  11.801 -0.0258  0.4299  0.0666
13326W        W29135  18.272   3.950  13.039 -0.4054 -0.0794 -0.0778
13327W        W29136   3.975  18.420   0.522  0.0754 -0.2006  0.0736
13328W        W29137  15.638  12.845  11.345 -0.2012 -0.3435 -0.0448
13329W        W29138   1.807  16.359   5.242 -0.0727 -0.2724  0.1235
13330W        W29139   1.289   5.244   4.883  0.1956 -0.2045  0.0245
13331W        W29140  10.919  11.658   0.605 -0.0327 -0.0617 -0.0572
13332W        W29141   4.642   7.419  14.195 -0.3062 -0.1447 -0.0244
13333W        W29142  12.498   4.251  10.772 -0.2715 -0.3750  0.2078
13334W        W29143  17.024  11.182  12.342 -0.1597 -0.1186  0.2017
13335W        W29144  13.646  10.549  14.894  0.0277 -0.0637  0.1586
13336W        W29145   4.992   0.331   1.373  0.2079  0.2136  0.0279
13337W        W29146  13.407   7.599  11.139  0.2541  0.0348  0.1189
13338W        W29147   1.133  15.057  15.515  0.1511 -0.2737  0.2492
13339W        W29148  11.403   1.160   3.416 -0.1720 -0.0435  0.0145
13340W        W29149   8.597  15.192  12.536 -0.1302 -0.0356 -0.0790
13341W        W29150  10.375  15.525  15.809 -0.0485  0.0098  0.1174
13342W        W29151   8.996  13.150  10.788 -0.0046 -0.2502  0.1706
13343W        W29152   2.925   5.189  13.537  0.0657  0.2123  0.0291
13344W        W29153   5.788   0.102   4.461 -0.0834  0.2265  0.1177
13345W        W29154  15.664  14.352   3.980  0.0236  0.1194 -0.0773
13346W        W29155   9.422  14.672  14.033 -0.2877  0.2343  0.3656
13347W        W29156  10.054  12.919   5.203  0.0398 -0.2098  0.1711
13348W        W29157   6.817  13.074  12.709 -0.2048 -0.1776  0.2911
13349W        W29158  14.433   9.626   3.484  0.0359  0.2412 -0.0420
13350W        W29159   7.546  15.782   5.316 -0.1756  0.1693  0.1347
13351W        W29160   2.565   1.322   3.643  0.1337 -0.3688  0.0242
13352W        W29161  13.250  15.158   6.130  0.2237  0.1314 -0.4412
13353W        W29162   3.326  11.198  12.890 -0.0651 -0.1938 -0.0377
13354W        W29163   8.374   3.725  13.030 -0.1039  0.0982 -0.2057
13355W        W29164  18.129  14.960  11.635 -0.5732 -0.0148  0.1200
13356W        W29165  14.223   7.021   3.586  0.1505  0.1391 -0.0031
13357W        W29166   7.013  12.069   2.503 -0.1466  0.0496  0.0557
13358W        W29167  16.899  14.415   3.033  0.2348 -0.0248 -0.2027
13359W        W29168   0.194  15.279   0.716 -0.1326  0.1615  0.2832
13360W        W29169   6.003  10.237  14.375  0.0554 -0.1075 -0.0340
13361W        W29170   3.627  10.819   0.773 -0.2905 -0.0843  0.2022
13362W        W29171  16.767  17.486  13.640  0.1355 -0.1999  0.0784
13363W        W29172  17.577   2.188   0.144  0.3314 -0.1240  0.0049
13364W        W29173  10.830  17.483   4.293  0.1681  0.0151 -0.1325
13365W        W29174  18.189  12.073   0.587  0.0853 -0.2124  0.0108
13366W        W29175  15.048  11.943  14.368 -0.0011  0.0560 -0.0761
13367W        W29176  16.288  12.637  11.743  0.3461  0.0476  0.0239
13368W        W29177  11.192   6.227  10.875  0.0014 -0.3371 -0.2416
13369W        W29178  16.842  17.369   2.680 -0.2101  0.2333 -0.0809
13370W        W29179   4.233   0.482   5.267 -0.1832  0.1977 -0.1480
13371W        W29180  16.889   8.781   3.803 -0.1528  0.2399  0.3014
13372W        W29181  18.233   4.539  11.690  0.2059  0.1474 -0.0251
13373W        W29182   9.554   4.144  13.217  0.0405  0.1126 -0.1449
13374W        W29183   1.592   2.585  15.174  0.1072  0.1322 -0.3222
13375W        W29184  12.125   2.274   0.476 -0.2011  0.0159  0.2845
13376W        W29185   0.433  10.561   0.003 -0.1824  0.0742 -0.2124
13377W        W29186   8.313   2.983  14.340  0.1955 -0.1101  0.1325
13378W        W29187   3.778   5.278  11.605  0.1790  0.1699  0.1010
13379W        W29188   3.720   3.153  11.713  0.1783  0.2499 -0.0283
13380W        W29189  16.569   3.025  15.513  0.2073  0.1847  0.0902
13381W        W29190  12.387  15.184  11.716  0.1187 -0.0937  0.2001
13382W        W29191   5.222   9.907  15.803 -0.3616  0.0729  0.2597
13383W        W29192   6.784   5.512   0.917 -0.1453 -0.3989  0.2314
13384W        W29193  16.878  12.032   5.870  0.1026 -0.1676 -0.2509
13385W        W29194  16.977  11.172   5.466 -0.0981  0.2016 -0.0418
13386W        W29195   1.736  17.511   0.179  0.0970  0.1574  0.0543
13387W        W29196   2.636   2.630   2.669 -0.0187 -0.0679  0.2627
13388W        W29197  15.000   3.488   1.835 -0.1854 -0.1332 -0.0005
13389W        W29198   1.674   6.381   4.672 -0.0604  0.3542 -0.2276
13390W        W29199   6.316   6.831  11.884  0.1282 -0.0867 -0.0384
13391W        W29200   9.229  12.228  12.942  0.0961  0.1360 -0.0458
13392W        W29201   1.239  15.595  15.361  0.0710 -0.0347  0.2338
13393W        W29202   7.679  16.896   2.238  0.0787  0.1188 -0.1673
13394W        W29203  16.486  11.937  12.764  0.1724  0.0401  0.0748
13395W        W29204   5.725  12.259   5.544 -0.2431  0.1745  0.1608
13396W        W29205  14.091  15.094   3.093  0.3858  0.0891 -0.2443
13397W        W29206  16.651   7.791   4.804  0.2710 -0.0854  0.2912
13398W        W29207   9.584  12.403  11.091 -0.1526 -0.0660 -0.1815
13399W        W29208  16.793  18.429  13.765  0.2846 -0.0750 -0.1012
13400W        W29209  16.900   7.231  13.489 -0.1730 -0.0185 -0.1101
13401W        W29210  11.507   9.403   4.067  0.0377  0.0710  0.1244
13402W        W29211   9.085  16.440  11.057  0.0742 -0.3401 -0.3250
13403W        W29212  12.612   9.426   1.301 -0.1153 -0.2944 -0.1486
13404W        W29213   8.214  12.596   0.745 -0.2078 -0.1296 -0.1933
13405W        W29214  10.180  16.097  15.042 -0.0170  0.0404 -0.1858
13406W        W29215  14.338   7.485   4.438 -0.1264 -0.3217  0.2516
13407W        W29216   4.527  15.954  10.090  0.2813  0.1760  0.0184
13408W        W29217   6.133   9.748  14.268 -0.3320 -0.3847 -0.2336
13409W        W29218  15.400  15.460   1.985 -0.0063  0.2786  0.2839
13410W        W29219   8.255  16.565  11.062 -0.3382 -0.1865  0.0420
13411W        W29220   1.195  14.243  13.788  0.1497  0.0946  0.5077
13412W        W29221   2.853  13.998   1.320  0.4824  0.1041  0.1594
13413W        W29222  11.752  10.240   4.206 -0.2624  0.0256 -0.1083
13414W        W29223  12.288  17.469  11.795  0.2049  0.0851 -0.2092
13415W        W29224   7.745  14.004   1.965  0.0900  0.2248 -0.1509
13416W        W29225  18.166  12.044   4.074 -0.2644  0.0185  0.0689
13417W        W29226   7.739  15.883   4.047  0.0105  0.2316  0.2126
13418W        W29227   0.566   2.646   4.651 -0.1556  0.1491 -0.4332
13419W        W29228  11.449  13.262  15.642 -0.1163 -0.2710  0.1065
13420W        W29229  10.731  14.907   2.818 -0.0313 -0.0317  0.0453
13421W        W29230  10.137  12.333  10.938  0.2132 -0.0639 -0.0659
13422W        W29231  14.333   3.482   3.068 -0.0231  0.3717  0.1969
13423W        W29232   0.751   6.544   3.016 -0.1144  0.0214  0.2800
13424W        W29233  10.475  11.058  13.012  0.0617  0.2619 -0.0704
13425W        W29234   5.565  17.011   4.197  0.0701 -0.1152  0.0649
13426W        W29235   9.316  18.338  13.519 -0.1245 -0.0403  0.2755
13427W        W29236  10.736   0.732  13.581 -0.1648 -0.1264  0.1444
13428W        W29237  18.097   7.359  12.818 -0.1038  0.0497 -0.2100
13429W        W29238  11.240   0.219   2.307 -0.3573  0.0054 -0.1872
13430W        W29239   4.842   9.121  11.593  0.3127 -0.1260 -0.0247
13431W        W29240   4.407   5.972  12.675  0.1487 -0.0454  0.2077
13432W        W29241  13.543  14.742  13.506 -0.0651  0.0010 -0.0738
13433W        W29242   0.821   6.099  12.183 -0.0695  0.1220 -0.0783
13434W        W29243   9.305   4.307  11.513 -0.4472 -0.0953  0.2875
13435W        W29244   8.202   6.297  11.682  0.0763 -0.1402  0.0306
13436W        W29245   8.538  11.915   5.484 -0.0850 -0.1023  0.4993
13437W        W29246   9.160  13.659   1.322 -0.0440 -0.0432 -0.4735
13438W        W29247  17.350   1.222  14.639 -0.2597  0.0155 -0.4737
13439W        W29248  10.902  13.141   2.393 -0.1746 -0.2052  0.2161
13440W        W29249   1.072   1.745  14.012  0.0749  0.1932  0.1195
13441W        W29250   4.952  17.786   3.046 -0.3872  0.1485 -0.1535
13442W        W29251  17.446   5.771  15.047  0.1700 -0.2604  0.0991
13443W        W29252  17.066  15.436   5.228 -0.3666  0.0055  0.0780
13444W        W29253   4.283   3.661   1.777  0.1762  0.2721 -0.0057
13445W        W29254  11.329  11.175   4.803  0.4418  0.0880 -0.1714
13446W        W29255  13.625   6.722   4.279 -0.1380  0.0963  0.1151
13447W        W29256   1.648   6.218   3.979  0.0940  0.0717  0.0463
13448W        W29257   0.326   2.976  11.674 -0.0780 -0.0742  0.0015
13449W        W29258   5.448  18.217   0.790  0.0815  0.1559  0.0295
13450W        W29259  11.475  13.912  10.732 -0.2495 -0.1599  0.0727
13451W        W29260  14.327  15.729   2.704 -0.0352 -0.3954  0.1970
13452W        W29261   1.508   7.796   3.274 -0.1349 -0.1351 -0.3228
13453W        W29262   4.010  14.838   3.811  0.1308  0.3471 -0.0526
13454W        W29263   4.386  14.990   4.506  0.1131  0.1668 -0.1106
13455W        W29264   2.694   9.105   0.778  0.1418 -0.3788  0.3015
13456W        W29265  10.677  12.920   3.245 -0.0181 -0.1144 -0.3489
13457W        W29266   4.059   3.406  13.476  0.2505 -0.1342  0.1792
13458W        W29267   2.735   7.137  12.915 -0.1833 -0.0146 -0.3534
13459W        W29268   8.166  14.685  12.384  0.1509  0.0826 -0.0993
13460W        W29269  15.043  10.160   4.469 -0.1119  0.0360 -0.2642
13461W        W29270   8.537  17.321  11.210 -0.1539  0.1083 -0.1556
13462W        W29271  15.732  17.911   4.803  0.4144 -0.0215  0.2344
13463W        W29272   7.533  13.445   0.316 -0.0510  0.1491  0.3748
13464W        W29273  11.119   3.688   2.041  0.1149 -0.0663  0.0242
13465W        W29274   5.526  15.448   2.414 -0.3599  0.0826 -0.0263
13466W        W29275  14.617   6.186  11.744  0.0714  0.0263 -0.1113
13467W        W29276   7.782  13.116   5.915  0.1487  0.0837 -0.2246
13468W        W29277   9.123  10.197  13.294  0.1812  0.3002 -0.1524
13469W        W29278  12.220   1.457  14.314 -0.3392  0.2210  0.1744
13470W        W29279   9.383  17.722  11.628 -0.0041 -0.0191 -0.1499
13471W        W29280  15.131  12.583   0.609 -0.2021  0.0890 -0.0350
13472W        W29281   5.394   8.995  11.279 -0.2721  0.1404 -0.0782
13473W        W29282   7.046   2.874   0.831  0.0456  0.1005 -0.2938
13474W        W29283   3.248   0.121   1.239 -0.0766  0.0436 -0.1417
13475W        W29284   1.699   0.710   4.947 -0.2859 -0.0882  0.1708
13476W        W29285   6.990   1.991  13.767 -0.1620  0.1817 -0.2479
13477W        W29286   0.402  11.780   3.827  0.3005  0.0111 -0.2304
13478W        W29287  12.121  13.705   1.873 -0.0019 -0.1145  0.0232
13479W        W29288  12.454  15.957  14.310  0.1568 -0.2328 -0.2350
13480W        W29289  17.573  10.780   4.017 -0.0163 -0.0969  0.2182
13481W        W29290  14.412  11.737  11.982  0.0037 -0.0548 -0.1265
13482W        W29291  16.268   2.003   1.172 -0.2881  0.0577  0.1056
13483W        W29292   6.446  10.982   5.423  0.2226 -0.2636 -0.0497
13484W        W29293  14.071  18.115   5.406  0.0660  0.3668  0.1309
13485W        W29294  16.212   5.116   3.585  0.1716  0.2534 -0.1048
13486W        W29295  11.619   3.892  14.385  0.0375 -0.1694  0.0747
13487W        W29296   8.453  10.569   0.092  0.3415  0.2973 -0.1616
13488W        W29297  16.816   5.638   0.607 -0.1917 -0.1662 -0.2996
13489W        W29298  11.487  15.073   5.610  0.2326 -0.1058  0.2182
13490W        W29299  14.484   7.945  12.444 -0.1572 -0.1738  0.0573
13491W        W29300  11.352   8.419  12.919 -0.2250  0.2427 -0.1086
13492W        W29301  15.782   4.689   5.323 -0.1213 -0.0566 -0.0821
13493W        W29302   1.022  11.232   4.565 -0.3711  0.1933  0.0191
13494W        W29303   6.295   6.642   0.617 -0.1665  0.0343 -0.1555
13495W        W29304  12.271  13.248   2.849  0.1715 -0.1691 -0.1234
13496W        W29305  12.255   4.649   4.404 -0.4829  0.1943 -0.2842
13497W        W29306  17.459  14.126  10.896  0.1149  0.3788 -0.2193
13498W        W29307  13.042   7.295  11.994  0.0675  0.2320  0.0205
13499W        W29308   4.715   5.049   1.579  0.1546 -0.2263 -0.1865
13500W        W29309  11.886   6.964  14.008  0.1147  0.4571  0.2768
13501W        W29310   5.264  17.598  14.633 -0.0934 -0.4509  0.1880
13502W        W29311  16.156   4.684   0.550 -0.2082 -0.1380 -0.1464
13503W        W29312   5.305   8.411  15.047 -0.0614 -0.0972  0.4769
13504W        W29313  11.092   1.571  11.406 -0.2127 -0.0356 -0.1082
13505W        W29314   2.597  12.275   6.487 -0.1671  0.2449  0.2141
13506W        W29315   8.818   2.458  12.512  0.0607 -0.0937  0.0195
13507W        W29316  13.479  12.039   2.404 -0.2616 -0.0344 -0.1864
13508W        W29317  16.812  12.065   2.512  0.1158 -0.0576 -0.0209
13509W        W29318   6.898  17.467  12.719  0.0252 -0.1995 -0.1285
13510W        W29319   2.573   9.822  11.615  0.1811 -0.0943 -0.3209
13511W        W29320   6.701  18.031  12.018  0.1341  0.1909 -0.0017
13512W        W29321  18.269   2.664  13.611 -0.0978  0.1197  0.0503
13513W        W29322   7.177   9.041   4.646  0.0193 -0.0391  0.0659
13514W        W29323   0.186   9.240   4.799  0.0104  0.0607  0.0122
13515W        W29324   4.242   4.711   2.432 -0.1523  0.1398  0.0736
13516W        W29325   6.640   7.455   5.243  0.1796 -0.1711  0.2451
13517W        W29326   3.155  18.238  10.948  0.1070  0.0831 -0.1343
13518W        W29327  12.182  16.353   0.429  0.1629 -0.1280 -0.1211
13519W        W29328  16.204   6.894  11.425 -0.0137 -0.2351 -0.0062
13520W        W29329   4.834   4.281   2.238 -0.0576 -0.0673 -0.1325
13521W        W29330   2.728   5.593  14.474 -0.0729 -0.0985  0.1697
13522W        W29331  17.983   7.516   3.850 -0.2216 -0.1969  0.0185
13523W        W29332   9.410  17.664   5.051  0.0567 -0.1330 -0.0980
13524W        W29333   4.389   4.010   0.977 -0.0197  0.0467 -0.0421
13525W        W29334   7.083   2.075   1.379 -0.0317 -0.1301  0.0002
13526W        W29335   6.141  17.390  14.841 -0.0244  0.0328 -0.0206
13527W        W29336   1.512   9.002  13.201  0.1516  0.2055 -0.2690
13528W        W29337   1.742   6.795   3.760 -0.0184  0.3951  0.2538
13529W        W29338   5.684   3.553  14.959 -0.2603 -0.0617  0.0446
13530W        W29339   4.411   9.030   1.480 -0.1121  0.0166 -0.0272
13531W        W29340   1.506  11.102   4.104  0.1082 -0.0990  0.2159
13532W        W29341  15.909  17.401   5.161 -0.1664  0.3735 -0.1071
13533W        W29342   2.651   8.317   3.443 -0.0621 -0.0810 -0.0223
13534W        W29343   3.906   4.576   1.608  0.3344 -0.2895 -0.0243
13535W        W29344  16.814   3.987   5.181 -0.1057  0.1124 -0.0860
13536W        W29345   6.538   8.819  10.303 -0.2079 -0.2264  0.0500
13537W        W29346   8.100  15.961   0.942  0.1362 -0.1550 -0.0159
13538W        W29347   5.949   0.301  11.264  0.3101 -0.0610  0.0430
13539W        W29348   2.340   4.571  11.721 -0.2278 -0.0223  0.2552
13540W        W29349   7.165  11.506   5.003  0.0579  0.0475 -0.2247
13541W        W29350   4.873  17.143  14.287 -0.2130  0.2366 -0.0867
13542W        W29351  11.959  14.487  14.022  0.3461 -0.1689 -0.0372
13543W        W29352  11.784  11.859  14.114  0.2207  0.0995  0.2552
13544W        W29353   1.834  10.069  15.030  0.0561 -0.0660  0.0380
13545W        W29354  11.154   2.405   1.765 -0.1052 -0.0345  0.0368
13546W        W29355   5.358   3.735  11.954 -0.1912 -0.0383 -0.0727
13547W        W29356   7.396   3.191  14.368  0.1958 -0.1373 -0.2494
13548W        W29357   3.116   4.250   5.216 -0.1245  0.3630  0.0789
13549W        W29358  10.994   5.830  15.377  0.0348 -0.1539 -0.0500
13550W        W29359   1.654   4.154   1.163  0.1328 -0.0992 -0.4469
13551W        W29360  11.871  12.212  12.156  0.2043  0.0990 -0.0350
13552W        W29361   3.515   1.877  13.669 -0.1786  0.1477 -0.2184
13553W        W29362  15.062  15.759   3.944 -0.0684 -0.1538  0.1947
13554W        W29363  18.174   5.079  15.403  0.1240  0.1671 -0.0557
13555W        W29364  10.495   8.716  13.140 -0.1326  0.1808  0.1395
13556W        W29365   4.380   7.807  14.404  0.3651 -0.1362 -0.1377
13557W        W29366   0.635   9.227   4.455 -0.0924 -0.0682 -0.1828
13558W        W29367   1.951   4.484  14.749 -0.1722  0.0136 -0.0514
13559W        W29368  18.223   2.009   1.304 -0.0520 -0.1048  0.0832
13560W        W29369   0.715  18.083  14.750 -0.0119 -0.3472 -0.2667
13561W        W29370   8.996   6.616  14.639  0.2265 -0.0221  0.0240
13562W        W29371  10.165   6.632   0.303 -0.0729 -0.2083 -0.2104
13563W        W29372   4.854   2.247  11.604 -0.1800 -0.1606  0.1261
13564W        W29373  16.595   1.819   1.991  0.1089  0.0383 -0.0357
13565W        W29374  10.593   1.584   1.420  0.2073 -0.0198 -0.1379
13566W        W29375   8.298   3.979  11.768  0.1195 -0.1656  0.0738
13567W        W29376  17.747   8.167   5.519  0.1911 -0.0845 -0.0750
13568W        W29377  18.345  18.054   4.225  0.2468  0.2316 -0.0467
13569W        W29378   1.812   7.503  13.152 -0.0981 -0.2223 -0.1036
13570W        W29379   7.245  17.311  12.369 -0.2218 -0.1693 -0.1546
13571W        W29380   8.406   7.859  14.304  0.2342 -0.1891 -0.0761
13572W        W29381  13.362  12.291   0.192  0.0339 -0.1699  0.1463
13573W        W29382   8.513  16.907   4.106  0.3684 -0.2452  0.2025
13574W        W29383  18.039   8.037   1.477 -0.0028  0.2473  0.1712
13575W        W29384   3.001  12.946  11.808 -0.1568  0.2185 -0.1968
13576W        W29385   3.275  10.838   3.538  0.3469  0.5318 -0.0598
13577W        W29386   4.390  14.643   4.080  0.2136 -0.0395 -0.0067
13578W        W29387  16.540  15.032   1.408 -0.1277  0.2373  0.1072
13579W        W29388   7.315   5.965   1.367  0.0418 -0.1286  0.2185
13580W        W29389   0.591  10.833  12.799 -0.0844 -0.2156 -0.0770
13581W        W29390  15.279  13.062   0.876 -0.2235 -0.2717  0.1409
13582W        W29391   9.248   9.434  12.005  0.0133  0.0998 -0.1018
13583W        W29392  14.676   6.212  14.371  0.2338 -0.0771  0.1684
13584W        W29393   1.821  10.290  13.752  0.0447  0.3250  0.0760
13585W        W29394  17.238  16.280  13.880 -0.0117  0.2081 -0.2582
13586W        W29395  16.279  13.265  13.056  0.1119  0.2528 -0.0345
13587W        W29396  13.112   1.125   2.978 -0.1687  0.0712 -0.5199
13588W        W29397  10.269  10.541   0.145 -0.0268 -0.2466 -0.1474
13589W        W29398   0.404   0.933   4.319 -0.2599 -0.2532 -0.1565
13590W        W29399  12.848  17.983   4.491  0.2485  0.1280  0.1262
13591W        W29400   4.724  17.583   4.095 -0.1542 -0.1733  0.1023
13592W        W29401   9.426   7.641   2.487 -0.0209  0.1346 -0.2267
13593W        W29402   2.514   8.174  11.212 -0.1952  0.0968 -0.1695
13594W        W29403   3.782   9.870  14.628 -0.4239  0.2519 -0.0932
13595W        W29404   4.085   8.293   3.374 -0.1246 -0.1277  0.2490
13596W        W29405  11.464  12.973   0.591  0.1784  0.2099 -0.0335
13597W        W29406  17.311   5.935   0.489 -0.4047  0.0125  0.3341
13598W        W29407   4.978  13.178   3.278  0.0255  0.1234 -0.3597
13599W        W29408  13.899   6.790  12.444  0.2384  0.0598  0.0188
13600W        W29409   3.681   4.271   1.984 -0.1461 -0.1143 -0.0628
13601W        W29410   5.189   9.178   5.535 -0.1710 -0.0017  0.1823
13602W        W29411  12.414   5.106   4.354  0.0236 -0.0158 -0.2821
13603W        W29412  10.642   4.130   2.138 -0.1233 -0.2125 -0.1458
13604W        W29413  12.056  12.604   1.294  0.0466 -0.2529  0.2862
13605W        W29414  10.158   4.737  14.779 -0.2795  0.2631 -0.2397
13606W        W29415   7.550  13.135  11.016  0.0834  0.0393 -0.1622
13607W        W29416   7.312   1.278   0.823 -0.0489 -0.0772 -0.0887
13608W        W29417   5.083   3.032  11.628 -0.0662 -0.0219  0.0622
13609W        W29418   1.796   5.574  10.600  0.0508 -0.1589  0.1168
13610W        W29419   1.429  16.596  14.178 -0.4327 -0.1008 -0.1430
13611W        W29420   3.796   8.208   3.815  0.1115  0.0800 -0.0120
13612W        W29421  16.835   3.157  14.546 -0.0557 -0.1659 -0.2082
13613W        W29422  16.710   2.517  13.781  0.0799 -0.0833 -0.3372
13614W        W29423  14.689  13.849   1.835  0.1842 -0.1242  0.1010
13615W        W29424   8.312   6.826  11.013  0.0849 -0.0334 -0.1241
13616W        W29425   3.939   7.538  15.211  0.1107  0.2136  0.0410
13617W        W29426  11.282  18.188   3.784  0.2930 -0.2951  0.1436
13618W        W29427   4.629   4.123   1.805  0.2426  0.0709  0.1970
13619W        W29428  16.725  16.000  13.007 -0.3460 -0.1311 -0.0185
13620W        W29429   2.616   4.434   1.390 -0.1532  0.0003 -0.0450
13621W        W29430  11.619  17.989  13.253 -0.0960  0.0675  0.3298
13622W        W29431  13.168   3.724  11.258  0.1221  0.0548  0.0437
13623W        W29432  16.431   8.807  11.499  0.2116  0.0903 -0.0809
13624W        W29433  15.271   9.971  14.727  0.1348  0.0208 -0.0357
13625W        W29434  18.309  14.585   4.540  0.1137  0.0611 -0.0431
13626W        W29435  17.744   1.310   0.271 -0.0833 -0.1687  0.1095
13627W        W29436  11.099  14.580   0.945 -0.0105  0.0797  0.2296
13628W        W29437   5.477   4.398   0.361  0.0570 -0.2450 -0.0664
13629W        W29438   7.907  11.375  14.298  0.1435  0.0089  0.0594
13630W        W29439  15.635   1.811   2.420  0.1280  0.1248 -0.2865
13631W        W29440   3.842   2.491   0.950 -0.3942 -0.1168  0.1632
13632W        W29441  14.147   5.711   2.788 -0.0133  0.1688  0.1071
13633W        W29442   8.926  12.731   4.965 -0.1129  0.0569  0.0246
13634W        W29443   4.831   3.438   9.826  0.2399  0.0960  0.0871
13635W        W29444  16.333   1.545   5.241  0.2501 -0.2367 -0.0547
13636W        W29445  12.418  11.271   4.320 -0.0392  0.1845  0.1178
13637W        W29446   8.634   0.928  11.892  0.1953  0.0269  0.2993
13638W        W29447  18.272   0.725  11.259  0.1132 -0.1885 -0.2345
13639W        W29448  16.874   0.574   1.741  0.2590 -0.3359  0.1801
13640W        W29449  17.591   9.805   4.182  0.0598  0.0796 -0.0940
13641W        W29450   3.821   6.554  15.153 -0.1893 -0.0305 -0.1003
13642W        W29451   0.542  16.734  10.325  0.0439  0.0399  0.1375
13643W        W29452  17.645   9.863   0.834 -0.6965 -0.0558  0.3421
13644W        W29453  13.005  17.833  10.982  0.0290 -0.1057  0.1101
13645W        W29454   8.557  11.553   4.507  0.1281  0.1447 -0.0617
13646W        W29455  16.487   6.307  13.529 -0.0140  0.0385  0.2351
13647W        W29456   6.630   2.177  15.469 -0.1445 -0.0919 -0.3063
13648W        W29457   9.591  15.447  12.638  0.0623 -0.0694  0.1733
13649W        W29458   6.963   3.412  11.509 -0.3716 -0.2310  0.0047
13650W        W29459   9.760  10.156   5.221  0.0298  0.2445  0.2711
13651W        W29460  11.021  12.457   2.938  0.0049  0.2330 -0.4508
13652W        W29461   8.816   2.582  13.472 -0.2510  0.0452 -0.0024
13653W        W29462   8.142   7.162   1.965  0.2230  0.1305  0.0862
13654W        W29463   8.830   5.718   0.435  0.0352  0.0626  0.2130
13655W        W29464   2.368  15.184  11.823 -0.2804  0.0842  0.1780
13656W        W29465   2.816  18.097   3.127  0.0525 -0.1438 -0.0848
13657W        W29466   9.341   2.089  14.713 -0.0311 -0.2905 -0.3301
13658W        W29467   7.901  16.858   0.996  0.2002 -0.0725 -0.0902
13659W        W29468   0.387  13.040  10.136 -0.0552  0.2122 -0.0230
13660W        W29469   7.068   4.393   0.312  0.1548  0.0801  0.1392
13661W        W29470   5.543   5.256   0.317  0.1955 -0.0253  0.2535
13662W        W29471   7.905   5.459  14.046  0.1616  0.4743  0.2563
13663W        W29472  13.845  15.508   3.361 -0.0405 -0.1638 -0.3617
13664W        W29473   8.962   5.264  13.329  0.1451  0.2487  0.1967
13665W        W29474  12.178   7.340  12.403 -0.0974  0.1598  0.0228
13666W        W29475   3.875   2.683   3.216 -0.0313  0.0973  0.0514
13667W        W29476  16.083  16.371  11.377 -0.3415 -0.5075  0.1745
13668W        W29477  17.691  14.839   4.029  0.1361 -0.1717 -0.1209
13669W        W29478  16.637   7.648  13.212 -0.2835 -0.0877 -0.0029
13670W        W29479   7.889   9.732   1.671 -0.2139 -0.1613  0.3661
13671W        W29480  13.005   6.030   0.935 -0.0745 -0.1709  0.1247
13672W        W29481   8.565  10.213  13.424 -0.1649  0.0613 -0.0542
13673W        W29482   6.537   3.757   1.375 -0.0736  0.1539 -0.2078
13674W        W29483   1.004  12.414   1.266 -0.3059 -0.2410  0.0392
13675W        W29484  13.748   6.986   3.450 -0.0781 -0.1661  0.0638
13676W        W29485   9.345   5.178  11.994  0.2048 -0.0371 -0.0047
13677W        W29486   2.281   4.808   1.536 -0.0943 -0.1326  0.2112
13678W        W29487   7.327  16.233   4.446  0.1720 -0.1796  0.2482
13679W        W29488  13.993  16.139   4.045 -0.0039 -0.2384  0.0985
13680W        W29489  12.380   3.115  12.271  0.0525 -0.0184  0.1917
13681W        W29490  10.534  10.966   0.889  0.0625  0.0210  0.0933
13682W        W29491  16.589  15.024  13.564 -0.2354  0.0113 -0.2519
13683W        W29492   1.555   2.173  14.157 -0.1249 -0.1369  0.0635
13684W        W29493  15.744  11.034  12.977 -0.0369  0.0122 -0.0038
13685W        W29494   0.114  12.929  13.247  0.0063 -0.1170 -0.1872
13686W        W29495   5.463   0.699  13.208  0.0489 -0.2129  0.1207
13687W        W29496   4.042  16.396  12.519  0.0886  0.1981  0.0994
13688W        W29497   2.711  17.768  13.637  0.2016 -0.0018 -0.2065
13689W        W29498   9.962  15.044   3.526 -0.0456  0.2199  0.0206
13690W        W29499   3.687  10.574  13.151 -0.0862  0.3050 -0.0792
13691W        W29500   8.895   9.961  13.748 -0.0699 -0.1045 -0.2155
13692W        W29501  18.324  14.886   3.464  0.0179 -0.0717  0.3071
13693W        W29502   7.862   7.391  12.037 -0.1692  0.0241 -0.5186
13694W        W29503  12.362  14.867  11.306 -0.0246 -0.1696  0.1188
13695W        W29504  17.172   2.274  14.083  0.0578  0.0659 -0.0592
13696W        W29505   4.849  12.051  13.493 -0.2299 -0.0535  0.1149
13697W        W29506   0.018  16.558   2.377  0.0549  0.0543 -0.1088
13698W        W29507  16.405   9.869  15.367  0.0901 -0.0776  0.0172
13699W        W29508  15.885  18.413  13.360  0.0794 -0.1990  0.2604
13700W        W29509  15.378  11.370  12.840 -0.1476 -0.3193  0.0461
13701W        W29510   4.803   9.358  13.308 -0.0037 -0.1721 -0.0967
13702W        W29511  10.504   7.690  15.230 -0.0102 -0.0026 -0.0631
13703W        W29512  16.539   9.430  15.644  0.1108  0.0797 -0.6068
13704W        W29513   5.953  18.418   2.363  0.1256  0.2048 -0.1156
13705W        W29514   8.255  10.105   3.227 -0.2210 -0.4640  0.0610
13706W        W29515  14.231   1.240   3.197  0.0967  0.0333 -0.1517
13707W        W29516   7.476  16.124  11.137  0.2575 -0.1772  0.0896
13708W        W29517   0.943   1.869  15.075 -0.3194 -0.3369  0.0759
13709W        W29518  15.327   1.987   1.145  0.1027 -0.2055  0.0372
13710W        W29519  12.609   4.361   5.578 -0.0809  0.0956 -0.0085
13711W        W29520   2.175   9.948  14.101 -0.1859 -0.1073  0.1782
13712W        W29521   9.082   8.091  12.785  0.1813 -0.0785  0.1169
13713W        W29522   9.286  16.632   1.157  0.0896 -0.1803  0.2889
13714W        W29523   5.134   9.558   3.386 -0.1699  0.2623 -0.2293
13715W        W29524   8.744   6.474   3.443 -0.2035 -0.0892 -0.3508
13716W        W29525  12.273   5.478   4.071  0.1569 -0.1576 -0.1265
13717W        W29526   4.534  12.277   0.444 -0.4336  0.0472  0.0975
13718W        W29527   1.452   7.505  14.123 -0.2473  0.0460 -0.0875
13719W        W29528   6.042  10.022  14.862  0.0370  0.0418  0.1491
13720W        W29529   1.261   6.400   5.317 -0.1311  0.0096 -0.0358
13721W        W29530   2.769   9.966   0.524  0.1569  0.2150 -0.1625
13722W        W29531   9.287   0.525  12.526  0.0754 -0.1608  0.1593
13723W        W29532   2.743   8.752  13.656  0.2540 -0.1262  0.2079
13724W        W29533   5.864   6.465   5.181  0.1153 -0.1086 -0.0467
13725W        W29534   3.719  14.042  11.145  0.0914 -0.2337  0.0825
13726W        W29535  13.896   0.663   4.578  0.0265 -0.0268  0.0642
13727W        W29536  10.540   5.571  12.069 -0.0773 -0.2894  0.2966
13728W        W29537  12.035   1.143   1.521  0.0296 -0.1152 -0.1980
13729W        W29538   7.490   4.435   1.835 -0.0668  0.1995  0.0573
13730W        W29539   3.448   6.815  10.099  0.1743  0.2811  0.2298
13731W        W29540   6.434   3.295   1.811 -0.2800 -0.0605 -0.1551
13732W        W29541   7.738   1.581   0.780 -0.1309 -0.3097  0.1993
13733W        W29542  14.136  14.514  11.678  0.3757  0.0445 -0.0734
13734W        W29543  16.082  17.157   3.414  0.3083  0.0786 -0.1384
13735W        W29544  17.825  10.887  15.678 -0.1223 -0.0679  0.0510
13736W        W29545   1.911   1.914  13.930 -0.2273 -0.2741 -0.0044
13737W        W29546   8.438  10.056   5.530  0.2573 -0.1895  0.2592
13738W        W29547  15.849   4.712  11.203 -0.1063 -0.0480 -0.0132
13739W        W29548  16.850  11.735  15.158  0.0545  0.2618 -0.2886
13740W        W29549  18.375  16.499  15.659  0.1610 -0.1337 -0.3247
13741W        W29550  16.211  17.967   3.764  0.1538  0.0653  0.2739
13742W        W29551   3.469   0.708  14.298 -0.1179 -0.1393  0.2332
13743W        W29552  18.050  10.644   2.199 -0.2117  0.1726  0.2871
13744W        W29553   1.261   1.332   0.902  0.2548 -0.1682 -0.5212
13745W        W29554   9.219   1.155  10.063  0.0768  0.0950  0.0463
13746W        W29555  11.438  16.092   5.582  0.1931 -0.0966 -0.2651
13747W        W29556   2.243  17.474  12.364 -0.0958  0.1014 -0.1364
13748W        W29557   4.413   0.344   3.933  0.2040  0.3486 -0.3362
13749W        W29558   8.489   9.812  12.153  0.0471  0.1260 -0.0587
13750W        W29559  17.508  17.898  13.915 -0.1126  0.2867 -0.1539
13751W        W29560   2.059  17.614  14.805 -0.0494 -0.1621 -0.2622
13752W        W29561   9.620  15.690   0.927  0.2646  0.0927  0.1355
13753W        W29562  11.996   5.926   4.849 -0.1090  0.1429  0.1755
13754W        W29563   0.833  16.344   3.839  0.0279 -0.0288 -0.0200
13755W        W29564  11.274  17.234  15.195  0.1700  0.0025  0.0512
13756W        W29565   0.647  14.255  11.171  0.1199 -0.0160  0.2656
13757W        W29566   5.124   9.430   0.559  0.2384  0.1170  0.2025
13758W        W29567   3.385  16.011  14.024  0.0019 -0.1369  0.1579
13759W        W29568   2.975  14.538  10.849 -0.0243  0.0286 -0.1541
13760W        W29569   6.661  10.298  12.114  0.2197 -0.0703  0.2241
13761W        W29570  16.210  11.733   5.380  0.1705 -0.1368 -0.0362
13762W        W29571   0.201  17.829   3.860  0.1103  0.1643  0.0200
13763W        W29572  13.310   2.111  11.782 -0.1193  0.0498 -0.0060
13764W        W29573  12.290  16.123   5.561  0.0305  0.2572 -0.1719
13765W        W29574   3.354   5.409  12.598  0.0095  0.2216  0.1181
13766W        W29575  15.094  18.419  14.550 -0.0914 -0.1819  0.2255
13767W        W29576  16.490  18.115  14.672 -0.1710 -0.0277  0.0663
13768W        W29577  10.548   2.289   2.134 -0.2149  0.5123 -0.0401
13769W        W29578  16.181  17.154  14.189  0.1157  0.0959  0.0722
13770W        W29579   5.052   0.485  12.989 -0.2107  0.0062 -0.1706
13771W        W29580   5.712  14.954   4.414  0.2769 -0.5719  0.0278
13772W        W29581   0.209   4.095   3.209 -0.2649 -0.0368 -0.2860
13773W        W29582  17.976   3.308  11.826 -0.3412  0.3255  0.0910
13774W        W29583  12.878  10.336   3.527 -0.1055  0.4059 -0.0659
13775W        W29584  17.023   3.717   0.446 -0.1003 -0.2934 -0.0719
13776W        W29585  16.961  13.725  14.430 -0.1176  0.2010 -0.1787
13777W        W29586   4.135   4.030   4.294 -0.1010  0.0564 -0.3600
13778W        W29587   3.642   0.728   4.440  0.1382  0.3065 -0.0322
13779W        W29588   8.694   5.186   4.569 -0.0214 -0.0869 -0.1142
13780W        W29589   0.453  17.030   3.426 -0.0959  0.2576 -0.1233
13781W        W29590  11.268   1.488   3.095 -0.2362  0.0609 -0.1447
13782W        W29591  14.600  12.124   6.134 -0.0644 -0.3012 -0.0109
13783W        W29592   1.445   0.882   0.226  0.2702  0.0407 -0.1109
13784W        W29593   0.403  14.104   1.241 -0.0979 -0.0654 -0.0299
13785W        W29594   8.132   1.824   4.389 -0.0506 -0.1375 -0.3189
13786W        W29595   2.894   6.716  13.742  0.0304  0.0392  0.1302
13787W        W29596  13.222   1.193   1.240 -0.4030 -0.0359 -0.2471
13788W        W29597   1.023   4.026  14.380 -0.0494 -0.2100  0.2808
13789W        W29598  16.445   6.396   5.689  0.1220  0.0578 -0.0376
13790W        W29599   3.827  17.907   0.682  0.1951  0.1265 -0.3228
13791W        W29600   3.929   2.424   2.171 -0.1325 -0.0651  0.0169
13792W        W29601  11.498  12.711  12.957  0.3004 -0.2285  0.2713
13793W        W29602   4.600   9.531  10.379 -0.1038  0.1851 -0.1912
13794W        W29603  14.633  11.940   4.769 -0.1923  0.0096  0.0100
13795W        W29604  13.692  10.154   0.174  0.1559 -0.0450 -0.0350
13796W        W29605  10.052   7.874   4.940 -0.0071 -0.0216 -0.3254
13797W        W29606   4.814   6.680  13.962  0.0084  0.3864  0.1383
13798W        W29607  16.960   1.536   1.783  0.0384 -0.0258 -0.0798
13799W        W29608   2.106  16.597  14.357  0.0568 -0.0089 -0.1058
13800W        W29609   2.158  13.636   3.155 -0.0339 -0.1502  0.1143
13801W        W29610   2.305  15.474  12.756 -0.0865  0.0563 -0.1830
13802W        W29611   3.200   0.844   4.258  0.0207  0.1717 -0.0971
13803W        W29612  12.708   9.211  11.565  0.0572  0.1074  0.4428
13804W        W29613  13.897   3.870   4.811  0.1467  0.2817  0.1465
13805W        W29614  15.324   1.177  11.838  0.3171 -0.2115  0.0296
13806W        W29615  15.201   1.819  13.643 -0.0363 -0.1325 -0.0238
13807W        W29616   6.700   6.678  15.579 -0.0355 -0.0002  0.0817
13808W        W29617  13.398   0.072  14.499 -0.3730  0.1081 -0.1767
13809W        W29618   1.580  15.734   2.410  0.2584 -0.0811  0.0374
13810W        W29619   9.180  15.900   4.355 -0.1416 -0.1501  0.0705
13811W        W29620  14.172  10.671   2.018 -0.1068 -0.1216  0.1743
13812W        W29621  15.246   3.218  11.433 -0.0183  0.1975  0.0977
13813W        W29622   6.644  11.166  11.604  0.1490 -0.2152  0.1375
13814W        W29623   8.973   7.573   2.758  0.1669 -0.0824  0.1842
13815W        W29624   0.890  16.803   9.661 -0.3088  0.1775  0.3519
13816W        W29625   1.909   1.046  14.157  0.3042 -0.1641 -0.0516
13817W        W29626   9.847  14.135  11.985 -0.2468 -0.1684 -0.0334
13818W        W29627   4.839  15.576  15.136  0.0176  0.0414 -0.0318
13819W        W29628  11.502   0.187  11.357 -0.0026  0.0835 -0.0823
13820W        W29629   7.044   0.431  14.793 -0.0755  0.0583 -0.2586
13821W        W29630  13.956  16.723   5.497 -0.2818 -0.4199 -0.2384
13822W        W29631  17.027  14.267  13.653  0.1340  0.0571 -0.1806
13823W        W29632   2.459  11.776  15.086  0.0073 -0.1800  0.2148
13824W        W29633  11.966   9.704  13.453 -0.0057 -0.0015 -0.2870
13825W        W29634  13.497   3.387   0.996  0.2720 -0.2422 -0.1603
13826W        W29635  16.297  14.773  13.934  0.2495 -0.2098  0.0031
13827W        W29636   1.705  10.978   6.034 -0.2274  0.0490 -0.2563
13828W        W29637  16.346   1.798   4.725  0.2338 -0.1412 -0.0837
13829W        W29638   9.959  13.975   0.252 -0.1477 -0.2016 -0.0587
13830W        W29639  11.063  18.404   0.203 -0.0446  0.2123  0.3004
13831W        W29640   8.457   1.284   1.329 -0.0617 -0.0518 -0.0951
13832W        W29641   8.841   4.855   2.152  0.0415 -0.0069  0.0524
13833W        W29642   5.113   3.365   1.435  0.1812 -0.1217 -0.1348
13834W        W29643   6.924  15.553  15.478 -0.0715  0.1328 -0.0479
13835W        W29644  12.001  18.405   1.618 -0.2491  0.0446 -0.1265
13836W        W29645  13.031   7.409   3.185  0.0338  0.0252 -0.0926
13837W        W29646   9.350   6.933   4.248 -0.0614 -0.1174 -0.3840
13838W        W29647  13.122  15.046  13.244 -0.1466  0.2782  0.0864
13839W        W29648   6.377   9.671   2.331 -0.4264 -0.1182  0.1697
13840W        W29649  15.391   2.337  13.595 -0.1186  0.0652  0.0264
13841W        W29650   7.738  13.704   5.700 -0.2634 -0.0112  0.1197
13842W        W29651  13.880  15.274  10.958  0.0202 -0.0335  0.1530
13843W        W29652   2.936  10.548  13.739  0.3773  0.1460 -0.1347
13844W        W29653   9.366   5.373  14.687  0.1763  0.0008  0.1371
13845W        W29654   4.922   5.585  11.986  0.2595  0.0465 -0.0757
13846W        W29655   9.941  16.353  11.773  0.0602 -0.0914  0.1459
13847W        W29656  10.595   3.402   5.601  0.2511 -0.3483  0.1393
13848W        W29657   6.184   6.118   3.447 -0.1021  0.1966 -0.3423
13849W        W29658   4.527   0.733  10.474 -0.0020  0.0054  0.2433
13850W        W29659   7.263  15.550  14.308  0.0129  0.0023  0.2696
13851W        W29660  12.357   5.409  12.131 -0.0665 -0.1585 -0.0350
13852W        W29661   9.850  13.295   2.346 -0.1706  0.1989  0.0748
13853W        W29662   7.659  16.342   2.060 -0.0428 -0.0766  0.0948
13854W        W29663  11.128   1.610  12.201  0.0364  0.0084  0.1539
13855W        W29664  14.959   6.983   4.131  0.1420  0.0060 -0.0606
13856W        W29665  13.342  16.452   2.196  0.0173  0.4572  0.1140
13857W        W29666   7.456  14.047  12.855  0.0614  0.2070 -0.0586
13858W        W29667  14.343   6.708   4.857 -0.0394  0.0076  0.0300
13859W        W29668  18.320   4.827  14.519  0.1783  0.3099 -0.2334
13860W        W29669   4.451  11.214  10.799 -0.1578 -0.0120 -0.2913
13861W        W29670   8.495  15.807   3.810  0.1405  0.0776  0.1560
13862W        W29671   7.027  18.125   5.258 -0.0301  0.0386 -0.0682
13863W        W29672  14.743  13.515   4.846 -0.1750  0.4013 -0.2495
13864W        W29673  10.748   1.594   1.920 -0.1257 -0.1482 -0.1893
13865W        W29674  16.314  13.503   4.423 -0.0391  0.0599 -0.1236
13866W        W29675  17.230   2.598  10.966 -0.0352  0.4530  0.0156
13867W        W29676   6.571   4.848   2.441 -0.1463  0.3379  0.0070
13868W        W29677   6.799  14.037   0.250 -0.0006 -0.0950  0.0016
13869W        W29678  15.884  10.921  14.676 -0.1637 -0.0182  0.3053
13870W        W29679   8.899  16.515  15.138 -0.0079 -0.3758 -0.1227
13871W        W29680  12.123  11.859   3.780  0.3218 -0.0816 -0.2224
13872W        W29681  10.909   4.434   0.833 -0.2009 -0.0555 -0.2114
13873W        W29682  15.087   3.701   3.085  0.3525  0.0954  0.0295
13874W        W29683  18.108  11.689   3.172  0.0879 -0.2154 -0.3309
13875W        W29684   2.661   3.006  10.766 -0.1622  0.2205  0.3092
13876W        W29685  14.808   9.412   2.624 -0.0870 -0.0227  0.0472
13877W        W29686   9.715   8.822  10.189  0.4587 -0.1128  0.0305
13878W        W29687  12.508  17.579   2.538 -0.0624 -0.0626  0.2161
13879W        W29688   2.160   2.622  15.355  0.1103  0.3693  0.0580
13880W        W29689  18.061  17.569  11.826 -0.1099  0.0596  0.1160
13881W        W29690  10.499   5.255  12.448 -0.3020  0.2227  0.2486
13882W        W29691   7.418   0.612  10.678  0.2120  0.2153  0.0191
13883W        W29692  15.945   1.196  15.657 -0.0170 -0.0994 -0.1343
13884W        W29693   8.393   7.256  11.271  0.2039  0.2493 -0.2838
13885W        W29694  12.094  15.388   0.294 -0.2007  0.0847  0.2393
13886W        W29695  14.770   2.386  11.699  0.4060 -0.0014  0.0373
13887W        W29696  14.815  18.389  10.839 -0.2025  0.0861 -0.2002
13888W        W29697  16.331  12.205   4.677 -0.3705  0.1342  0.2307
13889W        W29698  10.653  17.346   1.900  0.1437 -0.1670 -0.0901
13890W        W29699  17.607   9.107  14.109 -0.1736  0.0382 -0.1784
13891W        W29700   8.065   5.483   3.397  0.0738  0.0058  0.1971
13892W        W29701  13.827   4.541   3.826 -0.1027 -0.3436 -0.1548
13893W        W29702   4.727   1.570   1.959  0.0401 -0.2023  0.2180
13894W        W29703   2.883   0.634  15.740  0.0184 -0.0728  0.3886
13895W        W29704  17.702   6.556   3.916  0.0693 -0.0070 -0.0237
13896W        W29705   0.126  14.998   2.081 -0.2005  0.3634  0.1312
13897W        W29706  12.664  12.047  11.829  0.2064  0.2298 -0.1818
13898W        W29707   9.809   0.391   0.836  0.4405  0.0130 -0.0092
13899W        W29708  15.159   2.746   3.182  0.0198 -0.1344  0.2008
13900W        W29709   6.795  18.096   4.848  0.0256 -0.2348  0.3612
13901W        W29710  16.381   5.870  12.094  0.0029  0.0620 -0.0572
13902W        W29711   3.220  14.342  13.556  0.2098  0.2998 -0.1128
13903W        W29712   2.260   7.200   4.308  0.0576 -0.0186  0.1591
13904W        W29713   1.092  16.312  10.920 -0.1025 -0.0266 -0.3702
13905W        W29714   1.297  10.915   2.531  0.0128 -0.0031  0.0228
13906W        W29715  11.070   0.552  14.216  0.0412 -0.2191  0.0371
13907W        W29716  10.977  13.953  14.879 -0.0444  0.0548 -0.0155
13908W        W29717  13.914   6.707  11.128  0.0355 -0.0046 -0.2725
13909W        W29718   8.624   1.426   3.599 -0.1463 -0.2594  0.1205
13910W        W29719   8.755   9.446  15.446  0.1362 -0.1228  0.0722
13911W        W29720  13.549  18.424   0.302 -0.2851 -0.1526 -0.2377
13912W        W29721   5.827  12.165  15.445  0.2039  0.1152  0.0894
13913W        W29722   6.858   2.238   4.789 -0.2438  0.1516 -0.1814
13914W        W29723   1.693  13.999   1.887  0.0409 -0.2666  0.1180
13915W        W29724   7.670   9.799  12.451 -0.1612 -0.0237  0.0324
13916W        W29725   7.609   5.377   4.345 -0.2002 -0.0230 -0.0046
13917W        W29726  10.187  10.841   0.532  0.1812  0.1697 -0.0254
13918W        W29727   1.213  14.766   0.892  0.1293 -0.2310 -0.1164
13919W        W29728   5.131   3.002   3.152  0.2663  0.1120  0.1570
13920W        W29729  10.849  16.532  13.491 -0.2160 -0.2325  0.1695
13921W        W29730   6.537   7.624  11.930 -0.1122 -0.1719 -0.1048
13922W        W29731   8.408  11.890  13.645 -0.0046 -0.0438  0.1763
13923W        W29732   0.764   8.035   1.455 -0.1626  0.0429  0.0957
13924W        W29733  11.276   6.734  11.033 -0.1576 -0.4275  0.3783
13925W        W29734   6.641   0.705  14.987 -0.0984  0.1455  0.3769
13926W        W29735  13.737  10.660   3.370  0.0999  0.1943  0.2005
13927W        W29736   1.589   1.540  14.120  0.0518  0.0263 -0.0076
13928W        W29737  13.290   7.536   4.619  0.2584  0.1535 -0.0455
13929W        W29738   1.638   5.747   0.258  0.1370  0.3517  0.1210
13930W        W29739  11.037   3.802   3.460 -0.0772  0.1108  0.2389
13931W        W29740   0.157   1.734   0.259  0.3167 -0.1920  0.2391
13932W        W29741  15.980  16.008  14.136 -0.2712 -0.0447  0.0836
13933W        W29742  16.370   3.392   0.880  0.2161 -0.3240 -0.1779
13934W        W29743   9.691   3.974   2.469 -0.1643 -0.4023 -0.0040
13935W        W29744   1.596  17.661   3.031 -0.0282  0.2477  0.0388
13936W        W29745   2.159  18.010   1.358  0.0540 -0.0386  0.0677
13937W        W29746   9.827   1.410   3.900 -0.0537  0.0652  0.1715
13938W        W29747   6.487   6.141  13.269  0.0634 -0.2260 -0.2433
13939W        W29748  12.431   3.277   4.393 -0.3400 -0.0455  0.3360
13940W        W29749  11.424  13.141  13.139 -0.0783  0.1638  0.1195
13941W        W29750  15.691   7.624   3.184 -0.0477 -0.1372  0.1248
13942W        W29751   3.879   6.689  11.444 -0.2069 -0.1613 -0.0217
13943W        W29752  16.086   8.282   1.065  0.1758 -0.2796  0.2789
13944W        W29753  15.873  12.788  13.495  0.0457  0.1887  0.0438
13945W        W29754   4.315   0.563  15.484  0.1817 -0.1440  0.1836
13946W        W29755  13.193  14.950   5.681 -0.0137 -0.2613 -0.1405
13947W        W29756   9.024  16.465   4.248  0.0547 -0.0995  0.0849
13948W        W29757   7.030   0.942  12.208 -0.2253 -0.1401  0.2360
13949W        W29758  16.028  13.860   2.088 -0.1510  0.0091  0.3094
13950W        W29759   4.096  14.345   3.811 -0.0005 -0.0977 -0.0952
13951W        W29760  18.124  10.748  15.254  0.0707  0.1543 -0.0047
13952W        W29761   9.519   0.759   5.553  0.3401 -0.0251 -0.4118
13953W        W29762   5.311   9.827  12.679 -0.2638 -0.1231 -0.1201
13954W        W29763   6.520  16.418  13.164 -0.4293 -0.0209  0.1384
13955W        W29764  15.712  11.401  11.507 -0.2228  0.0248  0.3234
13956W        W29765   3.834   6.451   4.576  0.0291  0.1652 -0.0655
13957W        W29766  16.847   4.772   2.854 -0.0321  0.1965  0.2280
13958W        W29767  14.854   6.243   5.736  0.0317 -0.0599 -0.1415
13959W        W29768  17.829   4.402  14.877 -0.1658 -0.2802 -0.1727
13960W        W29769   5.625  11.301   1.911 -0.0290  0.0099  0.0821
13961W        W29770   4.006  13.545   1.541  0.0542  0.0077 -0.2581
13962W        W29771  10.170   8.123  15.019  0.0402  0.1615 -0.1222
13963W        W29772  17.434   4.209  11.956  0.4131 -0.2642  0.1071
13964W        W29773   1.022   7.256   1.398 -0.0500 -0.1367  0.0422
13965W        W29774   4.790   5.096  12.157  0.0807 -0.0555  0.0452
13966W        W29775  12.929  14.734   2.297 -0.0344  0.1124 -0.2659
13967W        W29776   8.432  13.426   1.148  0.0043 -0.0064 -0.0926
13968W        W29777   0.287   8.211  11.354 -0.0101 -0.0521 -0.1011
13969W        W29778   5.906   5.818  12.471 -0.0957 -0.0192 -0.1384
13970W        W29779  15.103   9.680  13.664  0.0229 -0.1242  0.1264
13971W        W29780   3.552   4.314   2.859 -0.1140 -0.2277 -0.1564
13972W        W29781   6.282   4.160  13.452  0.1054 -0.0768 -0.2494
13973W        W29782  17.621  18.300   4.675  0.0058 -0.0191  0.0190
13974W        W29783   0.265   8.496  11.873 -0.0106  0.1432 -0.1365
13975W        W29784   5.955   4.636   1.404  0.0090 -0.1835  0.2279
13976W        W29785   2.788  18.228   1.193  0.0570 -0.3222 -0.0309
13977W        W29786  12.117  10.092  12.385  0.0208  0.0396  0.0664
13978W        W29787   4.879  17.061   5.036  0.3734 -0.1446 -0.0548
13979W        W29788   1.448  17.106   0.869  0.1432  0.1708  0.0669
13980W        W29789  14.154   5.222  15.618  0.1367 -0.3679  0.0706
13981W        W29790   3.327   1.983   2.279  0.0995 -0.0006  0.1478
13982W        W29791   5.195   1.622  14.990  0.1398 -0.2744  0.1070
13983W        W29792   0.050  14.330  13.142 -0.2683  0.0289 -0.5755
13984W        W29793  12.498  14.186  15.762  0.1674  0.0394 -0.0786
13985W        W29794  18.365  14.021  11.787  0.0967 -0.0049 -0.1161
13986W        W29795   9.106   0.472   5.208 -0.4189  0.2799  0.1713
13987W        W29796   6.131   5.483   5.230 -0.0340  0.0842 -0.2164
13988W        W29797  16.131   8.171  12.268  0.1044 -0.0063 -0.2075
13989W        W29798   6.011  14.165  14.122 -0.4566  0.0831  0.0516
13990W        W29799  15.453   5.557  14.333  0.0497 -0.1109  0.1388
13991W        W29800  11.092   9.932  10.946 -0.4339  0.0172  0.2273
13992W        W29801  18.397   6.521  10.118  0.0812 -0.3532  0.3365
13993W        W29802  17.222   3.315  12.430  0.3383  0.2918 -0.0431
13994W        W29803   7.795   9.781   2.184  0.0182 -0.0202  0.1089
13995W        W29804   5.343  15.032  11.321  0.0029  0.2495  0.0488
13996W        W29805  10.098   2.327   1.548  0.1004  0.0002 -0.0892
13997W        W29806  10.577   4.917   5.302 -0.1268  0.2374  0.0445
13998W        W29807  16.044  16.630  14.078 -0.0521 -0.0948 -0.1346
13999W        W29808  18.390  15.796   0.005 -0.2052 -0.1610 -0.1099
14000W        W29809   8.621   5.538  12.517 -0.1178  0.0854 -0.0056
14001W        W29810   0.142   3.597   3.344 -0.2508  0.0073  0.2441
14002W        W29811  18.247   7.159   2.877  0.1752 -0.0546 -0.1106
14003W        W29812  16.710  16.701   2.928 -0.1864  0.1385 -0.0027
14004W        W29813  11.767  12.525   0.203  0.2714  0.0253 -0.1648
14005W        W29814   3.620   7.157   2.225 -0.2224 -0.1098 -0.0677
14006W        W29815  13.951   3.863  12.652  0.2672  0.1090 -0.0068
14007W        W29816  14.543   2.282   2.639 -0.0806 -0.0332 -0.1216
14008W        W29817   1.332  13.217   0.356 -0.1617  0.0229 -0.1986
14009W        W29818  10.382  17.282   5.080  0.0586 -0.0754 -0.2154
14010W        W29819   9.932  12.206  11.484 -0.0383 -0.1022  0.1503
14011W        W29820  14.279  12.451   4.689 -0.1169 -0.4124 -0.1108
14012W        W29821   2.363   4.750  15.550 -0.0826  0.0635  0.1530
14013W        W29822  15.265  14.613  13.729  0.1600 -0.1536 -0.0077
14014W        W29823  15.024  10.904   5.768  0.1987 -0.3643 -0.0822
14015W        W29824  12.960   2.735  14.778 -0.0600 -0.0694  0.1480
14016W        W29825  11.830   3.666   4.835 -0.3262  0.1100 -0.0448
14017W        W29826  16.228   1.814  12.590  0.0736  0.0794  0.1655
14018W        W29827   6.174   5.488   4.228 -0.1959 -0.1826 -0.1131
14019W        W29828   3.728   0.629   3.125  0.0844  0.0204 -0.1176
14020W        W29829  14.292   4.541   2.231  0.0152  0.1263 -0.1796
14021W        W29830  18.015   1.054   5.075  0.1982 -0.0602 -0.2965
14022W        W29831   8.850   6.853   4.350  0.0908  0.0199  0.0557
14023W        W29832  15.889   1.589   0.103 -0.2136  0.1338  0.1053
14024W        W29833   7.973   5.721  13.269 -0.0381 -0.0159  0.2160
14025W        W29834   3.124  12.386   0.449  0.2208  0.2100  0.2349
14026W        W29835  11.740   9.718   4.376 -0.1781 -0.1118  0.0946
14027W        W29836   5.793  13.776  11.801 -0.1623 -0.0272  0.0334
14028W        W29837  16.785  10.269  15.565 -0.1915 -0.2252  0.0854
14029W        W29838  10.687   6.014  10.931 -0.2461  0.1880 -0.1499
14030W        W29839  16.980   1.502   4.329  0.2355  0.2310  0.2031
14031W        W29840  15.388   4.046  12.343  0.2329  0.2161 -0.0712
14032W        W29841   9.944   8.556  13.052 -0.0591  0.1240 -0.1667
14033W        W29842  17.997  13.208   1.924 -0.0749  0.2432 -0.0332
14034W        W29843   9.825   8.891  12.027 -0.2131  0.3035  0.1335
14035W        W29844  18.300   6.881  12.044  0.1560  0.0773  0.1609
14036W        W29845  11.774  15.163   0.719  0.1726  0.1840  0.2635
14037W        W29846  14.910   7.459   0.849  0.5401 -0.1785 -0.1374
14038W        W29847   3.098   0.178  13.604  0.0834 -0.1422 -0.1597
14039W        W29848   7.477   2.011   0.591  0.0591  0.1619 -0.2798
14040W        W29849  14.551   9.641  12.966 -0.1320 -0.1191 -0.0607
14041W        W29850  15.772   8.376   0.449  0.0947 -0.2540  0.2155
14042W        W29851  16.722   1.439  14.010  0.1803  0.0887 -0.1093
14043W        W29852   6.801   5.413  15.504  0.0459 -0.1477 -0.0535
14044W        W29853  16.756   7.018   4.885 -0.1118  0.5261  0.0716
14045W        W29854  17.197  15.494   9.341  0.0333 -0.0106  0.0745
14046W        W29855   4.753   9.235   2.780  0.2069 -0.3354  0.1895
14047W        W29856  13.644  11.088   5.261  0.0116  0.0334  0.1513
14048W        W29857  14.720  14.481   0.064 -0.1649 -0.0952 -0.2030
14049W        W29858  17.713  13.065  10.001  0.2434 -0.0132 -0.1013
14050W        W29859   0.496  17.394  14.206  0.0911 -0.1784 -0.0209
14051W        W29860  12.347   0.572  13.645 -0.1736 -0.0588  0.1386
14052W        W29861   0.112  13.261  15.380  0.0599  0.0151  0.0426
14053W        W29862  11.835  12.817  14.333 -0.0546  0.2051  0.0042
14054W        W29863   4.411   1.817   1.036 -0.1560  0.3878 -0.0858
14055W        W29864   0.058   3.091   3.142  0.2307  0.1932 -0.1770
14056W        W29865  17.398   4.305   1.496 -0.1564  0.1720  0.1954
14057W        W29866   7.619  14.562   3.274  0.3341 -0.0512  0.0830
14058W        W29867  11.150  18.360  11.068 -0.0258 -0.2986 -0.1322
14059W        W29868   2.863   3.572   4.814  0.2814  0.4378 -0.2815
14060W        W29869  11.675   2.168  13.519 -0.0589 -0.0903 -0.3733
14061W        W29870   9.893  14.800  12.848  0.0638 -0.1939  0.1153
14062W        W29871  10.199  13.967  14.784 -0.0686 -0.0340  0.0157
14063W        W29872  16.325   3.912   5.120 -0.1988  0.1164  0.1722
14064W        W29873   2.997   0.254   0.203 -0.3546 -0.0233  0.0394
14065W        W29874   4.778  14.696   0.996  0.0386 -0.0852 -0.0302
14066W        W29875  17.764   2.076  14.716  0.3718  0.0018 -0.3093
14067W        W29876  16.080   5.339  13.888  0.1445  0.0164  0.2323
14068W        W29877  16.750  11.096   4.528  0.0222  0.0019  0.3420
14069W        W29878  11.993   5.059  11.917 -0.2254  0.0462 -0.0244
14070W        W29879   6.244  16.484   4.573 -0.3488 -0.0350  0.0604
14071W        W29880   1.567   0.465   1.500 -0.3102 -0.0631  0.1067
14072W        W29881   0.175   3.715  11.671 -0.3285 -0.0485 -0.1716
14073W        W29882  15.390  13.072   5.394  0.4382  0.2232  0.1159
14074W        W29883   4.728  11.256   3.077  0.1980 -0.0429  0.2643
14075W        W29884   8.939  17.903   2.753 -0.2990 -0.2969 -0.2544
14076W        W29885   5.233   5.412   5.704  0.0973  0.3028  0.1180
14077W        W29886   1.422   8.841   5.358  0.1465 -0.1483 -0.1493
14078W        W29887  14.682   2.082   5.263 -0.0702  0.0476 -0.3118
14079W        W29888  11.800   3.527  14.664 -0.0062  0.0940  0.2423
14080W        W29889  15.970   7.853   3.509  0.3642 -0.3240 -0.3323
14081W        W29890   1.804  15.559   3.735  0.1827  0.2509  0.0404
14082W        W29891  17.417   1.567  13.377  0.4692  0.3625 -0.0849
14083W        W29892   9.934  14.138   2.210  0.0111  0.0935  0.4949
14084W        W29893  13.633  14.319   4.462  0.1991 -0.3674 -0.0237
14085W        W29894  17.171   8.551   1.737 -0.0949  0.1024 -0.1442
14086W        W29895  12.763   8.642   3.950 -0.1324  0.2392  0.2453
14087W        W29896   3.705  14.313   0.446 -0.1180  0.3080 -0.3440
14088W        W29897   8.412   4.332  15.743 -0.3046 -0.0954 -0.0890
14089W        W29898   0.551   5.824  12.539  0.0289  0.1210  0.1244
14090W        W29899  14.859   3.753   4.788  0.2722  0.0075  0.1648
14091W        W29900   5.183  14.222   5.974  0.0319 -0.1148  0.3590
14092W        W29901   6.592   5.859   4.305  0.1642 -0.1774 -0.0484
14093W        W29902  14.724  14.342   3.677  0.2813  0.0501 -0.0330
14094W        W29903  16.794  14.277   2.542  0.0691  0.3092 -0.1474
14095W        W29904   7.076  12.120   5.734 -0.0517 -0.0059  0.1651
14096W        W29905   8.132  12.975  13.601  0.1836  0.0866 -0.1510
14097W        W29906   2.397   9.536   3.049 -0.2108 -0.0573 -0.2835
14098W        W29907  12.255  12.362  11.867  0.1987  0.1138  0.2765
14099W        W29908  10.568  16.615  14.798 -0.2920  0.0980  0.2421
14100W        W29909   0.413  10.222   0.494  0.1168  0.0190 -0.0689
14101W        W29910   1.181  13.876  11.908  0.0896  0.4884 -0.0084
14102W        W29911  12.215   3.447   3.938 -0.1326  0.1364 -0.2404
14103W        W29912  12.580  15.093  15.438  0.0170 -0.1207 -0.2838
14104W        W29913   4.867   5.768  11.510  0.0087  0.2468  0.2006
14105W        W29914  10.531  12.939  12.820  0.0744 -0.0217 -0.0154
14106W        W29915   5.106  14.318  14.725 -0.1762 -0.1835  0.1238
14107W        W29916  13.393   2.515  12.138 -0.2779 -0.0532  0.1674
14108W        W29917  14.196  15.883  13.175  0.1196  0.2297 -0.0154
14109W        W29918   4.883  13.613   3.630 -0.1977  0.0607 -0.2072
14110W        W29919   6.727   2.034  11.880  0.2228  0.1914 -0.2218
14111W        W29920   6.375  12.781   0.230  0.1209  0.1229 -0.1137
14112W        W29921   0.691   5.435  11.077 -0.2836  0.1268 -0.1079
14113W        W29922  13.644   4.517  10.018 -0.0457  0.5125  0.2279
14114W        W29923  11.530  10.441   2.969  0.0040 -0.0435  0.0024
14115W        W29924  10.885  12.157   3.646  0.0224  0.2719 -0.1335
14116W        W29925   2.417  14.248   4.121 -0.0013 -0.0758  0.0471
14117W        W29926  10.541  11.637   5.245 -0.1509  0.0609 -0.1800
14118W        W29927   5.822   2.807  12.379 -0.3257 -0.0648  0.0719
14119W        W29928   0.862   1.893  12.215  0.0471 -0.1822  0.0724
14120W        W29929   8.515  13.064   2.580 -0.0632 -0.1892 -0.1129
14121W        W29930   0.665  16.008  14.589 -0.3753  0.2677  0.0195
14122W        W29931  16.351  11.194   0.126  0.2802 -0.0711  0.0033
14123W        W29932   8.639  17.269   1.308  0.1152 -0.1694  0.0781
14124W        W29933   9.986  11.182  12.870  0.0008 -0.1834  0.0319
14125W        W29934   1.255   7.413  13.343  0.1191  0.1293 -0.0281
14126W        W29935  16.915   1.886  14.269  0.2236 -0.2404  0.1310
14127W        W29936  16.432  12.810   3.222 -0.0315  0.1576  0.0269
14128W        W29937  14.380  11.053  13.218 -0.1738 -0.0060 -0.0600
14129W        W29938   8.261   2.951  11.814  0.1242  0.1040  0.0871
14130W        W29939   9.792   8.305   3.347 -0.1487 -0.0380 -0.1609
14131W        W29940   5.345  18.316  13.409 -0.0479 -0.2225 -0.0509
14132W        W29941  17.793   2.832   2.447 -0.1897  0.2052 -0.0046
14133W        W29942   5.792  17.442   2.673  0.3349  0.0592 -0.1547
14134W        W29943  17.685   1.333   1.426  0.1743  0.3257 -0.1757
14135W        W29944  16.844  13.400   0.693 -0.0100 -0.2739 -0.0227
14136W        W29945   6.266  16.201   2.627 -0.1756  0.2097 -0.0002
14137W        W29946  10.765  12.327   4.109 -0.2642  0.2131 -0.0364
14138W        W29947  14.734   2.109   0.660  0.0421 -0.1420  0.2638
14139W        W29948  16.482  17.541  14.029 -0.3361 -0.2906 -0.2035
14140W        W29949   9.993  12.264   0.021 -0.3088  0.0222 -0.0738
14141W        W29950   9.794   6.083   1.984 -0.1108 -0.0243  0.1561
14142W        W29951   2.032  15.166   1.837  0.0242  0.2411  0.1747
14143W        W29952  16.566   8.182  14.898 -0.2666  0.0658 -0.1084
14144W        W29953  13.666  10.733  12.510 -0.1768  0.0530  0.3858
14145W        W29954  14.075   9.623  15.282  0.0684  0.2353 -0.1099
14146W        W29955  11.885  15.273   2.267  0.0658 -0.1732 -0.0252
14147W        W29956  13.408  16.363   5.591 -0.1040 -0.1548 -0.1554
14148W        W29957   7.505   7.534  13.392  0.0288 -0.0587 -0.0274
14149W        W29958  18.419   2.049   4.726  0.4074  0.5825  0.0047
14150W        W29959   1.140   8.319  13.474  0.4407 -0.1921 -0.4186
14151W        W29960   5.913   3.801  14.419  0.2912  0.3333 -0.3443
14152W        W29961   4.739   8.222  11.592 -0.1299 -0.1272  0.1253
14153W        W29962  13.118  16.754   1.872  0.2115  0.0161  0.3458
14154W        W29963   4.961   0.204  14.408  0.0697  0.1285  0.1572
14155W        W29964  17.732   5.746   0.229  0.0111 -0.1042  0.0547
14156W        W29965  10.959  14.244   5.409 -0.2450 -0.1457 -0.0622
14157W        W29966   4.577  14.655  10.964 -0.0964  0.0028  0.0780
14158W        W29967   1.071   1.056   2.780  0.3699 -0.1095  0.2323
14159W        W29968   7.280   8.470   4.768 -0.1968  0.0861 -0.2996
14160W        W29969  11.646   7.135   1.288 -0.1863  0.1767 -0.2279
14161W        W29970  13.645  15.630   4.843  0.2582 -0.2097 -0.1514
14162W        W29971   4.714   7.800  10.634 -0.0452 -0.1254 -0.1170
14163W        W29972   2.445   6.156  15.655 -0.0266 -0.0282  0.0569
14164W        W29973   3.443   6.611   4.264  0.0694  0.0582 -0.0636
14165W        W29974   6.590  13.411   0.836  0.0275 -0.3453 -0.1069
14166W        W29975   3.026  13.684   5.321  0.0644  0.0643  0.0888
14167W        W29976   1.858   3.859   0.575  0.0573 -0.1853 -0.0166
14168W        W29977  10.347   8.218  13.154  0.0082 -0.1643 -0.2754
14169W        W29978   1.152   7.588   4.917 -0.2461 -0.0339  0.0304
14170W        W29979   6.218   8.734   0.469 -0.3021  0.0279  0.0610
14171W        W29980  12.029   7.548   2.737  0.3962 -0.2008  0.0256
14172W        W29981  16.962  18.381  12.487 -0.1415  0.0405 -0.2240
14173W        W29982   7.267  11.893   3.352  0.1555  0.1393 -0.0536
14174W        W29983   2.311   8.201   4.443  0.0141 -0.1973  0.1681
14175W        W29984  12.676   1.385  11.165 -0.0833  0.1834 -0.0780
14176W        W29985   2.660   3.845   2.687 -0.2069  0.4085 -0.0937
14177W        W29986   5.258   1.982   2.429 -0.1236 -0.1215  0.0394
14178W        W29987  17.860   0.629  14.279  0.2081  0.0284 -0.1565
14179W        W29988   6.721  10.032   2.097 -0.0921  0.0171 -0.0380
14180W        W29989  11.868  11.376   0.844 -0.1097  0.0086 -0.1587
14181W        W29990  13.530  14.688   0.200  0.1879  0.1728  0.2698
14182W        W29991   2.126   0.963   5.123  0.0879 -0.2828 -0.0933
14183W        W29992  14.452  10.718  11.790 -0.0025  0.2445  0.3166
14184W        W29993   5.197   9.085  12.807  0.0467 -0.2172  0.3445
14185W        W29994   6.298   5.609   4.696 -0.1053  0.2042 -0.2440
14186W        W29995  10.464  11.501   0.900 -0.0509  0.0566  0.2431
14187W        W29996   6.296   5.251   1.314  0.0814 -0.0642 -0.1588
14188W        W29997  14.462   8.136  15.286 -0.0907 -0.3829  0.2398
14189W        W29998  11.303   4.957  11.344 -0.0443  0.2100  0.0407
14190W        W29999  12.396   5.424  15.277 -0.4135 -0.2851  0.1908
14191W        W30000   2.957  14.697   0.179  0.1030  0.1026  0.0700
14192W        W30001  13.932  11.886  12.734  0.1778 -0.1212 -0.2941
14193W        W30002   4.980   5.332  10.647 -0.1894  0.2923 -0.1711
14194W        W30003   4.235  17.627   1.606 -0.2507  0.0440  0.2114
14195W        W30004   6.473  17.989   4.358  0.1995 -0.0039 -0.0559
14196W        W30005  14.331   5.092  12.111 -0.1877 -0.1673  0.1189
14197W        W30006  16.152   6.735  13.694 -0.1022  0.1091 -0.0322
14198W        W30007   8.975   1.974  11.670  0.0213 -0.2795  0.2009
14199W        W30008  12.363  10.421  14.069  0.1301 -0.0707 -0.1153
14200W        W30009   8.036  15.041  10.365 -0.1512 -0.2199 -0.2048
14201W        W30010   4.197   7.173   2.396  0.1791  0.3599  0.1228
14202W        W30011  10.072  16.284   1.637 -0.1998  0.1572 -0.1874
14203W        W30012  10.908   1.609  15.816 -0.0059  0.2853 -0.2968
14204W        W30013   6.110  11.537   5.142  0.1090 -0.0401 -0.0711
14205W        W30014  15.492   2.729  14.493  0.0277 -0.2119  0.3092
14206W        W30015   2.227   5.691  13.559 -0.0089  0.1017 -0.0952
14207W        W30016   3.484  16.638   3.526  0.1401 -0.1106  0.3532
14208W        W30017   7.872  12.047   2.617 -0.0046 -0.1366  0.0921
14209W        W30018  12.647   3.301  14.765 -0.2123 -0.0051  0.0808
14210W        W30019   0.839  14.694  11.749 -0.1162 -0.1680 -0.3746
14211W        W30020   9.545  17.687  13.387 -0.2877 -0.0467  0.2452
14212W        W30021  17.015   6.183   0.833 -0.1197 -0.1457 -0.1126
14213W        W30022  11.974  11.264   1.899  0.0270  0.2817 -0.0364
14214W        W30023   5.618   0.342   2.356  0.2673  0.1451 -0.0079
14215W        W30024  18.132  14.310  12.425 -0.1977  0.1289 -0.3999
14216W        W30025   3.272   5.280   4.004 -0.1120 -0.1123  0.0486
14217W        W30026  14.135  11.358   1.328  0.0806 -0.2473 -0.2235
14218W        W30027   4.437   0.544  10.891 -0.0589  0.1788 -0.0042
14219W        W30028  14.592   9.653  13.486  0.2075  0.4253  0.0156
14220W        W30029   5.381   2.497   3.119 -0.1396 -0.1894  0.4148
14221W        W30030   7.003   4.882  13.224 -0.0005 -0.0992 -0.1295
14222W        W30031   9.193   4.388   4.099  0.0995  0.0390  0.1233
14223W        W30032  10.560  10.526   5.442 -0.0452  0.1293  0.2363
14224W        W30033   0.303   6.213  12.256  0.0810 -0.0672 -0.1191
14225W        W30034   1.137  16.837  10.972  0.1311 -0.2139 -0.1326
14226W        W30035   4.137  13.335   3.561 -0.0300 -0.1962  0.1370
14227W        W30036   6.704  11.542  10.999  0.1797 -0.0997  0.0791
14228W        W30037   1.767   1.251   0.097  0.0900  0.1699 -0.0680
14229W        W30038  12.998  11.748  14.842  0.0894 -0.1353 -0.0521
14230W        W30039   8.749   2.281   4.602  0.0476  0.1048 -0.2078
14231W        W30040  15.345  13.967   3.859  0.0295 -0.4166  0.3400
14232W        W30041  17.399   5.836   3.861 -0.1958 -0.1935 -0.1078
14233W        W30042   5.436   4.408   4.618  0.2084  0.1856 -0.0140
14234W        W30043   4.796  14.504  15.240  0.1464  0.0968  0.1303
14235W        W30044   8.239   3.416  11.817 -0.3372  0.1944 -0.0627
14236W        W30045  14.703   6.981  15.830 -0.1154  0.0954 -0.1025
14237W        W30046  14.962   6.048  13.902  0.1705  0.0481  0.2229
14238W        W30047  11.791  17.357  12.639 -0.2500 -0.1829 -0.2031
14239W        W30048   5.713  16.905  12.099 -0.1774  0.1238 -0.1001
14240W        W30049   0.567  11.279   5.374  0.3110 -0.0260  0.1729
14241W        W30050  17.775   7.144   5.328  0.3765  0.1347 -0.2384
14242W        W30051  11.197   3.962   0.915 -0.0501  0.1601  0.0783
14243W        W30052   7.011  10.865  13.677  0.0672 -0.1201  0.1830
14244W        W30053  10.628   8.576   0.924 -0.3315  0.1649  0.1786
14245W        W30054  16.822   3.886   4.221 -0.0635  0.1666  0.1581
14246W        W30055  13.441  16.271  12.696  0.0063  0.0364  0.1333
14247W        W30056   7.988   4.227   1.839 -0.2529 -0.2096 -0.1299
14248W        W30057  11.247  14.346  12.857  0.0452  0.1246 -0.0090
14249W        W30058  14.169   9.453  12.233  0.0334 -0.0166  0.0776
14250W        W30059   6.523   0.845  15.432  0.0528 -0.0529  0.0742
14251W        W30060  16.858   1.493  11.401  0.1337  0.0216 -0.0761
14252W        W30061  14.613   1.482   4.186 -0.1077  0.0332 -0.0596
14253W        W30062  10.584  15.239  14.359 -0.1716 -0.0819  0.1164
14254W        W30063   3.001  17.079   0.258 -0.0114  0.0320 -0.1599
14255W        W30064  17.674  15.945   2.829 -0.0737 -0.2480 -0.1161
14256W        W30065   8.848   4.555  15.646  0.0770 -0.0582 -0.0398
14257W        W30066   2.016   9.909  12.568  0.2421 -0.0328  0.0860
14258W        W30067   1.560   8.456  13.244 -0.2205 -0.0055 -0.2951
14259W        W30068   6.834  12.690   4.323 -0.0961 -0.0620  0.0296
14260W        W30069  17.770   5.380   4.241 -0.1017 -0.1753  0.1665
14261W        W30070   7.881  16.031  12.865  0.0512  0.0735 -0.2274
14262W        W30071   6.005  10.184   1.579  0.1619 -0.0126  0.0988
14263W        W30072  18.461   4.925   2.221 -0.1123 -0.0388  0.1223
14264W        W30073  17.656  17.262  11.976 -0.2633  0.0781 -0.0305
14265W        W30074   8.697  17.294  13.020  0.0801 -0.2145  0.0081
14266W        W30075  10.855  16.062   1.371  0.2740  0.1824  0.1904
14267W        W30076   1.603   8.089  13.702 -0.0157 -0.4845 -0.0925
14268W        W30077  11.570   5.277   2.394  0.2536  0.1714  0.0263
14269W        W30078   5.118   3.555   0.483  0.0996  0.2530  0.1295
14270W        W30079   9.169   0.775   5.971  0.0678 -0.0398  0.0691
14271W        W30080  17.236   0.012   2.661 -0.0699  0.0287 -0.0104
14272W        W30081   1.457   9.382   0.952 -0.0649 -0.1063  0.1719
14273W        W30082   5.105  12.469   3.822 -0.1811 -0.2098 -0.1511
14274W        W30083   2.829  12.351   1.757 -0.0802  0.0870 -0.3199
14275W        W30084   8.842   8.566   4.062 -0.1912 -0.4042  0.2237
14276W        W30085  18.212  14.513   3.082  0.0511  0.3277  0.0139
14277W        W30086   9.703  13.696  14.303  0.1014 -0.2037  0.2012
14278W        W30087   2.888   0.818   4.687  0.2520  0.0998 -0.0717
14279W        W30088   5.644  14.247  15.463  0.1136  0.0759 -0.1510
14280W        W30089   1.840  10.467  14.670 -0.1943 -0.0137 -0.0052
14281W        W30090  14.478  11.999   4.284  0.2634  0.0937  0.0748
14282W        W30091  15.427   4.353  15.086  0.2592  0.0499 -0.0425
14283W        W30092   0.750  15.141  13.581  0.0302  0.3115 -0.0722
14284W        W30093   7.389   5.479  10.623 -0.3912 -0.0072  0.1948
14285W        W30094  13.734  13.811   0.902 -0.0614  0.1319  0.0530
14286W        W30095   6.534  16.432  12.182  0.2943 -0.0924  0.0286
14287W        W30096  16.572   4.889  12.692 -0.2039  0.0368 -0.2291
14288W        W30097   5.770  11.221  11.870  0.0448 -0.0603 -0.0048
14289W        W30098  12.543   3.772   4.384 -0.0734  0.2507 -0.5259
14290W        W30099   9.589  11.259   1.870  0.0096  0.2741 -0.0392
14291W        W30100  15.026  17.437  12.869  0.2188  0.3222 -0.0040
14292W        W30101  15.260  17.159  14.194 -0.1654 -0.0462 -0.0857
14293W        W30102   1.824  13.968  12.707  0.0848  0.0214  0.0520
14294W        W30103  16.303  16.426  14.824 -0.1895 -0.0957 -0.5817
14295W        W30104   5.747   8.655   0.236 -0.2775 -0.4454  0.0781
14296W        W30105   4.284   9.253  12.386  0.0951  0.4692 -0.2052
14297W        W30106  15.976  15.186  15.202  0.2270  0.1735  0.4331
14298W        W30107  16.125   1.190   4.865 -0.2547 -0.0496 -0.3063
14299W        W30108   1.419   3.429   4.691 -0.1060 -0.1133 -0.2568
14300W        W30109   7.419   6.948  11.133  0.1106  0.0039 -0.0816
14301W        W30110   3.070  16.409   5.171  0.1374 -0.1405 -0.2169
14302W        W30111  13.673  15.607   1.207  0.0618  0.0944 -0.0472
14303W        W30112   8.473  16.784   3.580 -0.0200 -0.0276 -0.1242
14304W        W30113  10.597  13.312   2.017 -0.0687  0.0438  0.0091
14305W        W30114  13.883  12.093   4.338 -0.4107  0.2267  0.2762
14306W        W30115  17.377   7.056  14.813  0.1552  0.0617 -0.1419
14307W        W30116   4.831   2.060   1.275 -0.0622 -0.0974 -0.0215
14308W        W30117   7.893   4.698   1.647 -0.0376 -0.2061 -0.1037
14309W        W30118   3.441   3.870   1.242  0.1537 -0.0020 -0.1017
14310W        W30119  13.189   8.918   1.836  0.0161 -0.0753  0.0747
14311W        W30120   7.462   0.400   4.579 -0.0949  0.2606 -0.3084
14312W        W30121   3.491   4.822   0.605 -0.1353 -0.0339 -0.2918
14313W        W30122   4.906  14.652  13.681  0.0693  0.1342 -0.1711
14314W        W30123   2.197  13.531   1.112 -0.2621  0.0650 -0.1677
14315W        W30124   1.235  15.736  12.630  0.4112  0.2124  0.3019
14316W        W30125   5.189  13.596  13.493 -0.1510 -0.0506 -0.0088
14317W        W30126  17.966   3.409  11.056 -0.0490  0.1524 -0.0430
14318W        W30127   4.757   0.982  13.966  0.1351 -0.0050  0.1024
14319W        W30128   5.381   6.981   5.352 -0.1660  0.1905  0.0932
14320W        W30129   1.531  12.779   2.583  0.2043  0.0457 -0.1084
14321W        W30130   2.972   6.607  12.932 -0.1849 -0.0475 -0.0488
14322W        W30131  14.533  16.575  14.373  0.0332  0.2604 -0.2805
14323W        W30132  11.655  18.245   5.000 -0.1290 -0.0818  0.1244
14324W        W30133  12.402  17.315   4.455  0.2122  0.0876  0.0415
14325W        W30134  12.170  13.275   5.216 -0.1242  0.1079 -0.2887
14326W        W30135   6.203  10.251  11.289 -0.2338 -0.2318  0.0376
14327W        W30136   1.154  10.904  13.294 -0.1958 -0.0462 -0.0479
14328W        W30137   6.332  16.935  10.955  0.0162  0.1839  0.0162
14329W        W30138   1.963  13.249   4.220  0.2734 -0.0220 -0.0871
14330W        W30139   1.092   6.549   0.130  0.0830  0.1425 -0.3335
14331W        W30140   8.592   6.879  12.225  0.1362 -0.2163  0.0402
14332W        W30141  13.962  16.857   2.550  0.2134  0.0188 -0.0276
14333W        W30142   1.521   7.428   0.106 -0.0941  0.2727  0.1786
14334W        W30143  13.478  11.325   1.042 -0.0480 -0.2257 -0.2121
14335W        W30144  11.350   5.671  14.445  0.0753 -0.0918 -0.0169
14336W        W30145  10.951   7.530  12.233  0.2676 -0.2605 -0.3048
14337W        W30146   3.558   7.173   0.655 -0.3209  0.0826  0.3611
14338W        W30147  11.322   7.099  13.884 -0.1098 -0.0567 -0.0882
14339W        W30148   4.656   3.031   3.436  0.1207 -0.1268 -0.2543
14340W        W30149  16.792   9.786   0.581 -0.1395 -0.1308 -0.2609
14341W        W30150  15.224   8.111  13.903 -0.0368  0.0433  0.2261
14342W        W30151   1.640   9.182   3.400 -0.0294  0.0978 -0.0064
14343W        W30152   1.217   0.696  11.837  0.0422 -0.3123 -0.2204
14344W        W30153   8.109   2.211  14.999  0.1077  0.1687  0.1293
14345W        W30154   3.494  10.332  12.719 -0.1537 -0.1049 -0.0480
14346W        W30155  15.769   1.973  13.792 -0.0963  0.2079 -0.3341
14347W        W30156   1.846  10.363  12.727 -0.2202 -0.0467 -0.2249
14348W        W30157  18.461   6.534   1.935  0.2877 -0.0653 -0.2710
14349W        W30158   1.182  17.427   2.817 -0.1911  0.1506 -0.0169
14350W        W30159  16.706  15.135   4.893 -0.0369 -0.1841 -0.0507
14351W        W30160  11.814  12.100   2.616  0.2677  0.1410  0.0850
14352W        W30161   0.442  14.790   1.586  0.0230 -0.3339 -0.1734
14353W        W30162   9.046   8.789  14.692 -0.2230 -0.1316  0.0526
14354W        W30163  14.858   6.120   5.217 -0.0654 -0.1746  0.0198
14355W        W30164   3.536   3.064  13.660 -0.2319  0.0263 -0.0710
14356W        W30165  14.643   3.800   3.360  0.0240  0.0607  0.1401
14357W        W30166   0.481  14.075   3.688 -0.0072  0.0201  0.3247
14358W        W30167   5.893   4.180  10.678  0.1749  0.0510 -0.1021
14359W        W30168  12.806   1.990  12.310 -0.1160  0.1188 -0.0281
14360W        W30169   2.403   9.966  11.128 -0.3705  0.0278  0.1663
14361W        W30170  18.004  16.678  13.352 -0.1626 -0.2474  0.0215
14362W        W30171  13.866  13.995  10.231  0.1720  0.0791 -0.0752
14363W        W30172  11.477   4.514  15.022 -0.1396  0.2129  0.0862
14364W        W30173   6.529  10.990  14.637  0.0721  0.0742  0.2906
14365W        W30174  16.696  17.536   0.299  0.0228  0.1447 -0.3337
14366W        W30175  14.093   9.693   3.844  0.2990 -0.3514 -0.0164
14367W        W30176   2.124   3.203  14.801  0.1674 -0.0369 -0.0597
14368W        W30177   2.267   1.995  11.550 -0.1374 -0.0910  0.1399
14369W        W30178   8.156  11.954   4.397  0.0519  0.0294  0.1671
14370W        W30179   8.926  14.242  15.530 -0.1750  0.4045  0.1504
14371W        W30180  12.813   8.706   0.669  0.0873 -0.1486  0.3024
14372W        W30181  17.832  11.303   2.956 -0.2086 -0.0423  0.1264
14373W        W30182   8.499   5.539   2.568 -0.1285  0.6452  0.2380
14374W        W30183   0.408   1.496  10.604 -0.1087  0.2877 -0.0286
14375W        W30184  16.668  13.075   2.004  0.0433  0.4245  0.2888
14376W        W30185   8.442   2.316  13.300  0.1419  0.0339  0.1703
14377W        W30186   6.034   2.065   2.419  0.3396  0.1073  0.0062
14378W        W30187   9.290  14.810   4.074  0.1211 -0.2998  0.1390
14379W        W30188  15.415   1.929   3.629 -0.2311  0.0423 -0.0301
14380W        W30189   6.532   3.478  12.681 -0.2560 -0.2349 -0.0369
14381W        W30190   9.853   6.796  11.062 -0.0196  0.0666 -0.0285
14382W        W30191   6.900   4.068   3.412  0.1499 -0.3379  0.1639
14383W        W30192  12.706  17.360  11.592  0.2682 -0.2135 -0.2510
14384W        W30193  11.772   1.153  14.357 -0.2041 -0.1012  0.0148
14385W        W30194   1.641  15.283   3.239  0.0229 -0.3818  0.0042
14386W        W30195  17.871   7.598   2.826 -0.2244 -0.1225  0.0697
14387W        W30196  14.920  13.520   3.140 -0.0701 -0.2778 -0.2466
14388W        W30197   8.017   7.310   3.686  0.1527 -0.1691 -0.2864
14389W        W30198   5.364  14.804   3.024 -0.2880 -0.2447  0.1942
14390W        W30199   7.003  10.365  12.465 -0.1434 -0.1938 -0.3364
14391W        W30200   2.976  16.633   3.432 -0.1407  0.3739 -0.0601
14392W        W30201   2.806  16.284  12.263 -0.0302  0.1863  0.1102
14393W        W30202  11.370  10.573  12.451  0.2100 -0.1391 -0.0747
14394W        W30203   5.588   5.725   3.523  0.0075  0.0856 -0.2208
14395W        W30204  12.704  10.470   0.119 -0.0277  0.0750 -0.1833
14396W        W30205  13.225  10.585  13.324 -0.2639  0.1764 -0.4528
14397W        W30206  15.606   6.416   5.371 -0.4471  0.1428  0.1846
14398W        W30207   4.272   2.711   4.222 -0.1399  0.0144  0.0934
14399W        W30208  17.829   1.112   1.835 -0.1482 -0.1777  0.1160
14400W        W30209   2.575  10.360   1.102  0.0740  0.1273 -0.0084
14401W        W30210  15.490   1.486   2.073  0.0874  0.2761  0.5100
14402W        W30211  11.321  12.397  15.853 -0.0665 -0.1791  0.1713
14403W        W30212   1.750  10.585   4.926 -0.0511  0.1418  0.1793
14404W        W30213  15.004   0.694   3.139 -0.0221 -0.0659  0.0076
14405W        W30214   5.163   4.076  12.887  0.3499  0.1051 -0.0771
14406W        W30215   4.275   8.316  13.227 -0.0376 -0.2221 -0.1422
14407W        W30216  15.606   1.515  11.140 -0.2602 -0.1371  0.0790
14408W        W30217  18.268  13.735  12.197 -0.0102  0.2540 -0.0218
14409W        W30218  11.719   8.496   2.839 -0.1289 -0.0867  0.2249
14410W        W30219   3.646  15.161   4.046  0.1778 -0.2817 -0.0722
14411W        W30220   3.117   3.269  13.523 -0.1363 -0.0196 -0.1974
14412W        W30221   0.184  10.190   0.971 -0.1057 -0.1986  0.1015
14413W        W30222   9.060  11.220   1.093 -0.0653 -0.1923 -0.0808
14414W        W30223   0.303   1.260  12.329 -0.2868  0.1432 -0.0699
14415W        W30224   1.331   3.727   2.561  0.2502 -0.1821  0.2469
14416W        W30225   1.395   8.497   4.962 -0.1428  0.0372 -0.0439
14417W        W30226  15.970   0.357   2.850  0.0177 -0.1601 -0.0246
14418W        W30227   7.447  15.949   1.130  0.2394 -0.0097 -0.2462
14419W        W30228   1.688  12.767   0.120  0.0883 -0.0641 -0.0737
14420W        W30229   2.907   3.094  15.243  0.0862  0.3102 -0.3029
14421W        W30230  10.710   7.257  12.785 -0.2244  0.1214  0.2188
14422W        W30231  14.018   8.705   3.009 -0.1735 -0.1523  0.1921
14423W        W30232  18.283  17.956  13.708 -0.0056 -0.1558  0.2386
14424W        W30233  13.196  10.659  14.792 -0.0670 -0.2626  0.1407
14425W        W30234  14.262  14.696  15.587  0.1168  0.2826 -0.1775
14426W        W30235  10.528  14.771  14.139 -0.0587  0.2273 -0.1041
14427W        W30236   5.349  13.340  13.972 -0.0253  0.2873 -0.2234
14428W        W30237  13.805  13.162   3.505 -0.0112  0.1660 -0.0219
14429W        W30238   3.302   7.282  14.302 -0.2051 -0.3196  0.2968
14430W        W30239  12.217   9.307  10.716  0.0959 -0.0523  0.1491
14431W        W30240   8.797   8.294  12.386  0.1942 -0.2099 -0.0255
14432W        W30241  15.933  15.248  11.543  0.4324 -0.1750  0.2301
14433W        W30242   5.343  14.984   3.952 -0.1695  0.1116 -0.1805
14434W        W30243   2.099  12.495   0.178 -0.4459 -0.3015 -0.0000
14435W        W30244   1.939   8.561  14.773 -0.0264 -0.0659  0.4048
14436W        W30245  17.852  10.269   0.024 -0.0318 -0.3254 -0.0144
14437W        W30246   3.716   9.932  12.989  0.0968 -0.2208  0.0191
14438W        W30247   7.563  13.033  10.533 -0.3373  0.0881  0.1227
14439W        W30248  13.529  10.675   2.875 -0.3272  0.1509 -0.2151
14440W        W30249  17.689  12.844  13.756  0.2959 -0.5910 -0.0613
14441W        W30250  12.240  12.822  11.596 -0.0936 -0.1280  0.0958
14442W        W30251  13.967   6.033   2.470  0.2514 -0.1690  0.0262
14443W        W30252   1.554   5.591   5.302 -0.0467 -0.0588  0.1508
14444W        W30253   6.334   7.019   1.652  0.2217  0.1577  0.3073
14445W        W30254   2.150   1.484  14.525  0.0536  0.0437  0.0717
14446W        W30255  10.453   1.495   4.959 -0.0180  0.0279  0.1560
14447W        W30256  10.152   5.178   1.934 -0.5087 -0.0173  0.4079
14448W        W30257  16.280   6.811   2.929 -0.2410  0.0495  0.1222
14449W        W30258  12.269   3.205  10.066  0.0265 -0.2338  0.3360
14450W        W30259   6.412  14.167  13.241  0.0635  0.0367 -0.1769
14451W        W30260  14.711   9.759  14.430  0.2543  0.1250  0.1757
14452W        W30261  10.889   3.466   2.500  0.3966  0.1553  0.3497
14453W        W30262  18.112   5.467   2.889 -0.3305 -0.2225 -0.1156
14454W        W30263  17.557   8.481  14.928  0.1041 -0.1563  0.2713
14455W        W30264   1.201   3.513  14.205  0.0623 -0.3619  0.1365
14456W        W30265   8.165   5.086  14.288  0.3193 -0.0157  0.0248
14457W        W30266  18.408  11.206   3.164  0.2302  0.1410  0.0160
14458W        W30267  11.727   1.016  11.461  0.1559  0.1756 -0.0246
14459W        W30268  10.197  11.450  14.980 -0.2017  0.2328 -0.1634
14460W        W30269  14.494  17.362   4.254 -0.0870  0.2022 -0.1607
14461W        W30270  11.093  12.679   2.523  0.0781  0.0991 -0.0072
14462W        W30271   4.761   0.527  14.767 -0.0385  0.1940  0.0185
14463W        W30272   2.240  15.810  15.287  0.1506 -0.4064  0.0681
14464W        W30273  14.219   2.666  14.192  0.1444 -0.1086 -0.0956
14465W        W30274  14.216  16.702   0.469 -0.0423 -0.0587  0.0092
14466W        W30275   7.121  17.120  14.711  0.0962  0.0399  0.2959
14467W        W30276  10.782   3.611  11.203  0.3587  0.0141 -0.1179
14468W        W30277   0.154   9.312   4.296  0.2199 -0.3000 -0.1518
14469W        W30278   2.536  11.788   3.318 -0.0384 -0.1670 -0.3221
14470W        W30279   3.125   7.066   4.010 -0.2172  0.1213  0.1644
14471W        W30280   5.484  16.448  12.187  0.1158  0.2424 -0.0240
14472W        W30281  11.687  13.271   3.928 -0.0263 -0.1893 -0.1046
14473W        W30282  11.191   7.041  12.347 -0.1747 -0.0753 -0.2433
14474W        W30283   8.919   1.814   1.522 -0.0433  0.1645 -0.0654
14475W        W30284   7.302   5.498   3.970 -0.0712  0.0767  0.0623
14476W        W30285   4.567  18.388  14.699  0.0977 -0.1157  0.0980
14477W        W30286  14.946  16.458  12.943  0.1702  0.1934  0.1799
14478W        W30287  16.295  15.940   5.271  0.1763  0.0014 -0.1612
14479W        W30288   8.473  12.531  15.573  0.0380  0.1514  0.0071
14480W        W30289  14.609   5.322  15.218 -0.2558 -0.1930 -0.1154
14481W        W30290   2.424  11.115   2.254 -0.0518  0.3039  0.1856
14482W        W30291   5.924   8.272   4.578 -0.1253 -0.1879 -0.0636
14483W        W30292   5.992   9.275  14.418 -0.4607  0.0224 -0.0711
14484W        W30293  16.874  11.115   3.734  0.0588 -0.1193 -0.0461
14485W        W30294  11.903   5.966   1.712  0.1328  0.1388 -0.1673
14486W        W30295   3.161   8.853   0.736  0.0555 -0.1455  0.0301
14487W        W30296   0.319  12.701   3.498 -0.1645 -0.1581  0.0091
14488W        W30297   8.934  17.042  14.343  0.1086 -0.1527  0.1258
14489W        W30298  11.285   6.153  14.434 -0.2956  0.0553 -0.4178
14490W        W30299   7.975  17.577  13.385  0.0741  0.1427  0.0918
14491W        W30300  14.678   5.765   1.588 -0.3772  0.1475  0.2734
14492W        W30301   8.852   8.803   2.652 -0.0027 -0.0797  0.0046
14493W        W30302   0.884   3.519   4.732 -0.0884 -0.1277  0.0669
14494W        W30303   7.366   5.622  14.806  0.0621 -0.0240  0.0150
14495W        W30304   2.555  18.137   5.585 -0.2918 -0.0825 -0.2992
14496W        W30305  18.239  10.458  13.338  0.0095 -0.0425  0.0454
14497W        W30306   0.175   8.191   2.179 -0.1260 -0.1449 -0.0711
14498W        W30307  18.279   3.189   0.882 -0.0693 -0.0852  0.1390
14499W        W30308   0.997   0.075  12.209 -0.0360  0.1465 -0.1094
14500W        W30309   9.849  15.841   3.757 -0.1998 -0.3154  0.0550
14501W        W30310   1.179  14.749   1.361  0.0403  0.2475  0.2127
14502W        W30311  15.300   0.582   0.499 -0.0179 -0.0444  0.2525
14503W        W30312  13.572   2.506  14.132  0.1652  0.0906 -0.0144
14504W        W30313   0.352  15.237   4.379  0.0060 -0.0961  0.1192
14505W        W30314   6.360   1.520   3.018 -0.1121 -0.1366  0.1063
14506W        W30315  10.313  15.723  13.884  0.2656 -0.1548  0.1101
14507W        W30316   2.084  12.148   2.123  0.4011  0.1290  0.1260
14508W        W30317   7.676  14.676  14.964 -0.1123 -0.1070 -0.0460
14509W        W30318  16.603  15.338  15.600  0.0027 -0.2146  0.3071
14510W        W30319  16.011   3.741   5.645 -0.1357 -0.3494 -0.2009
14511W        W30320   9.858   0.711  11.763  0.2594  0.0208  0.2353
14512W        W30321   2.920   4.946   5.352 -0.0063  0.1479  0.1908
14513W        W30322   8.770   8.602   5.371  0.1670  0.1621 -0.2114
14514W        W30323   8.719  18.168   3.157  0.1043  0.0135  0.2208
14515W        W30324   1.346  10.629   3.298 -0.4106  0.0249  0.0044
14516W        W30325   3.150  17.692   4.884  0.1579 -0.0704  0.2075
14517W        W30326   2.415   1.001   2.798 -0.2580  0.4857  0.0028
14518W        W30327  18.117  11.784   2.316 -0.1850 -0.1368 -0.0125
14519W        W30328  14.545   7.614  12.090  0.1534  0.0614 -0.3107
14520W        W30329   0.976   6.498  13.605  0.0138 -0.1113 -0.0714
14521W        W30330  11.291  14.629   3.587  0.2982  0.1831  0.4600
14522W        W30331   8.598   7.811   4.324 -0.3005 -0.1395  0.0681
14523W        W30332   6.765  14.544  15.339  0.1380 -0.0628  0.0450
14524W        W30333   4.160  11.700  11.880  0.1059 -0.2700  0.1373
14525W        W30334  16.216  10.182   1.633  0.1220  0.0331  0.2031
14526W        W30335   2.680   7.820  12.261 -0.0606 -0.0350 -0.2306
14527W        W30336  18.256  16.652  10.680 -0.3030  0.1967  0.0008
14528W        W30337   0.646  15.728  11.095  0.0405  0.4497 -0.3411
14529W        W30338  10.033   9.896   1.705  0.1343 -0.2952  0.1477
14530W        W30339   4.570  10.506   3.013  0.1453  0.1588  0.0368
14531W        W30340  17.362  16.827  13.897  0.2517  0.0283  0.1883
14532W        W30341  11.970  10.282   3.222 -0.0760  0.0797 -0.2488
14533W        W30342  15.337   3.544   4.865  0.2686 -0.0725  0.2650
14534W        W30343   1.730  17.535  14.244  0.0381 -0.0435 -0.0350
14535W        W30344   8.054  14.440  14.701 -0.1187  0.2231  0.1280
14536W        W30345   0.471   6.458   4.851 -0.1971 -0.1795 -0.2420
14537W        W30346  15.909  11.930  11.700 -0.0692  0.3789 -0.1173
14538W        W30347  17.667  15.171   5.931 -0.3257  0.2262  0.0653
14539W        W30348   3.465   0.011  13.843 -0.1437  0.4227 -0.0410
14540W        W30349  12.536   0.602   2.235  0.0615 -0.0960  0.0800
14541W        W30350  14.174  12.318  13.887 -0.1357  0.3128  0.0107
14542W        W30351   5.548   7.055  13.414 -0.0318 -0.2724 -0.1796
14543W        W30352   8.080  15.682   5.296 -0.3618 -0.1216  0.0544
14544W        W30353   3.027   2.837  15.707  0.0082 -0.1766  0.3385
14545W        W30354  13.291   1.271  15.108  0.0394  0.0667  0.3011
14546W        W30355   8.306  15.161   3.376  0.0791  0.3642  0.0340
14547W        W30356   1.568   9.749   5.322 -0.1385 -0.0641 -0.0101
14548W        W30357   5.944  18.141  14.975  0.2583  0.0408  0.0750
14549W        W30358   6.439   3.571   2.271 -0.0595  0.0152  0.1407
14550W        W30359  11.319   0.992  14.324 -0.2515  0.2878  0.1392
14551W        W30360  14.405  17.871  15.321 -0.0840 -0.1671  0.2615
14552W        W30361   0.145  16.167  13.632  0.1173  0.1281  0.1355
14553W        W30362   3.454   1.472  15.796 -0.1469 -0.2336 -0.0899
14554W        W30363   8.668  16.224  10.926  0.1453 -0.1021 -0.0376
14555W        W30364  11.591  14.026  11.176 -0.1293 -0.0531 -0.0236
14556W        W30365   7.454   8.874   1.640  0.1405 -0.0005 -0.2436
14557W        W30366   1.763   2.805   4.211 -0.3154  0.0506  0.0313
14558W        W30367   6.535   5.080   4.023 -0.1446 -0.1422  0.4536
14559W        W30368  18.334   1.609  10.110  0.0501  0.2378 -0.0572
14560W        W30369   3.046   4.329   3.682 -0.3862  0.2931 -0.2926
14561W        W30370  12.020   9.363   3.401 -0.3097  0.1564  0.1975
14562W        W30371   3.929  14.563  11.061  0.2886 -0.2183 -0.3471
14563W        W30372   9.364   9.524  12.538  0.2904  0.0908 -0.2157
14564W        W30373  14.051   1.450  12.244  0.0557  0.0674  0.1567
14565W        W30374  13.483  17.278  10.963 -0.1966  0.0090  0.1499
14566W        W30375   1.840  14.314  12.330 -0.0575  0.2254  0.0316
14567W        W30376  11.252  14.162  12.376 -0.2962 -0.1153  0.1878
14568W        W30377   0.512  12.718  13.612 -0.0757 -0.0093  0.0230
14569W        W30378   4.334   4.580  15.586  0.4831  0.2842 -0.0402
14570W        W30379   2.706   6.514  11.246  0.0580 -0.3233 -0.0820
14571W        W30380  14.835   3.851  10.976  0.3034  0.0972  0.0483
14572W        W30381  11.824  12.528   6.346 -0.3108  0.3410 -0.0593
14573W        W30382   5.240   0.189   5.037 -0.2056 -0.1192 -0.2846
14574W        W30383   6.241  15.452   3.025  0.1697  0.0009 -0.3074
14575W        W30384   8.510  12.753   5.210 -0.0179 -0.0084 -0.0283
14576W        W30385  11.065  16.306  14.877  0.0570 -0.0361 -0.0652
14577W        W30386  14.475   7.997   2.039  0.0829  0.0327  0.0373
14578W        W30387  13.461   6.562   5.140  0.0809  0.2065 -0.1491
14579W        W30388   0.728   6.171   3.940 -0.1274 -0.0689  0.0560
14580W        W30389  11.211   0.213   3.924  0.0274 -0.0578  0.2938
14581W        W30390   8.105  12.929  11.786 -0.0044 -0.2211 -0.0569
14582W        W30391   9.520   2.983   3.724 -0.1666  0.0501  0.1176
14583W        W30392  11.208   6.622   4.570  0.0680 -0.2720  0.3508
14584W        W30393   0.086   9.865   3.825  0.2407 -0.2565 -0.0207
14585W        W30394   0.270  10.689  12.434 -0.2807  0.3238 -0.0994
14586W        W30395  10.774   2.745  12.982  0.1801 -0.0490 -0.0209
14587W        W30396  16.875   7.935   6.293  0.1813  0.2617 -0.3936
14588W        W30397   7.147   3.363   0.649  0.0797 -0.5058 -0.1696
14589W        W30398   4.317   9.527   2.745  0.0026 -0.0229  0.1395
14590W        W30399  17.703   7.660   6.054 -0.0171 -0.0847  0.0722
14591W        W30400  15.828   4.528  13.326  0.4763  0.1869  0.0283
14592W        W30401  17.364   3.082   2.343  0.1724  0.1695 -0.0178
14593W        W30402   4.457  17.154  11.975  0.2052  0.1869  0.0317
14594W        W30403   2.988   3.512   4.231  0.0664 -0.4695  0.1091
14595W        W30404  13.513   5.195  12.435 -0.0818 -0.2537  0.2394
14596W        W30405   8.793   7.030   3.594  0.0101  0.2314 -0.0971
14597W        W30406   8.925  11.374   4.749 -0.2334  0.0186 -0.0440
14598W        W30407   4.633   7.168  13.680 -0.1281 -0.2249  0.0638
14599W        W30408   6.591  15.410   4.804 -0.2582  0.0197 -0.5485
14600W        W30409   0.032  10.863   4.129 -0.1817 -0.1973  0.0543
14601W        W30410  13.352   8.367  11.639  0.3170 -0.0416  0.2057
14602W        W30411  14.376   1.419   2.262  0.0484 -0.0894  0.0908
14603W        W30412  13.096  16.089   4.292 -0.0265  0.1940  0.1606
14604W        W30413   2.479   0.161  12.528  0.0897  0.3279 -0.1768
14605W        W30414   2.904  15.404   1.419 -0.1295  0.1361  0.4487
14606W        W30415  12.126   9.218   5.230  0.5764 -0.0171  0.1515
14607W        W30416   5.435  16.492   2.856 -0.1702  0.0639  0.0252
14608W        W30417   0.523  14.256   2.472  0.4126  0.0381 -0.0350
14609W        W30418  16.407  13.515   0.257 -0.2620  0.0483  0.2146
14610W        W30419   9.136   5.456  13.816  0.0221  0.0483  0.3185
14611W        W30420  15.846   3.965  10.621  0.1154  0.1633 -0.2217
14612W        W30421   4.243   6.121   5.789 -0.2388 -0.2510  0.1691
14613W        W30422   4.067   3.664   3.125 -0.5159  0.0086  0.0937
14614W        W30423   0.708  14.959  15.821  0.0818 -0.2081 -0.1463
14615W        W30424  13.007  13.981  10.973  0.1820  0.2194 -0.0045
14616W        W30425   1.365  12.128  12.260  0.3474 -0.1148  0.1048
14617W        W30426  11.869  10.516  14.217 -0.0587  0.2212  0.5308
14618W        W30427  10.668  14.808  11.444 -0.0921 -0.1051  0.2408
14619W        W30428   4.975   4.640   2.773  0.1436  0.1186  0.1841
14620W        W30429   1.668   6.767   1.829 -0.1259  0.0384 -0.0477
14621W        W30430  17.734   3.034   0.956  0.1683  0.1917 -0.0943
14622W        W30431   3.817  14.986   1.140  0.1218 -0.1304  0.0309
14623W        W30432  17.415  17.952   0.598 -0.0910 -0.0136 -0.1393
14624W        W30433   1.792   2.227   1.436  0.0830 -0.1236 -0.0264
14625W        W30434   6.756   1.863  15.060 -0.0689  0.3288  0.1795
14626W        W30435   8.486   0.158   5.424 -0.0332 -0.0490 -0.0460
14627W        W30436   5.902  12.873  11.230  0.3679  0.0738 -0.1286
14628W        W30437   1.313  13.177   0.843 -0.2847  0.0093 -0.1943
14629W        W30438   1.979   7.309  14.503  0.0647 -0.0864  0.3746
14630W        W30439   1.255   5.000   4.193  0.0888  0.2782  0.0872
14631W        W30440  13.012   2.417  12.493 -0.0444 -0.1795 -0.0667
14632W        W30441   4.263  16.210   5.222 -0.1388 -0.0260 -0.1859
14633W        W30442   4.976   7.507  15.400 -0.1541  0.0526 -0.0288
14634W        W30443   7.947  15.329   2.096 -0.0377 -0.0838 -0.0545
14635W        W30444   9.673   7.796  14.949  0.1680 -0.1723 -0.0207
14636W        W30445  15.548   0.927   0.770 -0.0569  0.1327  0.2192
14637W        W30446  12.339  10.850   2.569  0.2584 -0.1221  0.0015
14638W        W30447   4.993   7.884   0.227  0.0212 -0.0734  0.0014
14639W        W30448   5.421   6.500   0.447 -0.3090  0.0034 -0.1268
14640W        W30449  12.808  15.710   4.044 -0.2146 -0.1034 -0.1567
14641W        W30450   9.111   5.654   3.762 -0.2277 -0.0364 -0.1530
14642W        W30451   4.191   4.336   2.055  0.1976  0.0518 -0.0203
14643W        W30452  16.555  10.948  12.481 -0.0230  0.2364 -0.2044
14644W        W30453   3.929  18.290  13.563 -0.3390  0.0442 -0.0082
14645W        W30454  15.790   2.936   4.283 -0.2411  0.1326  0.1586
14646W        W30455  11.383   9.673  11.766 -0.2485  0.0462  0.1089
14647W        W30456   5.062   2.352   2.796 -0.0635  0.0478  0.0376
14648W        W30457   3.665   7.442  15.610 -0.2628 -0.2766 -0.0413
14649W        W30458   4.224   2.172   0.761 -0.1065  0.0593  0.0576
14650W        W30459  16.205   9.822  13.818 -0.0654 -0.1373  0.0749
14651W        W30460  16.972  13.103  10.879  0.1563 -0.1723  0.3454
14652W        W30461   2.810  15.560  13.136 -0.0878 -0.2255  0.0801
14653W        W30462   0.057   8.278  12.749 -0.0176 -0.0283 -0.0765
14654W        W30463   9.485  12.098   1.453 -0.3149  0.0296  0.0499
14655W        W30464  17.762   4.549  13.195 -0.0410  0.2650  0.0865
14656W        W30465   9.018  14.011  11.283 -0.3655 -0.0394  0.1978
14657W        W30466   3.524  11.714   3.548  0.1226  0.1388 -0.0993
14658W        W30467   6.843  16.708  14.539  0.1007  0.1238  0.1578
14659W        W30468   1.609   5.438   2.847  0.0700  0.0134 -0.0796
14660W        W30469   2.595  10.399  15.361  0.1889 -0.0692 -0.1683
14661W        W30470  11.611  11.559   3.897 -0.0433 -0.1467  0.0395
14662W        W30471  14.397   6.242   0.657 -0.1243 -0.0514 -0.0383
14663W        W30472  17.784  12.769   3.631 -0.2852 -0.1715 -0.2167
14664W        W30473   5.981   6.336  12.646  0.0120 -0.1803  0.0016
14665W        W30474  16.730   6.399   3.776 -0.0604  0.1489 -0.0241
14666W        W30475  12.742  11.956  13.991 -0.1796 -0.1815  0.0779
14667W        W30476  16.250   4.416  11.358  0.0155 -0.0058  0.2496
14668W        W30477  16.405  11.001   3.741  0.0893  0.1165 -0.4071
14669W        W30478  10.880  17.786   2.687  0.0132  0.0640  0.2503
14670W        W30479   4.162  15.949  12.892 -0.0531 -0.1982  0.0531
14671W        W30480   3.957  18.253   4.592 -0.0924  0.1379  0.3946
14672W        W30481  10.365  10.875   2.356 -0.0531  0.0906  0.1119
14673W        W30482   8.139  15.524  11.162  0.2263  0.1401  0.1372
14674W        W30483  10.903  12.920  14.263 -0.0993  0.1439  0.0633
14675W        W30484   6.559   1.251  13.537 -0.1439 -0.0658 -0.1397
14676W        W30485   7.467  10.537  13.804 -0.0274  0.0944 -0.0301
14677W        W30486  11.110   3.073   1.128 -0.1182  0.3152  0.1837
14678W        W30487  14.731  11.410   1.020  0.0255 -0.0651 -0.2167
14679W        W30488   1.507   5.948   1.795  0.1783  0.0113 -0.2002
14680W        W30489   6.280   1.521  12.589  0.0386  0.0345 -0.1475
14681W        W30490   5.352  15.938  11.426  0.1216  0.1003 -0.3083
14682W        W30491  12.938   1.146   4.099 -0.2705  0.0042 -0.1833
14683W        W30492  15.820   0.195  11.032 -0.0455  0.0857  0.1650
14684W        W30493  15.236   0.756  12.705  0.3170  0.0780  0.1117
14685W        W30494   4.267   5.071   1.811  0.0053 -0.1457 -0.3026
14686W        W30495  14.603  17.742  12.594  0.2599  0.0042 -0.0465
14687W        W30496  11.196  15.059   2.495 -0.1723 -0.0971 -0.0544
14688W        W30497  12.466   0.908  14.021  0.1736 -0.0390 -0.0329
14689W        W30498   5.125  17.425   4.282 -0.3082  0.0303 -0.3450
14690W        W30499   3.954   3.873   2.132  0.0092 -0.1490  0.0775
14691W        W30500   4.420  12.459  13.656 -0.0833  0.2331 -0.4189
14692W        W30501  12.383   2.128  12.509 -0.0960  0.0594  0.1366
14693W        W30502   3.329  17.996  13.733 -0.0679 -0.0801  0.1407
14694W        W30503   4.311   4.625  13.319  0.1153 -0.0583 -0.1763
14695W        W30504   5.489   7.657   2.479 -0.3889 -0.3368 -0.3040
14696W        W30505   7.710  10.323   2.364  0.3081 -0.2994 -0.0288
14697W        W30506  11.176  10.103  13.318 -0.0241 -0.0417  0.0169
14698W        W30507  12.151   1.915   1.645 -0.0422  0.2673 -0.2727
14699W        W30508   6.287   2.287  12.096  0.0376  0.0198  0.0634
14700W        W30509   4.616  18.054  10.907  0.0757 -0.1779  0.2393
14701W        W30510   2.316  17.817   2.424 -0.1067 -0.2012  0.5003
14702W        W30511   5.329  13.851  14.859 -0.1705  0.2921  0.0678
14703W        W30512  16.598   8.468   4.126  0.3986 -0.1927  0.0420
14704W        W30513   3.941   2.268  12.105  0.1934 -0.5299  0.1159
14705W        W30514  13.741  15.301   3.952 -0.0987  0.1226  0.2207
14706W        W30515   6.262  17.894   4.903  0.0026 -0.0966 -0.0622
14707W        W30516  18.231   3.196   4.394  0.2819 -0.4305 -0.0738
14708W        W30517   8.835  10.594  13.199 -0.2578  0.0903  0.1897
14709W        W30518  17.882   3.658   2.123 -0.1039 -0.0030 -0.0019
14710W        W30519   0.182  14.445  12.693 -0.0721 -0.1142  0.0927
14711W        W30520   7.398  15.158   1.339 -0.0554  0.0822 -0.0980
14712W        W30521   0.988  10.256   6.104  0.0925 -0.1537  0.0665
14713W        W30522   1.900   1.540  11.380 -0.1740 -0.0521 -0.0504
14714W        W30523   4.244   7.883   3.689  0.2193  0.4101 -0.1885
14715W        W30524   5.090   7.127   2.612  0.1984 -0.3043  0.1934
14716W        W30525  12.751   5.563   1.794 -0.1144 -0.0954 -0.1791
14717W        W30526  11.051  11.829  14.222 -0.2217 -0.0425 -0.0150
14718W        W30527  14.146   1.432   0.850 -0.1266  0.1104 -0.0102
14719W        W30528   7.939   2.104   5.851 -0.2596 -0.3142 -0.2676
14720W        W30529  10.068   5.034  10.005  0.3958 -0.0094  0.0361
14721W        W30530   9.301   9.335   4.239 -0.3703  0.1671  0.1166
14722W        W30531  11.777   8.528   4.963  0.2141 -0.0821  0.0060
14723W        W30532   0.249   3.954   4.282 -0.0435 -0.0172 -0.0505
14724W        W30533   6.323   2.374  15.070  0.0271  0.1050  0.1940
14725W        W30534   2.428   8.220  13.625 -0.3598 -0.3616 -0.1340
14726W        W30535   6.690  17.400  12.240 -0.2075 -0.0208 -0.0940
14727W        W30536   1.481  15.829  13.207 -0.1911 -0.1288 -0.2890
14728W        W30537   1.162   1.045   4.632 -0.0296  0.1581  0.1668
14729W        W30538   0.712   2.315  15.660  0.0175 -0.0205 -0.0832
14730W        W30539   1.295   6.008   4.470 -0.1934 -0.1868  0.1293
14731W        W30540   3.662  12.324  13.200  0.0776 -0.1332  0.2785
14732W        W30541   2.052  17.558  15.282 -0.0500  0.0651  0.1040
14733W        W30542   7.954  17.491  12.504 -0.0869  0.1449 -0.4671
14734W        W30543  11.051  15.895   4.440  0.1665  0.1023  0.1408
14735W        W30544   3.375   0.735   2.726  0.2207  0.1364  0.2682
14736W        W30545   5.864   0.176  11.770  0.3353 -0.0538  0.1029
14737W        W30546   8.177  10.789  11.908  0.1676  0.0015  0.0980
14738W        W30547   8.269  16.352  13.350 -0.1042  0.1276 -0.0662
14739W        W30548   4.971   1.142   1.975 -0.2839 -0.1370  0.0883
14740W        W30549   9.357  12.700  10.604  0.1026 -0.4273 -0.1046
14741W        W30550   2.626  15.057  14.045  0.2552 -0.2317  0.1901
14742W        W30551  17.627   7.044   3.847 -0.0348 -0.0632  0.0079
14743W        W30552  16.236   2.522   3.470 -0.2328  0.2476  0.0752
14744W        W30553  10.476  16.366   3.709 -0.1873 -0.3080  0.0284
14745W        W30554  11.324   9.073   1.647 -0.3008 -0.0967  0.1468
14746W        W30555   0.790  17.269   0.981 -0.1460 -0.0328 -0.0099
14747W        W30556   4.217   8.057  13.768  0.3268  0.0617  0.0972
14748W        W30557  10.658   8.980   1.170 -0.0808 -0.2411 -0.0745
14749W        W30558  15.788   1.779   1.204 -0.1946  0.1698 -0.1535
14750W        W30559   3.010  13.224  12.622  0.0543 -0.2686  0.0056
14751W        W30560  17.115   9.055   4.817 -0.1192  0.0796 -0.0258
14752W        W30561   1.820   4.482   5.992  0.0723 -0.1394  0.1516
14753W        W30562   0.387  16.827   5.040  0.0042 -0.0740  0.2069
14754W        W30563   3.288  11.406  14.697 -0.1833 -0.0847  0.0617
14755W        W30564   7.771  15.847   1.959  0.1066 -0.1673  0.2486
14756W        W30565  15.798   0.742   4.614  0.1690  0.1605  0.2862
14757W        W30566   1.316   0.004   1.363 -0.0074  0.1544 -0.0681
14758W        W30567  16.480   5.471   2.752  0.1770  0.2077 -0.1379
14759W        W30568   2.317   0.503   1.174  0.0723 -0.1435  0.0166
14760W        W30569  15.522   6.113  14.981  0.0147 -0.0226  0.2737
14761W        W30570  11.359   3.589  12.488 -0.0340  0.2670  0.1308
14762W        W30571  16.147  14.484   1.369 -0.0587  0.0470 -0.1227
14763W        W30572  12.918   0.052   0.624 -0.2278 -0.0824  0.0339
14764W        W30573  11.258  15.078   3.200 -0.1630 -0.1396  0.0757
14765W        W30574   5.402   2.245  13.613  0.3239  0.0740 -0.2999
14766W        W30575   1.451   1.622  15.400 -0.0017  0.1505 -0.1245
14767W        W30576  12.344  17.968   2.844 -0.0536 -0.1389  0.0519
14768W        W30577  17.829  17.026  14.549 -0.0366 -0.2015 -0.1804
14769W        W30578  11.680   7.081   3.050  0.2349 -0.0607  0.0748
14770W        W30579  13.451  12.379   3.095 -0.0831 -0.2024 -0.0924
14771W        W30580   2.171   0.676  10.934  0.0561  0.0066 -0.0438
14772W        W30581   4.734   8.881  14.459 -0.0805  0.1332  0.1086
14773W        W30582   9.317  18.169  12.571  0.2400  0.1071  0.0053
14774W        W30583  15.474   4.613  14.629  0.1560  0.2361  0.2016
14775W        W30584  11.781  16.927   1.858  0.1636 -0.0898  0.0151
14776W        W30585   3.000  13.966   4.429 -0.1551 -0.0891 -0.0765
14777W        W30586  13.158  11.868   2.940  0.0365  0.0222 -0.0770
14778W        W30587  18.190   7.979   0.526 -0.3797  0.0046 -0.0336
14779W        W30588  14.820   2.107  12.158  0.5540  0.1727  0.0266
14780W        W30589   2.750   5.237   4.123  0.2289  0.3306 -0.0590
14781W        W30590  13.094   2.785   9.885 -0.0418  0.4462  0.4621
14782W        W30591   1.156   3.120   0.145 -0.2732  0.3161  0.2195
14783W        W30592   2.628  13.501  12.440 -0.3930 -0.2027  0.2532
14784W        W30593   0.348  11.527   4.674 -0.0484  0.0948 -0.2256
14785W        W30594  15.300   2.809   2.281  0.1434  0.0979  0.0510
14786W        W30595   6.388  17.985   2.063  0.1064 -0.1812  0.1056
14787W        W30596   3.599  17.105   3.567  0.0467  0.0831  0.2568
14788W        W30597   0.679   5.175  14.149 -0.0429 -0.0631  0.3364
14789W        W30598   4.370   0.265   0.065 -0.1659 -0.1751 -0.0830
14790W        W30599   3.912  14.042   2.821 -0.0146  0.1815 -0.2053
14791W        W30600  11.605   6.414   1.368  0.2113 -0.2618  0.2043
14792W        W30601   7.893   8.911   3.792  0.1254  0.1897 -0.2667
14793W        W30602   8.361   4.225   3.712  0.1050 -0.2747  0.0281
14794W        W30603  15.182  10.471   1.298  0.0497 -0.3598 -0.1174
14795W        W30604   9.879  17.817   2.704  0.0857  0.0752  0.0710
14796W        W30605  11.263  16.050  13.283  0.1128  0.0594  0.0851
14797W        W30606   6.767  18.365  14.177 -0.0723  0.0953 -0.3461
14798W        W30607   2.484  14.926   4.583 -0.0694 -0.1477  0.0252
14799W        W30608   1.456   4.706  15.298 -0.0999  0.3097 -0.1690
14800W        W30609  14.768  13.375   1.715 -0.1674  0.1367  0.1985
14801W        W30610   6.475   5.934   1.819 -0.1609 -0.0941  0.1331
14802W        W30611   8.969   2.583   0.851  0.0965  0.3282  0.5550
14803W        W30612  12.070  17.780  13.304  0.1573  0.1159  0.3192
14804W        W30613  12.027  12.687   4.993 -0.2446 -0.2320  0.3014
14805W        W30614   4.063   9.762  15.035  0.0393  0.1255  0.0205
14806W        W30615  12.415  12.141  15.481  0.1515 -0.0772 -0.1472
14807W        W30616  15.689  15.254   5.027  0.0904 -0.0835  0.1441
14808W        W30617   2.306  12.159   3.585  0.2722  0.0362 -0.1138
14809W        W30618  10.507   4.638   4.204  0.0044 -0.4103 -0.0326
14810W        W30619   8.461   2.944   1.766 -0.2696  0.0548 -0.0733
14811W        W30620  14.428  12.000  10.898 -0.0034  0.1357  0.0544
14812W        W30621  14.022   0.011  14.301 -0.1311 -0.0567 -0.0435
14813W        W30622   3.599  15.066  12.878  0.1094 -0.0491  0.3540
14814W        W30623   1.908  10.780   1.207  0.1916 -0.0666 -0.0455
14815W        W30624   5.589  17.005  13.646 -0.1753 -0.3947 -0.1115
14816W        W30625   2.999  12.069   0.053 -0.3561 -0.0647  0.0372
14817W        W30626   6.642  12.481  12.148  0.0746 -0.0304 -0.1484
14818W        W30627  11.302  16.872  14.280 -0.0014  0.0970 -0.0634
14819W        W30628  13.071   9.895  12.197 -0.1872  0.0856  0.0422
14820W        W30629  18.372  17.144   5.672  0.0804 -0.1404 -0.2026
14821W        W30630   6.411  15.110  12.844 -0.0054 -0.2082  0.2319
14822W        W30631  10.713   2.307  10.866 -0.2483 -0.0243  0.1788
14823W        W30632   7.023   8.788  10.596  0.1073  0.3553  0.1647
14824W        W30633  13.279   2.200   2.272  0.1509 -0.0216 -0.1806
14825W        W30634  14.971   7.141   4.674  0.1185  0.2136 -0.0699
14826W        W30635  15.325   7.482   2.388  0.1832  0.0514  0.2373
14827W        W30636  14.655  14.673  11.517 -0.1540  0.0452  0.2879
14828W        W30637   5.162   3.395  15.800 -0.2130  0.3282 -0.2380
14829W        W30638  17.285   1.689  11.593  0.0281 -0.2005 -0.1995
14830W        W30639  14.917  11.956  12.917  0.1158  0.1592 -0.2183
14831W        W30640  16.171  12.835   5.721  0.0289 -0.1392  0.1223
14832W        W30641   7.853   0.952   2.492  0.1393 -0.0530 -0.0938
14833W        W30642  11.301   5.458  15.420  0.0227 -0.2375  0.2893
14834W        W30643   9.958   3.258   4.500  0.0764 -0.2011 -0.2929
14835W        W30644   5.794  15.269  10.258  0.1573  0.0897  0.0249
14836W        W30645  10.468   1.481   0.661 -0.3395  0.0282  0.0666
14837W        W30646   1.297  14.906  10.253 -0.0155  0.1198  0.1332
14838W        W30647   8.294   7.024   2.910  0.3495  0.1229 -0.1370
14839W        W30648   0.323  15.428   5.409  0.3146 -0.2624  0.1945
14840W        W30649   0.411   6.473   4.346 -0.3650 -0.0051  0.1061
14841W        W30650   5.818  11.514  12.338 -0.0621  0.1596  0.3085
14842W        W30651   4.716  17.533  14.533 -0.0370 -0.1785  0.1786
14843W        W30652  15.011   2.621   0.580  0.2371 -0.0882  0.0001
14844W        W30653  18.097   6.062   5.376  0.0258  0.0192  0.0926
14845W        W30654  16.316  11.736  14.712 -0.0042  0.0780 -0.2056
14846W        W30655   8.491   3.988  14.779 -0.1779  0.2664  0.0405
14847W        W30656   5.584  18.120   3.787  0.2538  0.0008  0.1349
14848W        W30657   6.161  12.376  12.054 -0.0469 -0.2441 -0.0343
14849W        W30658   6.959  15.742  13.120  0.0003 -0.2606 -0.1676
14850W        W30659  11.624   8.464  11.420  0.2819  0.2335 -0.3484
14851W        W30660   6.636  12.488   0.564 -0.1038 -0.2151  0.1977
14852W        W30661   8.609  16.698   4.554  0.1200 -0.2589  0.1946
14853W        W30662   3.215   4.923  12.610  0.3408 -0.1481 -0.0251
14854W        W30663  13.779   5.675  14.728 -0.1461  0.0669  0.1901
14855W        W30664   2.169  14.099  13.730 -0.2688 -0.0369  0.1840
14856W        W30665   4.334   1.756   5.410 -0.2951 -0.1501  0.2820
14857W        W30666   1.648  15.636  11.755  0.1721  0.0371  0.0286
14858W        W30667  15.182   2.253   1.726  0.0930  0.0750 -0.0400
14859W        W30668   3.909  10.231  12.423  0.0442  0.0523 -0.0977
14860W        W30669   2.917  11.308   4.549  0.1341 -0.0875 -0.2538
14861W        W30670   6.698   5.639   1.488 -0.2766 -0.2817 -0.2728
14862W        W30671   0.114   4.977   4.089 -0.1106 -0.1732 -0.1284
14863W        W30672   4.525  16.681  12.591  0.2503 -0.2827 -0.0017
14864W        W30673  11.382   3.719   0.052  0.0315 -0.2398 -0.2851
14865W        W30674  10.636  10.547   0.507 -0.2249  0.0543 -0.0695
14866W        W30675  10.817   5.422  15.682 -0.0628 -0.2782 -0.0034
14867W        W30676   1.041   8.348  11.555 -0.3839 -0.3633 -0.1557
14868W        W30677   5.045  15.421   4.126 -0.1336  0.0627  0.2944
14869W        W30678   4.020  12.832  14.925  0.2717 -0.0420  0.0714
14870W        W30679  15.710   3.538  13.277 -0.0777 -0.0506  0.0399
14871W        W30680  17.962   1.647   1.685 -0.3414  0.3556  0.0694
14872W        W30681   2.077  16.745  11.514 -0.1639 -0.1606 -0.1471
14873W        W30682   5.926  14.947   0.693  0.0691  0.3846  0.1435
14874W        W30683  17.539   0.400  13.921  0.1116  0.1320  0.1575
14875W        W30684  11.874  14.275   5.075 -0.1769 -0.0779  0.1779
14876W        W30685   0.373  17.802   2.630 -0.1128  0.0154  0.3196
14877W        W30686   1.540   1.002   1.681 -0.1574  0.3679  0.0029
14878W        W30687   1.277  10.300   0.113 -0.1344 -0.0163  0.3396
14879W        W30688   6.861   8.696   5.059  0.1734 -0.0151 -0.2996
14880W        W30689  10.581  10.615  12.776  0.0691 -0.0228  0.1910
14881W        W30690   4.088   2.804   5.220 -0.3096 -0.0279  0.2678
14882W        W30691  12.171   7.260   1.647  0.1238  0.0583 -0.1373
14883W        W30692   2.685  10.865  11.751  0.2197  0.0895  0.0816
14884W        W30693   4.978  12.061   4.201  0.0303  0.0891  0.0997
14885W        W30694  16.289  17.623  14.496  0.3588  0.0291  0.0800
14886W        W30695  12.243   5.613   0.513 -0.1273 -0.0046  0.0627
14887W        W30696  11.996   1.362  11.799 -0.0193 -0.0841 -0.2322
14888W        W30697  14.978  16.944   0.127 -0.2332 -0.5953  0.1178
14889W        W30698  13.035  16.608  14.936 -0.4393 -0.1251 -0.1995
14890W        W30699  15.668   5.736  11.642  0.3724  0.1376  0.0553
14891W        W30700   6.697  11.378   2.056  0.3155  0.1253  0.0249
14892W        W30701   8.157  12.303  15.005  0.3885  0.1962  0.2370
14893W        W30702   0.991   9.005   2.213 -0.1249 -0.1251 -0.1796
14894W        W30703   7.534  15.508  14.708  0.1343 -0.0584  0.0693
14895W        W30704  15.137   4.582   2.754 -0.0270  0.1646 -0.4094
14896W        W30705   3.109   4.164  10.979 -0.0909  0.0501  0.0888
14897W        W30706   2.940  13.977   0.785 -0.1125  0.2568 -0.0528
14898W        W30707  12.398   1.252   3.557 -0.1917 -0.2350 -0.1953
14899W        W30708  17.285   6.984   2.653  0.0178  0.0129 -0.1250
14900W        W30709   9.318   3.304  11.266 -0.0701  0.2880  0.0824
14901W        W30710  14.655   4.827   4.590  0.0749  0.1631  0.1541
14902W        W30711  11.618  14.256   4.238  0.3853 -0.2327 -0.1132
14903W        W30712  18.426   1.038  11.945 -0.1448  0.2952  0.0501
14904W        W30713  18.168  17.450  15.453 -0.2804 -0.1034 -0.0140
14905W        W30714   3.013   8.234   3.756 -0.0677 -0.0191  0.0337
14906W        W30715  12.241  12.114   2.857 -0.1763 -0.0897  0.0165
14907W        W30716   9.234   1.243  10.876 -0.3137 -0.1419  0.0781
14908W        W30717   4.715  12.975  15.615  0.1057  0.1438 -0.2121
14909W        W30718   9.382  16.734   1.934 -0.0544  0.0003  0.2107
14910W        W30719  14.175   5.934  13.968  0.0334 -0.0641 -0.1478
14911W        W30720  16.786   1.084   3.542 -0.2555  0.1517 -0.3128
14912W        W30721  17.197   1.602   4.822 -0.1009 -0.2589 -0.0019
14913W        W30722  16.591  10.548   2.262  0.2110  0.0446 -0.0773
14914W        W30723   0.161  14.173  15.322 -0.3697  0.2188  0.0979
14915W        W30724  16.649   3.110  11.439 -0.1842  0.0190 -0.3045
14916W        W30725  13.519  14.036   3.826  0.0501  0.0081  0.2508
14917W        W30726   6.055   6.760   4.267 -0.1633  0.1936 -0.3945
14918W        W30727  13.612  13.831  12.185  0.0562  0.0212 -0.0605
14919W        W30728  16.819  11.876   1.753  0.0502 -0.0596  0.1343
14920W        W30729  10.918   1.399   0.896  0.0330  0.1448  0.4062
14921W        W30730   9.292  15.146   3.233 -0.1026  0.2190  0.2133
14922W        W30731  17.098  12.316  11.308  0.0550 -0.0165  0.0038
14923W        W30732  14.897   4.594   1.296  0.0103 -0.0170 -0.2077
14924W        W30733  12.336  13.171   0.260  0.2003  0.0888  0.3602
14925W        W30734   9.481  10.129  14.478 -0.0197 -0.2348 -0.0940
14926W        W30735  17.565   9.355   3.825  0.0556 -0.0403  0.0655
14927W        W30736   1.620   0.945  12.983  0.0256 -0.1639  0.1266
14928W        W30737  13.356  13.050   0.169  0.1365 -0.2568  0.1440
14929W        W30738  16.828   1.076   1.881  0.1885  0.1021  0.3996
14930W        W30739  10.543   6.843   2.908  0.1067  0.3192 -0.0774
14931W        W30740  10.816  16.623  15.738 -0.2840 -0.0059 -0.0621
14932W        W30741   9.991   4.546   4.193  0.0086 -0.1937  0.0928
14933W        W30742  10.531  16.501   1.469  0.3926  0.1257 -0.0337
14934W        W30743   9.250  17.322   0.110 -0.2006  0.1447  0.1734
14935W        W30744  18.425  15.572   4.809  0.0573  0.0975 -0.1042
14936W        W30745   6.026  13.231   1.548  0.0558  0.1881  0.3710
14937W        W30746  17.651   5.197   5.090 -0.1810  0.0257 -0.0038
14938W        W30747   5.283  11.476  11.419 -0.1604  0.0353  0.0127
14939W        W30748   2.801  17.652   5.776 -0.2229  0.0742 -0.0825
14940W        W30749   6.239  15.098  11.974  0.1683  0.2430 -0.0320
14941W        W30750   5.275   8.927  11.796 -0.1836  0.0731 -0.0414
14942W        W30751   1.089   0.054  14.836 -0.2117 -0.0671  0.1198
14943W        W30752  16.939  13.629   4.676  0.2854 -0.1014 -0.2228
14944W        W30753   7.546  15.519  11.703 -0.2844 -0.0722  0.0436
14945W        W30754  16.972   5.490   3.914 -0.2337 -0.2258  0.0902
14946W        W30755  14.570  13.973  12.870 -0.1758 -0.1958  0.2797
14947W        W30756   5.821   6.747  10.463  0.0271  0.0424 -0.1587
14948W        W30757  15.443   1.878   5.350  0.2108 -0.2360 -0.1150
14949W        W30758   0.076  15.911   4.031 -0.0054  0.1452  0.0085
14950W        W30759  18.274   4.169  14.776 -0.0783 -0.1301  0.0169
14951W        W30760   4.073   8.649  13.648  0.0817  0.1477 -0.1702
14952W        W30761  16.605   0.094  12.828 -0.0506 -0.0088 -0.1905
14953W        W30762   0.846   7.948  13.225 -0.1658  0.1139  0.1612
14954W        W30763   5.314  16.953  10.424  0.1255  0.1312 -0.0001
14955W        W30764   4.876  15.426  13.003 -0.1047  0.1667 -0.2721
14956W        W30765  10.335   6.259  10.710 -0.1202  0.1325  0.0363
14957W        W30766   6.971  13.374  12.341 -0.1753  0.2121 -0.4217
14958W        W30767  16.132   8.284   3.316  0.0124 -0.2035 -0.0418
14959W        W30768   8.648   0.308   2.472  0.1344 -0.0133  0.0632
14960W        W30769  17.943  16.254  15.636 -0.0550  0.0551  0.0710
14961W        W30770  13.064   3.928   4.207 -0.0169 -0.0856  0.2207
14962W        W30771  17.389  11.681   3.975  0.0060  0.0411  0.2558
14963W        W30772   9.175  12.998  14.960 -0.2761  0.2097 -0.0328
14964W        W30773   7.847   7.546  11.449 -0.0109  0.1632 -0.0987
14965W        W30774   2.924   1.511  11.174  0.0125  0.0925  0.0316
14966W        W30775  12.476  14.871   3.519 -0.1012  0.0568 -0.0631
14967W        W30776   3.716   2.737  15.022 -0.0818  0.4049 -0.0206
14968W        W30777  15.409  16.151  14.429 -0.0158 -0.1078  0.0812
14969W        W30778   6.279  12.067   3.939  0.0999 -0.0855  0.1276
14970W        W30779  15.166   7.754   5.682 -0.2061  0.0436 -0.3397
14971W        W30780   0.556   8.105   0.536 -0.3473 -0.0929 -0.0180
14972W        W30781  16.608  14.594   1.640  0.3306  0.2383 -0.1282
14973W        W30782   2.639  11.338  11.992 -0.0576 -0.1111  0.0197
14974W        W30783   8.101   0.559   1.571 -0.0313 -0.0189 -0.2186
14975W        W30784   6.262  15.381   5.180  0.0130  0.4580 -0.3141
14976W        W30785   6.508  12.918   3.971 -0.3269 -0.1068 -0.0116
14977W        W30786   8.767  15.198   3.270  0.0714 -0.1411 -0.0633
14978W        W30787   5.325  15.477  11.665 -0.0867  0.0490 -0.0434
14979W        W30788   1.332   6.060  12.505  0.0351  0.0056 -0.1032
14980W        W30789  14.607  10.907   1.287 -0.0313 -0.0419  0.1448
14981W        W30790  13.284  10.682   1.494  0.1291  0.0679  0.2686
14982W        W30791   6.749   6.038  12.787  0.0836 -0.3785  0.1775
14983W        W30792   2.757  18.279  10.650 -0.1322 -0.2869 -0.2312
14984W        W30793  11.778   0.981  10.746  0.1962 -0.3461  0.1738
14985W        W30794  17.181  10.160   4.932  0.2409 -0.0433  0.1042
14986W        W30795  11.668   1.817   2.264  0.1219  0.0263  0.0871
14987W        W30796   8.734  15.299  11.089  0.3094 -0.1017 -0.0718
14988W        W30797   9.139   8.029   2.752  0.0702 -0.1867  0.1128
14989W        W30798   4.814  14.939   4.265 -0.0652 -0.1801 -0.0111
14990W        W30799  17.109  12.946  11.928 -0.2186  0.1083 -0.2373
14991W        W30800  17.803  10.185  13.339  0.1565 -0.1645  0.0818
14992W        W30801  13.044   9.169  11.967  0.2347 -0.0294 -0.1741
14993W        W30802   4.721   7.239  10.714  0.3400 -0.1717  0.2140
14994W        W30803  12.783   6.935  15.683  0.0872 -0.2013 -0.2144
14995W        W30804  13.006  11.075  13.598  0.3137 -0.0045 -0.0095
14996W        W30805  10.784   6.427   2.691 -0.1936  0.0733  0.0126
14997W        W30806  10.972   6.986  13.327 -0.1052  0.0445 -0.1127
14998W        W30807  12.119  16.087  10.226  0.2605 -0.4191  0.0180
14999W        W30808  17.144   7.326  12.579  0.2118 -0.0625  0.0285
15000W        W30809  17.301  12.989   1.204  0.2071 -0.3311 -0.1944
15001W        W30810   0.895   9.878  14.305 -0.0992  0.0346  0.3929
15002W        W30811   0.771   6.367   1.307 -0.2419 -0.1807 -0.1702
15003W        W30812   8.236   9.359   4.934 -0.0603  0.3541 -0.1395
15004W        W30813   9.598   4.531  10.889  0.1387  0.0297 -0.3544
15005W        W30814   7.171  12.837   5.301  0.0236 -0.0061  0.1295
15006W        W30815  17.124  11.470  15.802 -0.0264  0.1790 -0.1287
15007W        W30816   5.994  14.755  11.716  0.0647 -0.1504  0.0792
15008W        W30817  12.301   8.349  13.298  0.0506  0.0499  0.0829
15009W        W30818   6.849  11.642   3.363 -0.1110  0.2749 -0.1582
15010W        W30819  15.063   6.486   3.967 -0.0143  0.1892 -0.0808
15011W        W30820   7.344   1.622   1.226  0.1381 -0.0919 -0.0020
15012W        W30821  15.154   0.607   2.661  0.1872  0.0404  0.2049
15013W        W30822  10.955   4.434  11.223 -0.1097 -0.0038 -0.1856
15014W        W30823  13.812  17.541  13.760  0.1073  0.0925 -0.1260
15015W        W30824  16.587  16.555   1.732 -0.0265  0.1839 -0.1065
15016W        W30825  13.326  10.166  10.646  0.0277  0.1162 -0.2227
15017W        W30826  14.470   2.824   0.276 -0.2009 -0.0173 -0.2060
15018W        W30827  16.431  17.912  12.715  0.1415  0.1983 -0.0548
15019W        W30828   5.216  10.438   2.927  0.0607  0.2189  0.2277
15020W        W30829   8.430  11.234  14.332 -0.0529  0.1262 -0.2039
15021W        W30830  11.262   3.272   0.153 -0.0866  0.2040  0.4376
15022W        W30831  18.153  17.246   3.863  0.0895  0.0016  0.2099
15023W        W30832  11.287   4.336  11.579 -0.0050  0.0337 -0.0158
15024W        W30833   0.870  16.545  11.333 -0.0678 -0.3115  0.0021
15025W        W30834  13.547  13.209   4.346  0.5207  0.1990  0.0592
15026W        W30835   3.485  17.595  14.037 -0.3094 -0.3020 -0.0038
15027W        W30836  14.217   4.783   1.696 -0.0593  0.2248  0.1397
15028W        W30837   7.719   1.716  11.420 -0.0760 -0.0067  0.0213
15029W        W30838  13.304   3.380   3.160  0.1765  0.0232  0.4181
15030W        W30839  16.054  17.815   2.776  0.2323  0.0066  0.0098
15031W        W30840  14.194  12.491   4.170  0.1274  0.2475 -0.1193
15032W        W30841  13.259   2.307  14.959 -0.0441  0.1455 -0.0133
15033W        W30842  15.730   5.600   1.273 -0.3077 -0.1575 -0.0153
15034W        W30843   5.975   0.901   0.528 -0.2433 -0.0029  0.2218
15035W        W30844   4.992   3.856  15.613 -0.1849 -0.1279 -0.1442
15036W        W30845  18.101   3.501   3.458 -0.1265  0.2522  0.3548
15037W        W30846  13.560   9.641   3.039 -0.0259 -0.1228 -0.2186
15038W        W30847   6.433  15.335  13.647 -0.2127 -0.1552 -0.0517
15039W        W30848   2.688  13.763  12.977  0.0750  0.2460  0.2542
15040W        W30849   6.926   9.023  15.498  0.3670  0.0166 -0.1594
15041W        W30850  15.171  17.759   3.334  0.1987 -0.2575  0.2754
15042W        W30851   8.185  12.096   3.850 -0.0343 -0.3136 -0.1365
15043W        W30852   9.805   7.198   4.184 -0.0344  0.3523 -0.3501
15044W        W30853   3.849   7.866   4.206 -0.0023 -0.0350  0.1860
15045W        W30854  13.407   5.944  15.535 -0.0626 -0.1508 -0.0908
15046W        W30855   5.858   8.284  13.050 -0.0641 -0.0699  0.1043
15047W        W30856  17.800   8.115  12.008 -0.1034 -0.0756 -0.2719
15048W        W30857   2.662  14.546  14.084 -0.0360  0.1391 -0.0142
15049W        W30858   4.115   8.862   1.126 -0.1476  0.1390  0.1631
15050W        W30859  11.517   5.544  13.680 -0.2602 -0.2389  0.0489
15051W        W30860  15.423   6.646  15.347  0.2213 -0.2736  0.6381
15052W        W30861  17.823  14.025   0.858 -0.2421 -0.0833 -0.0328
15053W        W30862  14.982   2.857  15.844 -0.3016 -0.2314 -0.1951
15054W        W30863  17.851   1.684   4.634  0.1324 -0.3381  0.3003
15055W        W30864  18.191   9.908  14.116 -0.3303 -0.2312 -0.0292
15056W        W30865  17.599  11.764   2.217 -0.0091  0.2130  0.0073
15057W        W30866   2.046  17.127   4.300  0.0128 -0.1570 -0.0696
15058W        W30867   8.187   5.080   0.884  0.1595 -0.1576  0.2888
15059W        W30868  15.497   7.505  14.696  0.5862  0.0138 -0.0276
15060W        W30869  18.058  11.153   2.106 -0.1137  0.0610  0.1476
15061W        W30870   0.022   6.037   1.726  0.0240 -0.0925 -0.1954
15062W        W30871  12.445  12.871  13.072 -0.0818  0.1044 -0.2077
15063W        W30872  13.081   8.950  12.930 -0.2559  0.1782  0.3103
15064W        W30873   0.378   4.524  10.525  0.0802  0.2363  0.2082
15065W        W30874  15.894   6.372   5.774 -0.0357 -0.2063  0.2589
15066W        W30875   7.207  17.211  13.002  0.0995 -0.1628  0.1615
15067W        W30876   8.441   2.490   3.624  0.0496 -0.0557  0.0309
15068W        W30877   8.958   7.284   4.625  0.1511  0.1931 -0.1082
15069W        W30878  11.224   9.219   1.143 -0.0419 -0.0586  0.0167
15070W        W30879   7.641   6.331   3.399 -0.0990  0.0777  0.0656
15071W        W30880  15.444  18.428  15.121 -0.3534  0.0648 -0.0243
15072W        W30881  15.996   9.790  15.104  0.2695  0.2192  0.1641
15073W        W30882   6.844  12.824  14.695 -0.0139  0.0390 -0.2607
15074W        W30883   0.151  12.504  14.254  0.0607 -0.1199 -0.0991
15075W        W30884  16.712   2.372   3.225 -0.1858  0.0716 -0.1096
15076W        W30885   6.254  18.341  12.147  0.2770 -0.1931  0.3183
15077W        W30886   6.262   3.137  11.029 -0.0176 -0.1908 -0.0047
15078W        W30887  10.747   8.912  14.765  0.0158 -0.1162  0.2192
15079W        W30888   8.524  12.324   3.194  0.7063 -0.1310 -0.1333
15080W        W30889   7.179  17.704  11.907  0.3373  0.1034 -0.3417
15081W        W30890   8.658   6.695  13.915 -0.0979 -0.0349  0.4234
15082W        W30891   9.451   0.184  11.179  0.2627  0.0857  0.0349
15083W        W30892   1.830   1.757  11.840 -0.5237 -0.0179 -0.1871
15084W        W30893   3.127   1.101   0.048  0.0614 -0.4793  0.1202
15085W        W30894   9.107  10.485   4.074  0.0289 -0.1201 -0.4504
15086W        W30895  14.275  11.533   4.672  0.1032 -0.2807  0.0944
15087W        W30896  10.114   1.425  13.865 -0.4733 -0.0735  0.1173
15088W        W30897   0.787  15.742   2.076 -0.1411 -0.1351  0.1355
15089W        W30898  13.415  13.286   1.879 -0.0619 -0.0703  0.1698
15090W        W30899  10.131  11.232  11.748  0.1750  0.1736 -0.0585
15091W        W30900   0.625  13.866  12.061  0.0428  0.2125  0.1490
15092W        W30901  10.178  18.240  11.942  0.0358  0.1050  0.0572
15093W        W30902  12.481  17.760   4.178 -0.0295 -0.0325 -0.0791
15094W        W30903  15.987   9.408  11.406 -0.0081 -0.2600 -0.1659
15095W        W30904  16.553  11.207  13.858  0.0226  0.0524  0.0348
15096W        W30905   3.826   6.802   3.056  0.1204 -0.0592 -0.0388
15097W        W30906  10.450   5.106   0.511  0.0272  0.1886 -0.1434
15098W        W30907   0.504  12.739  14.673 -0.5435 -0.0316  0.1594
15099W        W30908   0.511   8.969  11.781 -0.2301  0.3017 -0.0104
15100W        W30909   4.832  11.711   4.660  0.1959 -0.2281  0.1961
15101W        W30910  14.813   1.260   0.227  0.0015  0.0922  0.1230
15102W        W30911  18.203  15.924   2.640 -0.0293  0.1126 -0.0142
15103W        W30912   1.844  15.559  12.979  0.2406  0.0204 -0.1152
15104W        W30913  14.622  16.886   1.349  0.2352 -0.0360 -0.0345
15105W        W30914  13.711  12.397   4.866 -0.0261  0.1924  0.1584
15106W        W30915  10.110  15.477   5.441  0.1717 -0.3030 -0.0082
15107W        W30916   4.808   3.195  12.796  0.0377  0.0465 -0.0288
15108W        W30917   7.648   0.655   1.323 -0.0578  0.0226 -0.1465
15109W        W30918  11.468   4.785  14.541 -0.2065 -0.0440  0.0095
15110W        W30919   4.033  14.906  14.108 -0.0147  0.0151  0.2483
15111W        W30920  14.505   4.312   1.308  0.2639 -0.0990 -0.0100
15112W        W30921  12.787  11.743   3.272  0.0700  0.1844 -0.0924
15113W        W30922  11.312   9.699   1.097 -0.0395 -0.2196  0.1391
15114W        W30923  14.635   5.411   1.252  0.1332  0.0750 -0.1163
15115W        W30924   0.388   4.237  11.015 -0.0531 -0.3479 -0.0379
15116W        W30925   9.400   8.791  14.179  0.0275 -0.0228  0.3023
15117W        W30926   4.005   2.872   1.804  0.0393  0.1400 -0.2628
15118W        W30927  18.435   5.355  13.634  0.2688 -0.0045 -0.1419
15119W        W30928  13.164   0.644  15.663  0.0059  0.1103 -0.3091
15120W        W30929  12.653  13.288  13.885  0.0615  0.1575 -0.0619
15121W        W30930   9.174  18.379  15.372  0.1234 -0.1882  0.0279
15122W        W30931  13.805   5.709  11.712  0.1571 -0.0053  0.0151
15123W        W30932  18.272  16.277  12.462 -0.2918  0.0104 -0.0831
15124W        W30933   2.833   2.636   3.143 -0.1712  0.0216  0.1339
15125W        W30934   1.011   5.668   4.777 -0.1614 -0.0035  0.1531
15126W        W30935   5.244   3.747   9.768  0.3269 -0.2217 -0.1007
15127W        W30936  14.266  10.978  15.321 -0.0166  0.1764 -0.0914
15128W        W30937   2.842   4.580  11.398  0.0074 -0.3256  0.0658
15129W        W30938  17.008  13.661  13.522  0.1444  0.1308 -0.1459
15130W        W30939  18.362   2.594  11.280 -0.1323  0.0148  0.0314
15131W        W30940  12.379  16.749  13.837 -0.2137  0.1666 -0.0297
15132W        W30941   6.185   1.519  13.331 -0.3087  0.0871 -0.0901
15133W        W30942   6.737   7.081   2.469 -0.0752 -0.2315  0.3140
15134W        W30943   6.819   1.488   3.054 -0.0909  0.1264  0.0804
15135W        W30944  15.945  12.882  15.787 -0.0809  0.0508 -0.2356
15136W        W30945   3.771  10.815   3.255  0.4353  0.1763 -0.1082
15137W        W30946  18.257   7.096   3.627 -0.0640  0.3367  0.0077
15138W        W30947   5.495   6.271  12.868  0.1227 -0.1156 -0.0718
15139W        W30948  15.746   1.419  14.583 -0.1775  0.1979  0.0746
15140W        W30949  18.225   0.173  10.958 -0.1776  0.2771 -0.1721
15141W        W30950   2.788  12.238  12.942  0.0962 -0.1158 -0.1943
15142W        W30951  15.847  13.517  13.140  0.0210 -0.3243 -0.0841
15143W        W30952   8.592  15.641  15.443  0.1607 -0.2188 -0.0359
15144W        W30953   2.237   7.475   0.696  0.0688  0.1731 -0.0179
15145W        W30954   9.022   6.039   1.742  0.3003 -0.0099 -0.1552
15146W        W30955  17.497   6.459  13.638  0.0511 -0.2211 -0.2706
15147W        W30956   9.642   2.067   0.643  0.2102 -0.2104 -0.2222
15148W        W30957   2.218  10.534   5.083  0.0167  0.3497 -0.0088
15149W        W30958   0.660  10.833  15.393 -0.2161  0.0529 -0.2005
15150W        W30959   3.983  13.706  11.414  0.0337  0.2056  0.4444
15151W        W30960  11.383   4.243   3.405 -0.0380  0.0476  0.0724
15152W        W30961   1.224  16.096  14.525 -0.2411 -0.1496  0.2455
15153W        W30962   3.426   4.562  12.875 -0.0095  0.1243  0.3580
15154W        W30963  17.314  10.054   0.081  0.3989 -0.0637  0.1248
15155W        W30964  13.178  10.429   2.594  0.2114  0.3223 -0.1092
15156W        W30965   8.552  12.335  11.317  0.0107 -0.2393  0.2456
15157W        W30966  10.823   7.116  13.994 -0.0592 -0.3796  0.1642
15158W        W30967  11.950  16.723   3.252  0.0922 -0.0815 -0.1040
15159W        W30968  17.393   4.993   0.272  0.1454 -0.1546  0.0720
15160W        W30969  14.861   4.168   2.997  0.1175  0.0391 -0.0831
15161W        W30970  14.476   6.351  13.866  0.1907  0.0152  0.0129
15162W        W30971   0.491   5.716   4.613  0.1881 -0.4436  0.1506
15163W        W30972  12.107  11.305   3.841  0.1272  0.2227 -0.2933
15164W        W30973   3.666  10.819  13.982  0.2481 -0.2073  0.2202
15165W        W30974   3.331   8.345  12.231 -0.0408 -0.0246 -0.0317
15166W        W30975   2.598   0.117  13.978 -0.2310  0.3985 -0.2160
15167W        W30976  13.343   3.332  15.392  0.1174  0.1584  0.2464
15168W        W30977   5.598  13.671  12.277 -0.1407  0.2833  0.1575
15169W        W30978   6.029   9.100   3.406 -0.0065 -0.0901 -0.1977
15170W        W30979  17.337  16.504  10.940 -0.0878 -0.0262  0.0985
15171W        W30980  15.666   5.384   4.781 -0.0746 -0.2847  0.3026
15172W        W30981   6.720   9.985  12.442 -0.1013  0.0935  0.2498
15173W        W30982  12.100  14.846   0.535  0.0535 -0.1197  0.0355
15174W        W30983   3.019   7.524   5.262  0.0399 -0.0672 -0.1257
15175W        W30984  12.829  11.501   4.543  0.1440 -0.1292  0.0493
15176W        W30985   2.271   2.748  10.402 -0.2691 -0.0103 -0.1478
15177W        W30986  12.110   4.030   5.127  0.0627 -0.0958 -0.0566
15178W        W30987   8.563   2.779  13.949  0.1627  0.1391  0.2440
15179W        W30988  17.597   9.418  13.543 -0.1987  0.4956 -0.2358
15180W        W30989  18.225  12.892  15.369  0.0197 -0.0706 -0.3136
15181W        W30990   7.835   6.492   2.451 -0.1041 -0.2555  0.0147
15182W        W30991  17.561   0.612  12.892  0.2535  0.0274 -0.0833
15183W        W30992   0.947   8.847   3.576 -0.3904 -0.1369  0.2272
15184W        W30993  17.923  12.918   5.056  0.1393 -0.0005  0.1364
15185W        W30994   0.304   6.178   0.910  0.0008  0.3495 -0.1120
15186W        W30995   5.041  17.466   1.519 -0.1018  0.2040  0.1818
15187W        W30996  16.329   2.314  12.492  0.0443 -0.3525  0.0221
15188W        W30997   6.940   5.276   3.639 -0.2416  0.0596 -0.1302
15189W        W30998   4.539  18.287   5.143  0.2519  0.1665  0.2453
15190W        W30999  11.394   4.584  12.743 -0.1326  0.1785 -0.1123
15191W        W31000   0.589   3.661  14.345  0.4941 -0.1164  0.1236
15192W        W31001  14.398   0.075  12.426 -0.0437  0.0085  0.0126
15193W        W31002   9.828  15.469   4.308 -0.2102 -0.2843  0.0167
15194W        W31003  18.152  14.658   4.006  0.1758  0.0914 -0.0827
15195W        W31004  10.143  11.866  15.301  0.3726 -0.1247 -0.0014
15196W        W31005  10.027  17.600   0.541  0.0284 -0.0660  0.1307
15197W        W31006  15.358  15.721   4.984 -0.0336 -0.0616  0.2126
15198W        W31007  16.873  15.977  11.846  0.1660  0.0005 -0.1316
15199W        W31008   0.039  16.295   1.102  0.1037  0.0211 -0.0546
15200W        W31009   4.446  15.215  14.002  0.1537 -0.1032 -0.0625
15201W        W31010   4.862  13.407  14.066  0.3386  0.1410  0.0087
15202W        W31011  11.193  17.144   2.749  0.1425 -0.0360  0.1879
15203W        W31012  12.917   5.611   1.273  0.1047  0.0464  0.3080
15204W        W31013   1.335   5.956   5.046 -0.2902 -0.1775  0.1015
15205W        W31014   9.963   9.733   5.323  0.1860 -0.1469  0.0707
15206W        W31015  14.109  16.732   1.565 -0.0222 -0.1374  0.0552
15207W        W31016  10.393   2.239  12.154 -0.1519 -0.2151  0.2362
15208W        W31017  12.938   4.636  13.107  0.4294  0.2176 -0.3939
15209W        W31018  10.682   4.665   0.396 -0.0792  0.2760 -0.0643
15210W        W31019  16.089  16.333   1.626  0.2029  0.0586 -0.1841
15211W        W31020  13.405   7.030  13.083 -0.1774 -0.1332 -0.0788
15212W        W31021  11.247  15.550   4.824  0.0713  0.2076  0.0185
15213W        W31022   0.381   8.195  13.236  0.0125 -0.2255  0.0481
15214W        W31023   3.936  14.159  12.843  0.2147  0.1680  0.0838
15215W        W31024  16.816   1.534   3.816 -0.1681  0.2071  0.1082
15216W        W31025   2.519  12.593   1.200 -0.1423  0.0737  0.1171
15217W        W31026   5.479  11.195   0.569  0.2129 -0.0701  0.1794
15218W        W31027   5.695  10.983   1.521  0.2687 -0.1610 -0.2214
15219W        W31028  17.268   2.903   4.509 -0.1217 -0.0540  0.0822
15220W        W31029   8.680  13.626   1.581 -0.1435 -0.0957  0.0065
15221W        W31030   1.248  13.071   3.358 -0.2680 -0.0860  0.0546
15222W        W31031  15.351  17.752  15.822 -0.0717 -0.3166 -0.0059
15223W        W31032   4.529  12.714  15.183 -0.0290  0.0937  0.0049
15224W        W31033  18.129   1.316   0.591  0.3504 -0.0718 -0.1875
15225W        W31034   2.326  10.396   3.309  0.1435 -0.2992  0.0848
15226W        W31035   6.142   5.034  12.589 -0.1917 -0.0056 -0.0262
15227W        W31036  17.779   2.495  15.148 -0.2161 -0.0131 -0.0950
15228W        W31037  12.320   2.571  15.421  0.0629 -0.0709  0.1494
15229W        W31038   8.285  11.172   0.610 -0.1423  0.0753  0.0185
15230W        W31039  11.049   4.062  15.793  0.1016 -0.0269 -0.0524
15231W        W31040   3.343   4.186   2.335 -0.0485  0.0939 -0.1000
15232W        W31041  15.023   8.415   1.753  0.1701 -0.0343 -0.1841
15233W        W31042   8.963   5.235   0.537 -0.1912  0.2627  0.0767
15234W        W31043   9.811   4.193  11.326  0.1035 -0.0898 -0.1084
15235W        W31044  16.673  18.369   4.645  0.0011  0.0310  0.0387
15236W        W31045  16.774  17.144   3.766  0.2152  0.1417  0.2591
15237W        W31046  11.302   5.700   5.505 -0.0696  0.0068 -0.0291
15238W        W31047   7.387  16.866  15.408 -0.2733  0.0086  0.0493
15239W        W31048   8.635   3.132   1.276  0.0179 -0.1519  0.0817
15240W        W31049  11.704   6.133  12.352 -0.3093  0.0859 -0.0907
15241W        W31050   9.008  15.568  12.792  0.1039  0.0500 -0.0627
15242W        W31051  13.949  13.402  15.353  0.1419  0.0227  0.1930
15243W        W31052   9.516  15.676  14.323  0.2507 -0.1622 -0.0249
15244W        W31053   2.498   1.804   1.155  0.0419 -0.0824  0.0332
15245W        W31054   3.835   2.369  14.623 -0.3508  0.0387 -0.2311
15246W        W31055   5.967   7.055   9.581 -0.0818 -0.0374 -0.1092
15247W        W31056   6.161  16.799   5.057 -0.2584  0.4569  0.0212
15248W        W31057  12.124   4.650   2.892 -0.0205  0.1354 -0.0388
15249W        W31058   0.560   3.518  14.823 -0.3336 -0.2095  0.0248
15250W        W31059   2.711   1.482  12.082 -0.0832  0.0536  0.0244
15251W        W31060   4.753   6.878  12.680 -0.1322 -0.2707  0.2159
15252W        W31061   5.407  15.042   0.591  0.0427  0.0700  0.1849
15253W        W31062   9.481   4.444  12.503 -0.1928 -0.0775  0.2514
15254W        W31063  17.911   0.367   2.348 -0.1410 -0.0993  0.0607
15255W        W31064   2.646  15.494  11.050 -0.0340  0.2390 -0.0292
15256W        W31065  10.197   0.684   3.586 -0.0256 -0.3368  0.0211
15257W        W31066   9.067  18.117  14.938  0.1323 -0.1805 -0.0218
15258W        W31067   4.205  18.351   2.733 -0.1039  0.1420  0.1623
15259W        W31068   2.668   9.559  11.148  0.2317  0.1552 -0.0322
15260W        W31069  11.202   7.013   2.082  0.1897 -0.1362 -0.1820
15261W        W31070   8.099  16.739   4.382 -0.2717 -0.0228  0.1748
15262W        W31071   3.924  17.977  11.649 -0.0588  0.1633  0.0909
15263W        W31072  12.768   6.515   1.900 -0.1963  0.0894 -0.1445
15264W        W31073   0.909   7.844   3.200  0.0409  0.0355  0.0142
15265W        W31074  16.279   7.826   1.828 -0.0543  0.1266  0.1479
15266W        W31075  18.412   5.408   0.519  0.0142 -0.1157 -0.0151
15267W        W31076  16.693  17.429   1.638 -0.0099  0.0356 -0.3473
15268W        W31077  12.544  11.865   5.346  0.1726 -0.2311  0.2136
15269W        W31078  12.548   7.529   2.995 -0.1092 -0.3501  0.2154
15270W        W31079   5.513   7.705   3.344 -0.0392 -0.0160 -0.0898
15271W        W31080   0.886  12.944   0.453  0.0329  0.2002 -0.1204
15272W        W31081  16.964   8.994   4.256  0.0976 -0.2192  0.1960
15273W        W31082   9.660   9.149  11.556 -0.0003 -0.1001 -0.0133
15274W        W31083   2.196   1.383   0.876  0.0848 -0.0531  0.2274
15275W        W31084  17.702  11.209  13.206  0.0410 -0.2366  0.0331
15276W        W31085   6.550   8.412   0.688  0.0403  0.0291  0.1811
15277W        W31086  18.021   4.666   0.862  0.0418  0.0973 -0.0967
15278W        W31087   0.160   4.892   5.748  0.0509 -0.3382  0.1789
15279W        W31088  14.243   0.530   2.607  0.0107  0.2026  0.1390
15280W        W31089   9.963   7.197  11.575 -0.2514 -0.2197 -0.0193
15281W        W31090  12.937  17.802   5.523 -0.1928 -0.1167 -0.0980
15282W        W31091  15.668  14.715   1.430  0.2215  0.0375 -0.2140
15283W        W31092   3.423  14.096   4.015 -0.0278 -0.0146  0.0138
15284W        W31093  14.643   9.789   1.444  0.0194  0.1173  0.1015
15285W        W31094   5.274  11.347  11.949 -0.0742  0.0796  0.1357
15286W        W31095   4.662   9.113  10.115  0.3315  0.0204  0.2411
15287W        W31096  18.306   5.628  14.122 -0.0078 -0.0800 -0.1669
15288W        W31097  13.121   2.720   0.493  0.0767 -0.0012 -0.0402
15289W        W31098   1.750   8.727  15.303 -0.0927 -0.0656 -0.1338
15290W        W31099   1.158   5.044   2.118  0.0168 -0.2125  0.1589
15291W        W31100   8.972   6.177  11.283  0.0874 -0.3074  0.4312
15292W        W31101   3.539   2.070  11.615  0.0704  0.0721  0.0259
15293W        W31102   5.491   7.194   2.194 -0.0613  0.0347 -0.0964
15294W        W31103   7.640  14.917  11.572 -0.0580  0.0552 -0.1254
15295W        W31104   1.383   2.738   3.612  0.3833  0.0657 -0.2578
15296W        W31105   3.992  14.487   5.247 -0.2075  0.0375  0.0658
15297W        W31106  10.453   8.428   4.951 -0.2696 -0.2620  0.2881
15298W        W31107   7.288   4.276  13.738 -0.0356  0.0948 -0.0148
15299W        W31108  12.279   2.204   4.834 -0.1204  0.0569 -0.2306
15300W        W31109  16.653   2.396  14.261 -0.2178 -0.2403  0.0659
15301W        W31110  10.542  12.830   5.029  0.2552 -0.1998  0.1447
15302W        W31111   3.208  17.557   0.024 -0.0366 -0.0451  0.0502
15303W        W31112  14.608   1.878   0.157  0.0211  0.1465 -0.0027
15304W        W31113  13.869   0.332   3.205  0.2138  0.2753  0.0386
15305W        W31114  16.165  15.933   2.469  0.1636  0.0731 -0.0536
15306W        W31115   3.388   9.889   1.382 -0.1151  0.0416  0.0031
15307W        W31116  13.508  10.936  14.512 -0.2078  0.1186  0.0689
15308W        W31117  11.151  18.024   2.310  0.1344  0.2347 -0.1211
15309W        W31118  13.564   2.142  14.583  0.0309  0.2753  0.2321
15310W        W31119  15.609   8.337  10.981  0.3911 -0.1437  0.0752
15311W        W31120  12.309   6.396   0.148  0.1612  0.3190 -0.0019
15312W        W31121  13.679   5.047  13.771 -0.2014  0.0106  0.1590
15313W        W31122  14.352   7.498  13.762 -0.1978  0.1223 -0.0993
15314W        W31123   9.763   6.995   3.316 -0.0428 -0.1821 -0.1036
15315W        W31124  17.563  12.402  13.660  0.1746  0.3006 -0.3783
15316W        W31125   3.053  11.944   2.948 -0.3053 -0.1340  0.1402
15317W        W31126   6.870   1.128   1.134  0.0564 -0.1583  0.2163
15318W        W31127   6.452   4.369  14.236  0.0955 -0.2926  0.3060
15319W        W31128  16.469  12.949  11.125 -0.2217 -0.4099  0.1780
15320W        W31129   6.421   2.795   2.898  0.3171 -0.1641 -0.0634
15321W        W31130  11.614   2.923  14.092 -0.1869 -0.1261  0.3169
15322W        W31131  13.964  13.171  11.932 -0.1213 -0.1292 -0.0330
15323W        W31132  15.334  17.842  11.379  0.0887  0.2011  0.1673
15324W        W31133   1.104   7.001   3.032 -0.2504 -0.0977 -0.0397
15325W        W31134  13.683   8.105  11.975  0.1436  0.2515  0.0857
15326W        W31135   4.300   1.745  15.584 -0.1815 -0.1920 -0.2003
15327W        W31136  13.304   2.792   0.029 -0.1597  0.0465 -0.0196
15328W        W31137  10.784  13.314  13.050 -0.0162 -0.2785 -0.1650
15329W        W31138   7.367  16.450  14.382 -0.0490  0.0733 -0.0270
15330W        W31139   6.233   4.906   0.636  0.0528 -0.3300  0.1172
15331W        W31140  15.847   1.929   3.929  0.2223 -0.2234  0.0288
15332W        W31141  11.818   9.892   1.064 -0.2530  0.1032 -0.1809
15333W        W31142   7.012   6.907  15.159 -0.0894  0.1026  0.2467
15334W        W31143   3.826  12.270   2.926 -0.0195 -0.1042  0.2712
15335W        W31144  13.160  10.710   0.141  0.2413  0.0097 -0.0472
15336W        W31145  11.984  13.507   1.424  0.3832  0.0624  0.0670
15337W        W31146   0.242  14.273   4.392  0.0284 -0.3667 -0.2576
15338W        W31147  13.077   5.720  12.441 -0.1763  0.2032 -0.2480
15339W        W31148  12.113   5.036  10.780  0.1936 -0.0713 -0.0470
15340W        W31149   2.367   9.223  13.077  0.3177  0.0545  0.0293
15341W        W31150   0.534   2.941  15.238 -0.0644 -0.2840  0.0076
15342W        W31151  15.359  15.274   4.588  0.1571  0.1113 -0.0185
15343W        W31152  11.324   6.844  14.733 -0.0912 -0.0079 -0.0858
15344W        W31153   4.608   3.530   0.698  0.1283  0.3047  0.0734
15345W        W31154   8.550  18.076  13.115  0.0671  0.0187 -0.2295
15346W        W31155  10.599   3.635   3.152 -0.1651 -0.1776  0.1164
15347W        W31156   4.438  10.067  14.724  0.0338 -0.1074  0.2209
15348W        W31157   0.322  11.780  12.969 -0.3038 -0.2280 -0.1578
15349W        W31158   6.705   6.649   4.877 -0.1226 -0.3113  0.0456
15350W        W31159  16.830  15.605  12.618 -0.0038  0.2097 -0.1544
15351W        W31160   8.897   1.879   2.942  0.2225  0.2531  0.1653
15352W        W31161   7.848  18.083   1.634  0.5108 -0.0069  0.1657
15353W        W31162  14.159   8.748  13.827  0.1258 -0.0240  0.1756
15354W        W31163   6.572   8.963  12.551  0.3629 -0.0735 -0.0534
15355W        W31164   6.595   5.092  10.078  0.2362 -0.0511 -0.0793
15356W        W31165   0.351   3.341  11.267 -0.4407 -0.1407 -0.0595
15357W        W31166   3.503  18.101   3.432 -0.0416  0.0669 -0.1508
15358W        W31167   9.256   3.086  14.897 -0.2294 -0.0421 -0.0857
15359W        W31168  17.607   1.030  14.127 -0.2501  0.2920 -0.2872
15360W        W31169  12.130   0.982  14.782 -0.0303  0.0261 -0.0330
15361W        W31170  18.141  11.766  15.646 -0.0436  0.3504 -0.1593
15362W        W31171  12.522  15.396   3.465 -0.2115 -0.1083 -0.3877
15363W        W31172   6.419   7.897   0.793 -0.1777 -0.1302  0.0291
15364W        W31173  10.381   7.438   0.219  0.1316 -0.0181  0.2220
15365W        W31174   6.933  10.188   1.555  0.1757  0.0721 -0.2911
15366W        W31175   1.459   0.635   1.999 -0.1025 -0.2978 -0.1359
15367W        W31176   0.020  12.931   2.730  0.1458  0.3482 -0.2868
15368W        W31177  14.026  12.316   3.033 -0.0359 -0.3199 -0.0046
15369W        W31178   1.577  10.411  11.550  0.0045 -0.0418  0.1318
15370W        W31179  18.184   9.190   2.436  0.1432  0.1645 -0.2800
15371W        W31180   1.107  13.863  14.981  0.0456 -0.0554 -0.0594
15372W        W31181   9.249   9.801  15.784 -0.3432 -0.0174 -0.0323
15373W        W31182  15.442  16.039   4.148 -0.0151 -0.2324 -0.1237
15374W        W31183  10.771  13.220   1.041  0.2645 -0.0566  0.2767
15375W        W31184   7.803  16.017   4.548 -0.2682  0.4118 -0.0507
15376W        W31185  11.521   5.738   2.739 -0.0522 -0.2398 -0.1457
15377W        W31186  12.743   2.171  14.155 -0.2698 -0.2061 -0.0395
15378W        W31187  11.655  13.769   4.090 -0.0006  0.0262 -0.0355
15379W        W31188  10.442   1.971  13.180  0.1794 -0.1818 -0.0035
15380W        W31189   6.956   6.925   4.370  0.3084 -0.0444 -0.1095
15381W        W31190  10.770   2.863  13.887 -0.1020  0.2156 -0.2396
15382W        W31191   2.739   2.767  11.693  0.0973  0.1306  0.0168
15383W        W31192  11.577  15.643   3.809 -0.0276  0.1289  0.2707
15384W        W31193  12.188  14.949  15.847  0.0829  0.0976  0.2114
15385W        W31194  15.031   7.857   3.999 -0.2011  0.0148  0.0406
15386W        W31195  14.816  15.006   1.193  0.4331 -0.2769  0.0523
15387W        W31196   2.704  12.690  13.251 -0.0536  0.1725  0.2977
15388W        W31197   4.094   8.528   2.787 -0.1467 -0.2020  0.1614
15389W        W31198   0.642  18.200   0.761  0.2589 -0.1435  0.1625
15390W        W31199  17.128  13.350   2.971  0.3091 -0.0895  0.0027
15391W        W31200  15.488   0.265  11.511  0.1795 -0.0117 -0.0637
15392W        W31201   2.552  13.811  11.573  0.0449 -0.3126  0.1278
15393W        W31202  10.421   2.340   3.021  0.0331  0.0405  0.1888
15394W        W31203   3.986   5.499   1.209 -0.1259 -0.0432  0.0365
15395W        W31204   3.692   6.317   0.440  0.1147 -0.0331 -0.0784
15396W        W31205  14.373  15.478  11.430  0.1484 -0.0476 -0.1043
15397W        W31206  10.884  13.776  14.120 -0.3147  0.0052 -0.2113
15398W        W31207   4.919   7.794  14.996 -0.4029  0.3507 -0.0063
15399W        W31208   3.246   8.099   0.474 -0.1169  0.1175 -0.1127
15400W        W31209  17.673  13.606   0.587  0.0301 -0.2712 -0.1210
15401W        W31210  17.324   4.092   2.810 -0.0052  0.1205  0.0422
15402W        W31211   7.051  15.419   1.633 -0.1638  0.1653  0.2580
15403W        W31212   6.364   9.401   1.523  0.0271 -0.0864 -0.0168
15404W        W31213   4.926   4.640  10.756  0.3387  0.1458  0.2709
15405W        W31214   1.385   0.880  14.269 -0.1067 -0.1182 -0.1525
15406W        W31215   8.939  14.406   1.083 -0.3709 -0.0940 -0.0787
15407W        W31216  12.868   8.533   1.724 -0.0388  0.0049 -0.3239
15408W        W31217  13.889   8.884  15.558 -0.1142 -0.0291  0.0664
15409W        W31218   9.767  15.383  13.326 -0.0289  0.0002 -0.2339
15410W        W31219   9.897   8.672  13.816 -0.0387  0.0173 -0.0586
15411W        W31220   1.042  16.509  15.213 -0.0278 -0.2842 -0.3516
15412W        W31221  11.987  10.716  10.444 -0.2257  0.0075  0.2908
15413W        W31222  10.786  10.373   0.029  0.0111  0.2445  0.1745
15414W        W31223  12.131  10.688   3.922  0.1953 -0.3590  0.2357
15415W        W31224  15.380   7.813  12.370  0.0223  0.0020 -0.4129
15416W        W31225   9.154  18.288   3.031 -0.0380  0.2304 -0.0413
15417W        W31226   7.112  17.362  10.682  0.0186 -0.0909 -0.2502
15418W        W31227  17.255   8.131   4.666  0.3319  0.1780 -0.0567
15419W        W31228  11.965   1.033   4.115 -0.0569  0.1608 -0.1800
15420W        W31229   0.333  15.987  12.314  0.0841  0.0663 -0.0553
15421W        W31230   3.949   0.904  12.259 -0.0912 -0.0727 -0.3299
15422W        W31231  13.035   7.610  15.355 -0.0383  0.0728  0.0421
15423W        W31232   3.523   6.354  13.779 -0.0844 -0.0114  0.0567
15424W        W31233  10.449   8.128   2.138  0.0256 -0.0852 -0.1048
15425W        W31234   5.860  17.039   2.430 -0.0815  0.1858  0.0570
15426W        W31235   5.190  13.696   4.776  0.1926  0.2168  0.0189
15427W        W31236   6.835  15.094   3.599  0.1036  0.0920  0.0967
15428W        W31237   7.406   4.050   3.492  0.0167 -0.0965 -0.1753
15429W        W31238  16.631  11.532  13.468  0.1805 -0.3701  0.0966
15430W        W31239  10.794   0.856  14.510 -0.0798  0.2195  0.0093
15431W        W31240  16.890   1.862  15.226 -0.3320 -0.1776  0.1084
15432W        W31241  12.733   5.237   4.806  0.3550 -0.0200 -0.1633
15433W        W31242  13.462  14.504  13.025 -0.0753 -0.1174 -0.0793
15434W        W31243   0.828  11.935   4.070 -0.1827  0.0833 -0.1080
15435W        W31244   4.142  12.367   5.264  0.2364  0.0114 -0.2704
15436W        W31245   8.126   1.955  15.434 -0.0303  0.0071  0.0944
15437W        W31246  13.055   1.302   4.645  0.1035  0.0275 -0.1247
15438W        W31247   9.097  10.636  15.300  0.1865 -0.4128 -0.0294
15439W        W31248  12.101   8.102  10.943 -0.1987  0.2744  0.2423
15440W        W31249  17.196   1.397   3.508  0.0708 -0.0177 -0.2362
15441W        W31250  17.752  11.668  11.177  0.1763  0.1663 -0.0222
15442W        W31251   0.721   1.352  14.343  0.0869  0.0109 -0.1126
15443W        W31252   9.812   2.666   3.464 -0.0165  0.0681 -0.0701
15444W        W31253  13.036   6.482  11.792 -0.1684 -0.0533 -0.2255
15445W        W31254  12.364  18.077   4.585 -0.1759  0.1377  0.0347
15446W        W31255  12.866   0.256   3.953  0.2202  0.0002  0.2367
15447W        W31256  17.959   3.478  13.004 -0.3074  0.0495 -0.1744
15448W        W31257  16.052   6.033  11.496 -0.0648 -0.3396 -0.2514
15449W        W31258   1.239  16.480  15.701 -0.3343 -0.0182 -0.0245
15450W        W31259  18.408  11.326  13.801 -0.1865  0.0256  0.0288
15451W        W31260   3.474  10.306  11.628  0.2702  0.2237  0.0178
15452W        W31261  11.069   9.267   3.534 -0.0877  0.4606 -0.0074
15453W        W31262   3.133  14.314   5.439 -0.0427 -0.1174 -0.1832
15454W        W31263   2.783  14.232  11.745 -0.1797 -0.0957  0.2013
15455W        W31264  11.448   8.216   0.110  0.0062 -0.1416  0.0239
15456W        W31265  13.081   6.706   4.359  0.0695 -0.1456  0.0091
15457W        W31266   9.397   2.412   3.584  0.0298 -0.0473  0.1299
15458W        W31267   3.800  14.764   0.619 -0.0290  0.1699  0.0385
15459W        W31268   5.128  12.816   5.456  0.1496  0.1993 -0.0505
15460W        W31269   0.066   0.326   1.034  0.1528  0.5431  0.1724
15461W        W31270  16.069  11.764  12.504 -0.0636 -0.0075 -0.0303
15462W        W31271   9.624   5.433  13.030 -0.1410 -0.1304  0.1575
15463W        W31272   1.180  18.390   3.679  0.0774 -0.1070  0.3490
15464W        W31273  10.676  13.748   1.182 -0.5882  0.1362 -0.0095
15465W        W31274  13.352   7.362  15.104 -0.0445 -0.0560  0.0194
15466W        W31275   7.660   6.278   1.566  0.2758 -0.0374 -0.1689
15467W        W31276  13.523   5.189   0.905  0.2863  0.0714  0.0435
15468W        W31277  11.595  14.807   3.995 -0.1429  0.0918  0.2762
15469W        W31278   5.749   7.406  12.325 -0.0905 -0.3767  0.3864
15470W        W31279  15.926   3.950   3.212  0.0928  0.0210  0.2853
15471W        W31280  14.029   9.667   5.147 -0.2684 -0.0788  0.0816
15472W        W31281  12.101  10.877   1.225 -0.0528  0.0452  0.0111
15473W        W31282   9.077   1.582   9.861  0.1920 -0.0387  0.0279
15474W        W31283   7.129  16.071   3.656  0.1827 -0.1233  0.3181
15475W        W31284   1.988   3.457   4.469 -0.1452 -0.1332  0.2917
15476W        W31285   7.733   2.104  12.339  0.0211  0.0847 -0.0238
15477W        W31286   8.425  17.275   3.350 -0.2641 -0.0539  0.0693
15478W        W31287  17.220   3.564   3.727  0.0225  0.1094 -0.0450
15479W        W31288   7.814  17.121   4.669  0.0027  0.0883 -0.4202
15480W        W31289  15.358  11.052   3.000 -0.0283  0.0657  0.5652
15481W        W31290  17.038  16.733  14.332 -0.1133  0.0052  0.1344
15482W        W31291  18.167  13.032  13.667  0.1697  0.1480 -0.0220
15483W        W31292  16.120  18.250  11.426 -0.1210 -0.1191 -0.2812
15484W        W31293  18.227  14.103   1.154  0.0393 -0.3338  0.1070
15485W        W31294   1.460   6.486  13.379  0.0707  0.2239 -0.2078
15486W        W31295   5.097   4.578  13.845 -0.3928 -0.2092  0.2659
15487W        W31296   9.857  16.019   2.325 -0.0860 -0.2083 -0.0336
15488W        W31297   2.189  15.996   3.879  0.3986  0.2190  0.0971
15489W        W31298   8.781  10.129  12.844 -0.2631 -0.1145 -0.0941
15490W        W31299   2.841   2.760   2.261 -0.0025  0.1280  0.4449
15491W        W31300  14.581   4.384   3.473 -0.0122 -0.2507  0.0283
15492W        W31301  13.189   9.750  13.577 -0.1266 -0.2613  0.0157
15493W        W31302   2.992   3.021   4.385 -0.2807 -0.0135  0.0316
15494W        W31303   2.711   5.344   0.399  0.2450 -0.0428  0.4371
15495W        W31304  18.127   4.468   3.119 -0.0661 -0.1349  0.1063
15496W        W31305   4.259   3.387   3.487 -0.0807  0.1157  0.0509
15497W        W31306   0.223  10.027   2.361  0.2994 -0.0755 -0.0685
15498W        W31307   1.779   6.840  12.748  0.3826  0.0339  0.0929
15499W        W31308  13.370   7.197  12.592 -0.3002 -0.1005 -0.0884
15500W        W31309  11.871   6.804   1.576  0.0574 -0.0858  0.0884
15501W        W31310  15.296   4.317   1.093  0.2245  0.2114  0.0438
15502W        W31311   3.436  12.490   2.528 -0.2460  0.2692 -0.0126
15503W        W31312   2.100   7.197  11.618  0.3149  0.0369  0.0475
15504W        W31313  16.303   8.505   5.371 -0.0172 -0.2170  0.1563
15505W        W31314   8.707   4.662  11.046 -0.3896 -0.3942  0.0537
15506W        W31315   8.782   0.020  13.761 -0.3657  0.0478  0.2305
15507W        W31316   5.057   7.398  13.372  0.1134 -0.1442 -0.2506
15508W        W31317   6.212  12.868  12.254 -0.0833  0.1299 -0.0118
15509W        W31318   0.427   6.422   2.126 -0.2785  0.0299  0.1884
15510W        W31319  18.311   5.545   2.242  0.3124  0.1264 -0.4190
15511W        W31320   6.051  12.936  14.887  0.1282  0.0605  0.2610
15512W        W31321   7.184   8.861  14.761  0.2750  0.3504 -0.1529
15513W        W31322   9.902   3.214  10.187  0.1144  0.0735  0.1903
15514W        W31323  13.540  12.125  15.636  0.2971 -0.0131 -0.1267
15515W        W31324  18.206  16.031  11.429  0.2227 -0.0284  0.0377
15516W        W31325  15.459  15.002  11.361 -0.0275  0.1021 -0.0914
15517W        W31326  15.142   5.737  11.656 -0.0644  0.1215 -0.0507
15518W        W31327   2.934  16.912  14.720  0.1679  0.1780 -0.1051
15519W        W31328  15.225   2.078  11.561  0.0631  0.1498  0.1542
15520W        W31329   8.639  18.142   4.606 -0.1895  0.0675  0.0498
15521W        W31330  12.426   2.840  14.893  0.1833 -0.2470 -0.0996
15522W        W31331  13.586  18.235  12.732 -0.3059  0.1432  0.0024
15523W        W31332   5.181   0.077  13.842  0.0855 -0.2683  0.4034
15524W        W31333   3.665   5.999   2.841 -0.0392 -0.1060  0.5062
15525W        W31334  14.096  17.167  15.042  0.1786 -0.1027  0.1114
15526W        W31335   1.113   2.738  14.975 -0.1957  0.1590 -0.1886
15527W        W31336  13.155   1.202  12.064  0.0470  0.1844  0.0634
15528W        W31337  13.996  10.912   1.202  0.0339 -0.3555  0.1603
15529W        W31338  11.910  18.160   4.556  0.2402 -0.0106 -0.0552
15530W        W31339  12.903   7.073  12.875  0.1116 -0.0515  0.0361
15531W        W31340  12.893  12.212  11.032  0.0513 -0.0648  0.0495
15532W        W31341  10.956  18.254  13.501 -0.0526  0.0712  0.0324
15533W        W31342  14.501   4.470  14.504  0.0677  0.1466 -0.0108
15534W        W31343   5.099  16.571  15.078 -0.0878  0.0557  0.3419
15535W        W31344   1.386   5.197  12.135  0.0912  0.1295  0.1115
15536W        W31345  15.351   8.545   3.117  0.0626  0.0558 -0.0282
15537W        W31346  16.862  14.240   3.505 -0.0274  0.1761 -0.1587
15538W        W31347   0.852   4.470  11.357 -0.2115  0.0720  0.0955
15539W        W31348  17.197  11.640  12.553 -0.1879  0.0651 -0.4807
15540W        W31349  17.290  17.594  11.128  0.0242  0.0775 -0.0439
15541W        W31350  16.790   6.694   0.417 -0.0411 -0.2497  0.1703
15542W        W31351   0.300   8.575   3.147  0.0082  0.0027 -0.1046
15543W        W31352  13.577   1.745   2.455 -0.2574  0.1322 -0.2370
15544W        W31353  11.566  15.242  15.271  0.0397 -0.1387  0.3041
15545W        W31354   7.363  16.900  12.063  0.3607  0.0868 -0.6398
15546W        W31355  18.432   2.964  15.426  0.0771 -0.0205 -0.0066
15547W        W31356   1.695   4.290  15.127  0.0451  0.0057 -0.2687
15548W        W31357  11.200  10.688   3.584 -0.1352 -0.2175  0.0863
15549W        W31358  14.043   7.579  12.164 -0.1404  0.0005  0.0009
15550W        W31359   2.900   8.130  12.598 -0.5491  0.1580 -0.1495
15551W        W31360   2.452  15.901   2.048 -0.0367 -0.1219  0.1351
15552W        W31361  13.499   1.268   3.251 -0.0370  0.2044 -0.1605
15553W        W31362  17.011   5.402   2.121  0.1034  0.0743 -0.2841
15554W        W31363   9.483   1.932   3.919  0.0135 -0.1685 -0.0131
15555W        W31364   6.312   6.603  14.311 -0.2193  0.1022  0.2235
15556W        W31365   8.722   1.415  15.033  0.0200  0.2446  0.2606
15557W        W31366  17.404  12.526  15.096  0.0070  0.2465 -0.0135
15558W        W31367   1.805   4.654   5.033 -0.1392 -0.1069  0.0075
15559W        W31368   9.448  18.255   1.073  0.0836 -0.3938  0.3603
15560W        W31369   9.574  18.329   3.439  0.1045 -0.0196 -0.0847
15561W        W31370   8.917  17.589   4.921  0.2049 -0.0143 -0.0025
15562W        W31371   9.474   9.664  10.003  0.1857  0.1869 -0.2608
15563W        W31372   1.960  13.431  15.587  0.0059 -0.2832 -0.3578
15564W        W31373   7.377  11.664  15.770  0.1507 -0.2195  0.2872
15565W        W31374  11.789   0.280   2.426  0.1099 -0.1412 -0.0926
15566W        W31375  16.503   2.263   2.508 -0.0605  0.2322  0.3045
15567W        W31376   1.042  12.805   0.893 -0.0049  0.3908 -0.3907
15568W        W31377  15.988   8.549  10.703 -0.0802  0.0216 -0.0474
15569W        W31378  18.232   1.246   4.017 -0.0256 -0.1599  0.0140
15570W        W31379   8.460   5.436  13.300 -0.1709 -0.2077 -0.2407
15571W        W31380  12.176   9.404  11.418 -0.0231 -0.1038  0.0827
15572W        W31381   7.925  14.311  14.196  0.0802 -0.0007 -0.0861
15573W        W31382  11.506  14.423  11.941  0.2634  0.1172 -0.0376
15574W        W31383   7.843   7.968   2.349  0.1557  0.1491 -0.1724
15575W        W31384  16.695   3.667   1.209  0.3641  0.0327 -0.0156
15576W        W31385  11.979  11.716   0.434 -0.0178  0.3533 -0.2940
15577W        W31386  10.164  17.419   2.192 -0.0652  0.1002 -0.1025
15578W        W31387  17.995   2.653  13.066 -0.0260 -0.2046  0.1332
15579W        W31388   2.655   1.353  14.685  0.0015 -0.1119 -0.1072
15580W        W31389  10.881   1.732   3.249  0.0213  0.0935  0.0293
15581W        W31390  13.579   8.675   2.091 -0.4058 -0.3095 -0.0599
15582W        W31391   0.546   2.019  13.096 -0.2626  0.1010 -0.4510
15583W        W31392  15.162   3.035  14.296 -0.2644  0.3188 -0.0410
15584W        W31393   6.343   3.415   3.747 -0.1518  0.0053  0.0253
15585W        W31394  15.378  13.808  11.622  0.1120 -0.3581  0.0980
15586W        W31395  17.445   7.266  12.176  0.1639  0.0647 -0.1750
15587W        W31396   9.946   5.357  11.154  0.1229 -0.1625 -0.1687
15588W        W31397   0.749   6.616   1.789  0.1406 -0.0044  0.2160
15589W        W31398   7.413   9.887  15.727  0.2658  0.2727 -0.1311
15590W        W31399  12.029  17.135  14.065  0.2022  0.0775  0.2948
15591W        W31400   5.936   0.560   4.172 -0.1724  0.2235 -0.3689
15592W        W31401   0.817   9.688   4.945  0.0675  0.1032 -0.1726
15593W        W31402   6.471   8.595  14.217 -0.1043 -0.0639 -0.0818
15594W        W31403   3.725   3.342  15.261 -0.2259  0.1839 -0.2622
15595W        W31404   9.314   4.436   4.739  0.1655  0.0661  0.0544
15596W        W31405   9.227   4.433  12.025  0.1861 -0.0479  0.4247
15597W        W31406  12.105   0.402   1.994  0.0049  0.1047  0.1784
15598W        W31407  17.433   2.203  11.788 -0.1828  0.0378  0.1721
15599W        W31408  11.803  14.439   0.505  0.2027  0.1109 -0.3144
15600W        W31409  17.568  11.809   1.699 -0.0777  0.2041 -0.2405
15601W        W31410  15.092   4.863  10.600  0.0686  0.2227  0.3500
15602W        W31411  11.764   5.182  15.755  0.0100  0.4451  0.2917
15603W        W31412  13.735  10.072   2.466  0.0273 -0.2127 -0.0217
15604W        W31413   0.371   8.816   4.285  0.1290  0.2237  0.2343
15605W        W31414   7.864   7.581   1.946 -0.0958 -0.0785  0.1432
15606W        W31415  14.156   9.237  11.169 -0.1224  0.2739 -0.3033
15607W        W31416   4.932  17.182  11.094  0.1965 -0.3087 -0.0828
15608W        W31417   7.081   0.292  12.901 -0.2377  0.0111 -0.2485
15609W        W31418   7.227   0.653   5.509 -0.2124 -0.2219 -0.1027
15610W        W31419   1.825  16.710   4.492 -0.0432 -0.0106 -0.3603
15611W        W31420   0.194   1.620  14.583 -0.1776 -0.0414  0.2971
15612W        W31421  17.860   0.849   0.655 -0.2454 -0.3396 -0.1494
15613W        W31422   9.308   9.756  13.728  0.2949 -0.0451 -0.1028
15614W        W31423  13.886  10.101  13.642  0.0725 -0.0128 -0.3683
15615W        W31424  16.931  12.942  14.250  0.0419 -0.1319  0.2806
15616W        W31425   1.610   9.312   1.448 -0.3142  0.0069  0.1620
15617W        W31426   0.421  13.242   0.490 -0.2590 -0.1798  0.0557
15618W        W31427  17.271  17.878  14.340 -0.1795 -0.0053  0.0678
15619W        W31428   8.536   0.016   5.878  0.1385 -0.0500 -0.1905
15620W        W31429   0.028   8.172   1.720  0.0129  0.0409 -0.0027
15621W        W31430  11.177   8.747   1.343 -0.0205 -0.2152 -0.0031
15622W        W31431  11.371   9.204   0.021 -0.0296 -0.0338  0.1783
15623W        W31432  11.698   7.208   2.458 -0.0307 -0.0390 -0.2356
15624W        W31433  15.798  17.331  15.045 -0.0205  0.0643  0.2712
15625W        W31434   0.043   7.757   4.941  0.1892  0.3087  0.0746
15626W        W31435  16.557   8.969  15.082 -0.0295  0.0068 -0.1712
15627W        W31436  16.019   6.326   1.333  0.0678 -0.0512  0.4182
15628W        W31437   9.138   2.629  14.755 -0.2433 -0.1171 -0.0630
15629W        W31438   0.752  16.657  10.777 -0.2608  0.0896 -0.1248
15630W        W31439  12.537   7.427   3.479 -0.1671 -0.0472 -0.1824
15631W        W31440  11.449  12.191  14.365  0.0130 -0.2060 -0.2160
15632W        W31441   3.429   9.725  14.990 -0.1442 -0.0120 -0.0418
15633W        W31442   9.052   0.068   1.574  0.1938  0.3250  0.0187
15634W        W31443   1.714   7.121   4.133 -0.3087 -0.2139 -0.0195
15635W        W31444  15.054  13.513  14.051  0.3233 -0.1582 -0.0329
15636W        W31445   4.232   7.632   4.907 -0.0667  0.3020  0.2293
15637W        W31446   9.567   7.957  12.660 -0.0047 -0.1684  0.1495
15638W        W31447  12.596  15.249   0.232 -0.0045  0.0121 -0.2373
15639W        W31448   5.587  17.865   2.446  0.1546 -0.2139 -0.2738
15640W        W31449  14.862  18.073   3.069 -0.1593 -0.1838  0.2236
15641W        W31450   8.695   7.744  11.516 -0.0019  0.3589 -0.2764
15642W        W31451   5.918  16.005   2.210 -0.0580  0.1801 -0.0679
15643W        W31452  15.479  16.823   0.471 -0.1414  0.3083  0.1103
15644W        W31453  11.644  13.490  12.911 -0.2380  0.1149  0.3807
15645W        W31454  10.503   3.422  15.334  0.0304 -0.0205  0.0781
15646W        W31455   6.471   1.817   2.625  0.2016 -0.1774  0.0856
15647W        W31456   4.342   8.155   4.915  0.3527  0.0169 -0.0918
15648W        W31457   7.031  10.096  11.787  0.0737 -0.1769  0.3411
15649W        W31458   0.514  13.155   4.013 -0.1802 -0.0332 -0.2902
15650W        W31459  10.617  15.933  12.470 -0.2531 -0.0757 -0.0642
15651W        W31460   0.220   8.678  13.108  0.1506  0.0023 -0.0682
15652W        W31461  13.780  15.012   9.852 -0.1123  0.2714  0.2313
15653W        W31462   5.487   6.979  14.802  0.0138  0.1099 -0.0234
15654W        W31463  10.296  16.118   2.471 -0.2570 -0.2157 -0.2660
15655W        W31464   0.518  12.787   0.936 -0.0876 -0.1262  0.0803
15656W        W31465  14.037   3.790   2.146  0.3828 -0.1168  0.1372
15657W        W31466   3.548   8.446  15.656  0.0281  0.2261  0.3830
15658W        W31467  14.808   7.579   2.784 -0.0636  0.1807 -0.0900
15659W        W31468   4.218  17.807  15.779 -0.1551  0.0103  0.0467
15660W        W31469   2.772   9.319   2.536 -0.1378  0.4035  0.1468
15661W        W31470   1.834   4.957   3.112 -0.4942  0.1569 -0.0526
15662W        W31471   5.464   5.239  11.982  0.1921  0.0183  0.5212
15663W        W31472   4.397  15.403  10.774 -0.1297  0.2273  0.4062
15664W        W31473   5.028   4.463  13.323  0.2969 -0.3559  0.2226
15665W        W31474  18.423   7.047  13.100  0.1498 -0.2024  0.2150
15666W        W31475  18.406   2.901   4.060 -0.3385 -0.2150 -0.0479
15667W        W31476   0.835  11.272  15.461 -0.1202 -0.2019  0.0366
15668W        W31477  14.116  16.888   9.906 -0.0994 -0.1489  0.0135
15669W        W31478  18.332   9.257   0.876 -0.0669 -0.0954 -0.0065
15670W        W31479  15.930   5.728  12.080 -0.3092  0.0332  0.1732
15671W        W31480   6.929  12.188   4.520 -0.2010 -0.2056 -0.0350
15672W        W31481   9.272  17.624   2.525  0.0865  0.1441 -0.1433
15673W        W31482  14.849   8.369   3.405  0.2796 -0.1031 -0.2048
15674W        W31483   7.926  17.232   3.019  0.0754  0.0675  0.2164
15675W        W31484  10.384   9.640   4.972 -0.2834  0.0228  0.1832
15676W        W31485   6.695   2.971  11.445 -0.1406  0.2445  0.2013
15677W        W31486  13.698   8.942  12.831 -0.1143  0.2249 -0.2764
15678W        W31487  12.555  10.632   2.154 -0.0415 -0.0212  0.3378
15679W        W31488   1.958   7.481   5.093 -0.0516 -0.0468 -0.0545
15680W        W31489  17.663  12.722   0.441  0.1647  0.1373  0.2506
15681W        W31490   6.893   1.536  11.039  0.3738 -0.2662 -0.1196
15682W        W31491   3.930  15.583   1.887 -0.1172 -0.0331 -0.0892
15683W        W31492   6.013   5.368   0.453 -0.0967  0.2229 -0.1614
15684W        W31493  15.637   0.546   0.106  0.0090 -0.0713 -0.2301
15685W        W31494  18.115   8.923  14.442  0.2475  0.1500  0.0353
15686W        W31495   4.209  18.429   3.580  0.2680  0.1218  0.4771
15687W        W31496  18.201  14.918  14.448  0.2875  0.0802 -0.1922
15688W        W31497  16.135   8.222  12.811  0.1522  0.0656  0.1725
15689W        W31498  10.059   2.614  15.854 -0.2393  0.1865  0.1405
15690W        W31499   1.831   7.485  11.376  0.2188 -0.0058  0.0785
15691W        W31500   3.789   7.481  14.278  0.0770  0.0566 -0.1746
15692W        W31501   3.231   6.533   6.055  0.1757 -0.0573 -0.2782
15693W        W31502  13.958   1.984  14.880  0.0995 -0.2813 -0.0976
15694W        W31503  14.072  17.543  14.275 -0.1894  0.0850  0.3314
15695W        W31504  12.111   5.900  11.980  0.1071 -0.3706  0.0762
15696W        W31505   6.619  10.617   0.526 -0.0316 -0.3547  0.1942
15697W        W31506  14.437   7.994   4.517  0.1179  0.1598 -0.1336
15698W        W31507  15.135  11.399  14.131 -0.1271  0.0677  0.3380
15699W        W31508   3.536   4.310  15.403  0.1303  0.2874  0.2588
15700W        W31509   8.914   6.336   0.798  0.2627 -0.0777  0.1331
15701W        W31510   2.482   4.104  11.782 -0.4548  0.1799  0.1079
15702W        W31511   8.275  12.487   4.767 -0.0713  0.0045 -0.1499
15703W        W31512   8.480   6.337  11.228  0.0107 -0.1563 -0.0893
15704W        W31513  12.288   6.630  11.843  0.4635  0.1066 -0.0791
15705W        W31514  11.810   6.816  12.583  0.3836 -0.2718 -0.2186
15706W        W31515  16.143   7.387  11.740  0.1421  0.0240  0.1057
15707W        W31516  15.164  14.575   2.428  0.0082  0.3326  0.1631
15708W        W31517   0.926   9.622   2.477  0.0189 -0.3324 -0.1520
15709W        W31518   5.748   3.736  10.916 -0.1547  0.0739 -0.0384
15710W        W31519   5.483  10.172  14.229  0.1132 -0.2399 -0.3248
15711W        W31520  14.845   7.591   2.199 -0.0187  0.2050 -0.1272
15712W        W31521  13.385  13.389  15.045  0.0367 -0.0386 -0.0768
15713W        W31522  13.298   4.136  15.196  0.0015 -0.1520 -0.1869
15714W        W31523   2.714  13.800   4.076 -0.0866 -0.0549  0.0373
15715W        W31524  18.306   3.056  12.168  0.2482 -0.1665 -0.3565
15716W        W31525  16.742   3.470  15.400  0.2147 -0.2332 -0.0149
15717W        W31526   7.255   5.836  10.925 -0.1007 -0.0005  0.2753
15718W        W31527  15.207   4.479  13.628 -0.0280  0.0593 -0.0285
15719W        W31528   6.894   8.077   1.709 -0.0905 -0.1958 -0.0118
15720W        W31529   7.075   4.900   2.291  0.0794 -0.1901 -0.2139
15721W        W31530  14.186  13.566   0.316 -0.4819  0.1970 -0.0107
15722W        W31531  10.791   5.957  14.596  0.2414  0.1479  0.4832
15723W        W31532  12.047  11.261  10.486 -0.4856  0.0403  0.0698
15724W        W31533   0.789   3.047  10.402 -0.1933 -0.0153 -0.0521
15725W        W31534  12.755  16.284  12.197  0.0596  0.1319 -0.0085
15726W        W31535   7.696   5.856   3.641 -0.2546  0.1153 -0.0109
15727W        W31536   6.846  12.233  13.034 -0.1544  0.1448 -0.1644
15728W        W31537   7.917   5.004   3.620 -0.0083  0.3002 -0.0914
15729W        W31538   6.009  17.697   1.658 -0.1351 -0.1138  0.0595
15730W        W31539  12.706  12.028   1.046  0.0638  0.0079  0.0907
15731W        W31540  13.543   0.892  14.326 -0.1672  0.1891  0.0733
15732W        W31541  15.572  11.160  14.412 -0.1019  0.0877 -0.0714
15733W        W31542  14.363   9.753  10.331 -0.1278  0.0908 -0.0276
15734W        W31543  11.718  15.279  15.777 -0.1643 -0.1228 -0.0974
15735W        W31544   2.131   3.101  13.121 -0.1668 -0.2152 -0.2377
15736W        W31545   1.971   4.404   4.667 -0.3228 -0.2916 -0.0353
15737W        W31546   1.752   2.834  12.840  0.2458 -0.1390 -0.2905
15738W        W31547   4.031   9.484   0.660 -0.1342 -0.1076 -0.1488
15739W        W31548  17.289   3.529  13.453 -0.1337 -0.3050 -0.1003
15740W        W31549   5.110   3.043   4.295  0.1172 -0.0337 -0.0019
15741W        W31550  16.624  11.455  11.414  0.0955 -0.0968 -0.1096
15742W        W31551   5.060  18.297  11.208  0.0969  0.1261 -0.2064
15743W        W31552   6.821   1.715   4.337 -0.0464  0.3198 -0.0534
15744W        W31553   6.968   8.428  12.456 -0.1308  0.2115 -0.0321
15745W        W31554   9.688  13.261   3.189 -0.3766 -0.1872 -0.1003
15746W        W31555   3.245  11.539   4.857  0.0239 -0.1003  0.0293
15747W        W31556  13.132  13.083  13.800 -0.1094  0.0387  0.3117
15748W        W31557   6.025  12.199  14.281 -0.1553 -0.0112  0.0153
15749W        W31558   3.286  12.364   2.988  0.0857 -0.1034  0.2012
15750W        W31559  10.421  13.921   0.551 -0.0167  0.1062 -0.1132
15751W        W31560   3.124   7.065  15.304  0.1594 -0.4744  0.2304
15752W        W31561   1.980  10.847   4.109  0.2587 -0.2010  0.1644
15753W        W31562  11.135   3.513   3.851  0.2134 -0.0833 -0.0443
15754W        W31563  11.592   1.528   5.257  0.1754 -0.0189  0.1533
15755W        W31564   6.170  11.182  12.193 -0.0130  0.1132  0.1886
15756W        W31565   3.940   4.287   4.618 -0.0227 -0.1430 -0.0325
15757W        W31566   8.372   9.554  13.638  0.4731  0.1397 -0.0646
15758W        W31567   2.883  10.134   2.454 -0.0533  0.0302 -0.0080
15759W        W31568   8.700   0.943   0.357  0.0305  0.0723  0.0168
15760W        W31569   2.089   4.145   9.675  0.2321  0.0212 -0.1305
15761W        W31570   2.835   4.535   0.969 -0.2259 -0.0471 -0.0458
15762W        W31571  16.933  16.769   3.474 -0.6299 -0.1546 -0.0515
15763W        W31572   2.914  13.682  11.147  0.2056  0.0122  0.0168
15764W        W31573  14.296  18.254   4.115 -0.2696 -0.1506  0.0662
15765W        W31574   2.771   2.099   1.504  0.1720  0.0788  0.3116
15766W        W31575   9.871   1.924  11.036 -0.1881  0.0423 -0.1494
15767W        W31576   2.123   5.418  11.898  0.0167  0.1428  0.5234
15768W        W31577   5.682  14.122  13.264 -0.0816  0.2532  0.0716
15769W        W31578   4.942   3.874  14.973 -0.1940  0.2327 -0.1900
15770W        W31579   9.947  16.607  11.355 -0.1161  0.1085  0.3177
15771W        W31580  12.242  17.571  14.982  0.2986 -0.2962 -0.1123
15772W        W31581   0.052   3.076   2.575  0.2020 -0.1818 -0.3330
15773W        W31582  11.759   4.649  15.631  0.1569  0.2953  0.1393
15774W        W31583  15.420  11.190  13.322 -0.0264 -0.0512 -0.0601
15775W        W31584   4.676   3.631   0.136  0.0398 -0.0036 -0.0551
15776W        W31585  11.865   8.117   1.009 -0.1839  0.2869  0.1256
15777W        W31586   8.929  16.596  11.711 -0.1941 -0.1474  0.2903
15778W        W31587   9.028  15.387  12.206 -0.1170  0.3606  0.2864
15779W        W31588  10.338   0.278   1.127  0.0181 -0.0029 -0.1130
15780W        W31589  15.772   0.737  11.950  0.2415  0.1607 -0.2898
15781W        W31590  10.677   0.199   4.133 -0.1452  0.0269  0.2389
15782W        W31591  11.977  18.344   1.072  0.3328 -0.2129 -0.0992
15783W        W31592  13.310  14.120   4.869  0.0523  0.2418 -0.0381
15784W        W31593  12.910  10.398  12.964 -0.0052 -0.1723 -0.3352
15785W        W31594  15.089   3.129  13.284 -0.0622 -0.1423 -0.0726
15786W        W31595  13.850   0.594   2.268  0.0030  0.0056  0.0303
15787W        W31596  16.109  12.777   1.237 -0.1921  0.1117  0.0804
15788W        W31597   1.616  17.614   4.100  0.0313  0.5164  0.2120
15789W        W31598  11.195  17.433   0.178  0.0866 -0.0201 -0.2117
15790W        W31599   6.381   2.042  12.560 -0.1339 -0.4911  0.2064
15791W        W31600   2.319   0.699   9.987  0.2571 -0.1274 -0.0665
15792W        W31601   8.914  15.148   0.393 -0.0324  0.0422  0.0254
15793W        W31602  16.127   1.767   1.704 -0.1172 -0.1821  0.2191
15794W        W31603  14.257   3.643   0.488  0.1407  0.0500  0.2961
15795W        W31604  11.556   4.757  11.729  0.0244  0.0248 -0.1241
15796W        W31605   3.014  15.386  15.484  0.0800 -0.0601 -0.1234
15797W        W31606  10.883   8.139   0.773  0.0795  0.1373  0.0896
15798W        W31607   4.899   2.848  13.386  0.2012 -0.2036 -0.1443
15799W        W31608  15.679   3.816  14.224 -0.2099 -0.1569 -0.1772
15800W        W31609  14.807  10.063  13.210  0.0539 -0.1605 -0.0955
15801W        W31610  13.782   4.552   1.961  0.1605  0.1573  0.1330
15802W        W31611   4.298   9.764  15.769 -0.0980  0.1008 -0.0664
15803W        W31612   0.509   0.537   1.114 -0.2609  0.0052 -0.2053
15804W        W31613  10.842  17.577  15.027 -0.1490  0.1377  0.0973
15805W        W31614   7.850  17.040   1.494  0.0141  0.0789 -0.0096
15806W        W31615   7.636  17.697  15.292  0.1483  0.0429 -0.0134
15807W        W31616   9.748   9.141   3.970  0.0755 -0.3510  0.0796
15808W        W31617  13.513   1.571  11.700  0.2924 -0.1651  0.0563
15809W        W31618   5.322   2.607   4.495 -0.3268 -0.3388  0.1972
15810W        W31619  15.930  14.566  10.817 -0.1026 -0.1692  0.1037
15811W        W31620   4.262  10.974   3.094  0.0246  0.0311  0.2466
15812W        W31621  10.352  11.531   4.261  0.1137 -0.1240  0.1207
15813W        W31622   5.770  12.592   2.314 -0.1293  0.1025  0.0468
15814W        W31623  11.644   5.977   4.096 -0.0227 -0.0711  0.1799
15815W        W31624  10.994   7.601   0.821  0.0164  0.0347  0.0724
15816W        W31625  13.465   1.611  13.572 -0.1253 -0.0707  0.1283
15817W        W31626   0.626   1.913   2.429 -0.0262  0.0830 -0.3133
15818W        W31627   3.485   2.337   3.619 -0.1788  0.0145  0.1355
15819W        W31628   3.788  12.018   0.619 -0.0078 -0.0414  0.1183
15820W        W31629  12.974  13.481  14.532 -0.1550  0.2168 -0.1193
15821W        W31630   0.036  13.682   1.188 -0.0104 -0.1121 -0.1952
15822W        W31631  17.202  10.626  14.579 -0.0428  0.3373  0.3560
15823W        W31632   9.565  10.708  13.812 -0.2322 -0.0317  0.1662
15824W        W31633  13.482  16.925   5.747 -0.1919 -0.0306 -0.2517
15825W        W31634   4.431  12.310   1.300 -0.1835  0.3197 -0.0032
15826W        W31635  10.518  17.226   3.939 -0.3371 -0.1495  0.4014
15827W        W31636  12.666   7.032   3.112 -0.1194 -0.0994 -0.1598
15828W        W31637   3.081  13.626   0.391  0.1800  0.2053 -0.2099
15829W        W31638  11.171  13.272   1.996 -0.0516  0.0921 -0.0435
15830W        W31639   0.973   2.205  14.168  0.1151 -0.2561 -0.1141
15831W        W31640  12.091   6.238  11.591  0.0761  0.2924  0.2905
15832W        W31641   9.815  12.322   2.863  0.2964  0.2063  0.2315
15833W        W31642  12.867  10.005  10.455 -0.3463 -0.0267 -0.2798
15834W        W31643  10.135   8.857  15.848  0.0598  0.1032 -0.1349
15835W        W31644   7.443   4.533  12.284 -0.0125  0.2914 -0.0192
15836W        W31645   5.830   9.046  13.091 -0.0848  0.4198 -0.1249
15837W        W31646  17.227  11.940   4.338 -0.1772 -0.1184 -0.0041
15838W        W31647   0.793  15.482   3.460  0.1200  0.3420 -0.4585
15839W        W31648   7.279   4.859   1.038  0.0197  0.1473 -0.0467
15840W        W31649   9.232   7.005   4.918  0.2343  0.2515 -0.1535
15841W        W31650   4.455   1.607  15.140 -0.0764 -0.2604 -0.0712
15842W        W31651  11.254   4.718   3.176 -0.1348 -0.2262 -0.1002
15843W        W31652  13.774  16.952   0.311 -0.0192  0.0665  0.1353
15844W        W31653  13.805   8.396   3.360  0.0037  0.0261 -0.1072
15845W        W31654  13.675  17.974  12.311  0.0489  0.0275  0.1150
15846W        W31655  12.355  13.697  11.743 -0.1065 -0.0953 -0.0089
15847W        W31656   6.223   8.749   4.363  0.0693  0.0585  0.0731
15848W        W31657   3.902   9.699  13.394 -0.3921 -0.0575  0.0142
15849W        W31658   8.951   8.079  13.731  0.3272 -0.0902  0.2338
15850W        W31659   0.477  18.186  10.538 -0.0791  0.0509 -0.0837
15851W        W31660   8.005  17.532  15.590 -0.0372 -0.2424  0.3039
15852W        W31661   8.386  18.082  11.092  0.0033  0.2749  0.1246
15853W        W31662  10.642  18.435  11.833 -0.0404  0.0489 -0.0211
15854W        W31663  15.492   2.477  11.500  0.0551  0.0054 -0.1636
15855W        W31664   9.353   6.376  12.087 -0.2192 -0.2169  0.2421
15856W        W31665   6.723  14.543   5.290  0.1770 -0.0532 -0.1776
15857W        W31666  11.734   1.629   3.336  0.1625  0.1963 -0.0845
15858W        W31667  16.324  10.534  12.553  0.0336 -0.0142  0.0128
15859W        W31668   2.453   8.692  13.255 -0.2309  0.2239 -0.2423
15860W        W31669   9.889  13.477   0.060  0.1298 -0.1573 -0.0996
15861W        W31670   9.805   0.545  13.790 -0.0080  0.1074 -0.0691
15862W        W31671  12.670  13.393   2.565  0.1981 -0.0324  0.1103
15863W        W31672   0.625   9.578   0.411  0.1449 -0.1595 -0.0553
15864W        W31673   2.996  11.292   4.016  0.2195  0.1308 -0.1822
15865W        W31674  17.178  16.655   3.058 -0.1628 -0.2135 -0.0486
15866W        W31675   4.834  11.272  11.155  0.2459 -0.1857 -0.0421
15867W        W31676  17.446  14.612  11.121  0.1216  0.0220  0.2807
15868W        W31677  13.904   6.989   1.619 -0.0326 -0.1574 -0.1862
15869W        W31678   2.075   5.594   5.006 -0.0111  0.0635  0.2210
15870W        W31679   4.653   1.966  13.532  0.1886  0.0070 -0.0194
15871W        W31680   8.973  10.288  11.539  0.1045 -0.1804  0.1935
15872W        W31681   5.571   0.565   5.205 -0.2057  0.1028 -0.0887
15873W        W31682   9.962   9.258   1.882  0.0230  0.3099  0.1738
15874W        W31683  14.526  11.669   1.448  0.1391 -0.0010 -0.0452
15875W        W31684   1.354  10.066  14.653 -0.0957  0.0708 -0.2570
15876W        W31685   3.353   8.791  14.655  0.0980 -0.0350  0.1461
15877W        W31686   3.724   1.502  14.926  0.0093  0.1812  0.1410
15878W        W31687   3.708  16.173  11.603 -0.1173 -0.3903  0.1752
15879W        W31688   0.431  13.117   2.974 -0.0146  0.2195 -0.1501
15880W        W31689   0.995   9.580  10.954 -0.1517  0.1756 -0.0088
15881W        W31690   3.917  18.365  14.082  0.1999  0.0106  0.0071
15882W        W31691   0.333   4.795  13.980 -0.1055 -0.1310 -0.0684
15883W        W31692   8.751  15.243  14.516 -0.5088  0.1411  0.0387
15884W        W31693  15.531   2.907  13.951 -0.2807 -0.1276  0.3334
15885W        W31694  10.010  13.052  12.755 -0.0311  0.1107  0.2449
15886W        W31695  11.715   7.432  13.824 -0.0299  0.2573 -0.4076
15887W        W31696   5.953  12.681   3.332  0.1687 -0.2790 -0.0206
15888W        W31697   4.536  14.728  12.408  0.0265 -0.1522  0.1989
15889W        W31698  15.390  14.514  15.286  0.0970  0.3482  0.2622
15890W        W31699  12.361   3.472   1.104  0.1234  0.1966 -0.2543
15891W        W31700   5.379   2.822   2.177  0.0881  0.2585  0.1112
15892W        W31701   4.210  10.660  12.415  0.0230 -0.2448  0.2485
15893W        W31702   9.414   8.427   1.506  0.0816  0.1371 -0.1891
15894W        W31703  16.956  13.324  11.541 -0.0481 -0.3792 -0.2818
15895W        W31704  17.664   6.896   2.925 -0.1272 -0.1080  0.1181
15896W        W31705  14.042   1.859   5.914 -0.2064  0.4053 -0.0913
15897W        W31706  10.889  11.876  10.888 -0.1753  0.1034  0.0470
15898W        W31707  15.477   9.554  11.325 -0.0131  0.0916 -0.1697
15899W        W31708  10.399   1.634   0.071  0.0505 -0.0501  0.1562
15900W        W31709  14.396  14.255   1.763  0.2049 -0.0084  0.2297
15901W        W31710   5.181   1.874   3.829  0.1593 -0.2849  0.1320
15902W        W31711   4.044   8.007  15.218  0.1240 -0.3583 -0.2522
15903W        W31712  14.222  13.984   0.630 -0.0123 -0.1661  0.2727
15904W        W31713   7.369   0.316  10.133 -0.0848  0.2608 -0.3064
15905W        W31714  14.940  11.263  12.582  0.3299  0.0638 -0.0015
15906W        W31715   0.685  14.375   4.641  0.0913 -0.0549  0.0155
15907W        W31716   8.752   7.466   3.356 -0.2193  0.4599 -0.2427
15908W        W31717   7.444   1.130  13.232  0.1165 -0.1452  0.0413
15909W        W31718   9.781  18.391   1.512  0.1727  0.0763  0.0370
15910W        W31719  10.775   6.669   2.072  0.0373 -0.0807  0.0054
15911W        W31720   5.370  17.697   0.606 -0.3577 -0.1423  0.3900
15912W        W31721   8.219  14.071  13.925 -0.0443  0.4573 -0.1800
15913W        W31722   4.167   1.381  12.231 -0.1089  0.2513 -0.0545
15914W        W31723   9.081   3.951   5.537  0.1508 -0.2440  0.0879
15915W        W31724   0.581  10.540   4.232  0.0018 -0.1661  0.2039
15916W        W31725   5.210   2.723   0.841  0.2409  0.0776  0.1073
15917W        W31726  12.683   2.285   4.464  0.1303 -0.1378 -0.1211
15918W        W31727  12.878   9.547  14.523 -0.0623  0.1641 -0.4456
15919W        W31728  10.009  17.517   1.175  0.0524 -0.1007 -0.0588
15920W        W31729   2.753   8.057   1.426 -0.2212  0.2274  0.2352
15921W        W31730  11.207  12.882   3.321 -0.1039 -0.0624 -0.1983
15922W        W31731   0.325   7.906  14.145  0.2082  0.0349 -0.1636
15923W        W31732   1.935  14.068  11.270 -0.0465  0.5153  0.1634
15924W        W31733   7.110  12.978  11.406 -0.3451  0.0965  0.0126
15925W        W31734   9.468   2.211  12.804 -0.1553 -0.0444 -0.0978
15926W        W31735  12.761   6.731  13.241  0.0733  0.1433  0.1144
15927W        W31736  13.288   5.889  14.069 -0.0407  0.0470 -0.0864
15928W        W31737   7.797  11.721  11.499  0.1888  0.0488 -0.1308
15929W        W31738   8.703  17.776  14.389 -0.2777 -0.3728 -0.3889
15930W        W31739   6.588  14.321  12.317  0.1192  0.1788  0.0148
15931W        W31740  17.229   4.485   3.113  0.4483 -0.0249  0.3962
15932W        W31741   9.975   1.887   0.091  0.1348 -0.1084  0.2745
15933W        W31742   8.158  18.038  10.595 -0.2656  0.0300 -0.1275
15934W        W31743  13.376   4.269   3.968  0.0203  0.0543  0.3528
15935W        W31744   8.438  13.813  13.372 -0.2889 -0.2137  0.1925
15936W        W31745  10.079   4.556  10.858 -0.2384  0.3348 -0.2592
15937W        W31746  14.881  13.514  10.705 -0.0656 -0.0148  0.3165
15938W        W31747  10.142   8.124   9.800 -0.0487  0.1660 -0.0331
15939W        W31748   2.246   8.576   3.088  0.0820 -0.0425  0.0832
15940W        W31749   8.249  17.580  12.935 -0.2103  0.1000 -0.0631
15941W        W31750   7.230  10.258   2.001  0.0661 -0.0995  0.0055
15942W        W31751  10.486   7.029   1.042 -0.0957  0.0477 -0.1299
15943W        W31752  17.305   9.933  12.366  0.0411 -0.1592  0.2119
15944W        W31753  17.346   5.380   2.549 -0.0850  0.1221 -0.4464
15945W        W31754   9.284  13.196   2.239  0.1119  0.2079  0.0066
15946W        W31755  17.609  12.119  11.173  0.2853  0.0218  0.1720
15947W        W31756  13.416  17.563   5.225 -0.0405  0.2207 -0.2764
15948W        W31757  12.077   0.265  12.719 -0.0048 -0.0904 -0.3377
15949W        W31758   1.242   4.827  12.671  0.1105 -0.3544  0.1161
15950W        W31759   8.736  14.814   1.775 -0.3133 -0.2470 -0.0739
15951W        W31760  15.298   7.901  15.068 -0.0379  0.0259 -0.1848
15952W        W31761  17.733  10.651  10.955 -0.0545 -0.0581  0.1727
15953W        W31762  18.373   6.378   5.001 -0.1475  0.2606  0.0096
15954W        W31763  15.892  14.655   5.744 -0.0591  0.2908  0.2842
15955W        W31764  13.512  11.836  11.574  0.2965  0.0055 -0.2119
15956W        W31765   7.260   1.647  13.465  0.2334 -0.1707  0.0460
15957W        W31766  13.759  13.178  11.438 -0.2850  0.1050 -0.0820
15958W        W31767  11.773   7.378   0.043  0.0542  0.0849  0.2977
15959W        W31768  11.714   1.567  12.266  0.1182 -0.2449 -0.2229
15960W        W31769  11.525   2.324  10.887 -0.1701  0.0227 -0.0567
15961W        W31770  14.148  13.064  14.951 -0.0300  0.2428 -0.3475
15962W        W31771  17.038   6.609  10.391 -0.0884 -0.0757 -0.1167
15963W        W31772  14.636   8.325   4.855  0.0505 -0.0798 -0.1368
15964W        W31773  12.870   1.300  13.852 -0.1173 -0.0581 -0.2376
15965W        W31774   9.359  15.222   0.879  0.2294  0.0311 -0.3334
15966W        W31775  11.198   4.305  13.169  0.3656 -0.0825 -0.2050
15967W        W31776   6.099  14.767   3.751 -0.0260 -0.1239 -0.2409
15968W        W31777  11.074  11.992   3.198  0.0180 -0.2380  0.1119
15969W        W31778  11.032  15.475   2.177 -0.3336  0.2802  0.2689
15970W        W31779  15.842  12.956  10.946 -0.1375 -0.0349  0.2011
15971W        W31780  16.321   1.475  15.504  0.0594  0.3950  0.2643
15972W        W31781   3.812  11.408  12.110 -0.2053 -0.1571  0.0456
15973W        W31782   2.698   6.552   2.862 -0.0128  0.1866 -0.5625
15974W        W31783  16.041   7.249  15.350  0.2046 -0.4400  0.0309
15975W        W31784   0.215  12.223   4.053  0.0830  0.0719  0.1567
15976W        W31785   7.810   6.802   1.668  0.0451  0.1596 -0.0476
15977W        W31786   3.273   1.520   4.177  0.2337  0.1730 -0.3426
15978W        W31787  12.463   0.106  12.275 -0.2050 -0.0451 -0.1891
15979W        W31788   5.652   2.448  14.050  0.3352 -0.0291 -0.1403
15980W        W31789  17.416   2.135  11.221 -0.1239 -0.2452 -0.1460
15981W        W31790   5.691   5.006  15.127 -0.1837 -0.2472  0.0540
15982W        W31791   4.714  12.617   3.526  0.0638  0.0519  0.1094
15983W        W31792  18.280  16.341   5.697  0.0440  0.0177  0.2908
15984W        W31793   2.507  14.161  15.355  0.0517  0.0318 -0.0047
15985W        W31794  14.988   9.063   4.365  0.2529 -0.0152 -0.1248
15986W        W31795   9.354  17.759   2.985  0.2819  0.2625 -0.7835
15987W        W31796  15.701  15.176   2.392  0.1202 -0.1899  0.2943
15988W        W31797   0.644   7.759  14.504  0.0942 -0.0665 -0.0376
15989W        W31798  16.474   2.688   2.317  0.2159  0.0893 -0.0851
15990W        W31799  11.722  11.646  11.362  0.0823  0.1538  0.2857
15991W        W31800   7.028  14.974   0.415 -0.1091  0.1223  0.2568
15992W        W31801   0.106  13.395   1.918  0.3460  0.1170 -0.1615
15993W        W31802   3.254   1.991   6.105 -0.0045 -0.0635 -0.2508
15994W        W31803   8.542   0.622  14.391 -0.1645  0.1294  0.0057
15995W        W31804  14.879  10.087   1.785 -0.0552 -0.0030 -0.1402
15996W        W31805  12.312   5.821  11.311 -0.1279 -0.1737 -0.2914
15997W        W31806   6.342   7.478  13.958  0.1036  0.1978 -0.2505
15998W        W31807  11.528   9.618  15.542 -0.1820 -0.1229  0.2990
15999W        W31808   9.586  15.436   3.530  0.1197 -0.3313 -0.0472
16000W        W31809   8.179  10.304   2.259  0.0921  0.0119 -0.0098
16001W        W31810   4.701   7.085   4.109 -0.1850 -0.1281  0.0252
16002W        W31811   4.054   4.938   3.914 -0.2269 -0.2810  0.0699
16003W        W31812  10.319   1.070   3.940  0.1884  0.1480 -0.1408
16004W        W31813   7.307   8.405   1.652  0.2139 -0.1217  0.1690
16005W        W31814  15.619   4.786   4.187 -0.0443 -0.1315  0.0160
16006W        W31815   7.427   2.442  10.859 -0.0479  0.1122 -0.3829
16007W        W31816  16.922   7.257  14.716  0.0462  0.0261 -0.3927
16008W        W31817  14.176  11.172   2.241  0.0249 -0.2616 -0.2333
16009W        W31818  12.373  13.920   3.096  0.3044  0.2043 -0.1932
16010W        W31819  17.702  11.449   0.666  0.3652  0.0405  0.0054
16011W        W31820   3.648   7.731   5.864 -0.1697 -0.0151 -0.0621
16012W        W31821  11.309   7.312   2.801  0.0221  0.2454 -0.0661
16013W        W31822   6.812  11.404   4.614 -0.0421  0.3737 -0.0965
16014W        W31823   0.088  16.196   0.574 -0.0450  0.0900 -0.0761
16015W        W31824  16.512   7.332  11.413  0.5640 -0.1723 -0.2263
16016W        W31825  13.815  16.433   0.277  0.1855 -0.2741  0.0168
16017W        W31826  10.831   0.383   3.574  0.0377  0.0197 -0.0461
16018W        W31827   2.659   5.149  15.280 -0.1118 -0.2094  0.0030
16019W        W31828  11.737   6.454  14.738 -0.1944  0.0530 -0.1927
16020W        W31829   4.271  11.848   0.484  0.1266  0.0820  0.2030
16021W        W31830   2.899   5.157   4.911 -0.1557 -0.0883  0.0973
16022W        W31831  13.441  17.809  11.848 -0.0715  0.2339  0.0071
16023W        W31832   9.327   3.596   2.448 -0.1689 -0.0477 -0.1502
16024W        W31833  13.678  17.931   3.445  0.0703 -0.2029  0.1141
16025W        W31834   0.028  16.978   4.709 -0.3196 -0.2611 -0.3184
16026W        W31835   8.776  18.004   0.744 -0.2352 -0.1979  0.0312
16027W        W31836   9.856   1.536  14.916 -0.0213 -0.2151 -0.0457
16028W        W31837   8.737   7.676   1.841  0.0924 -0.2124 -0.0360
16029W        W31838   5.257   9.637   2.597 -0.1756  0.0198  0.1125
16030W        W31839   9.192  11.096   6.173  0.1234  0.0893 -0.1120
16031W        W31840   5.066  14.000   4.383  0.0422  0.0378  0.1555
16032W        W31841   7.659  10.011  13.824 -0.1830  0.0451  0.1217
16033W        W31842   0.318  13.742  15.172  0.0819 -0.1643 -0.2039
16034W        W31843   6.790  16.318  14.875  0.1834  0.1959  0.1259
16035W        W31844  17.835  15.693   1.497  0.3318 -0.1482  0.0424
16036W        W31845   5.438  11.473   4.726  0.0055  0.4966 -0.0648
16037W        W31846   8.553  12.168   0.947 -0.0610 -0.0722  0.5944
16038W        W31847  17.391  12.524   3.417  0.2433 -0.0345 -0.1263
16039W        W31848   0.309  18.118  15.208  0.1476  0.2811  0.0164
16040W        W31849   7.760   9.380  13.693 -0.3034 -0.0175  0.2451
16041W        W31850   8.842  14.628  12.285 -0.0316 -0.2619 -0.1056
16042W        W31851   7.771  15.718   0.608 -0.5245  0.2587  0.0720
16043W        W31852  15.497  12.370  14.997 -0.0335  0.0368 -0.2996
16044W        W31853   1.353   2.373   2.873  0.2108  0.2761 -0.1697
16045W        W31854  18.346  14.657  13.909 -0.0634 -0.1357 -0.2931
16046W        W31855   2.999   0.257  10.901 -0.0440  0.2333  0.0679
16047W        W31856   6.658   5.875   3.494 -0.0051 -0.5053 -0.0475
16048W        W31857   7.448  16.140   1.688  0.2855  0.2659 -0.3641
16049W        W31858  14.835   5.320   5.220  0.0643 -0.0790  0.0617
16050W        W31859   5.838  10.635   4.689 -0.0901  0.0285  0.1579
16051W        W31860  12.665  13.772  14.117 -0.1825 -0.0023  0.0909
16052W        W31861  17.701  15.915   4.146 -0.0154 -0.1607  0.2180
16053W        W31862   8.709   2.328   2.806  0.0054 -0.0950 -0.0420
16054W        W31863   7.611   3.549  10.069 -0.0699  0.3403  0.0081
16055W        W31864  13.487  12.060  13.039 -0.0271 -0.3087 -0.1540
16056W        W31865  13.211   4.129  11.996  0.0825  0.1359  0.0445
16057W        W31866  13.370  17.757   2.385  0.2644  0.1393 -0.0607
16058W        W31867   8.294   0.975  12.850 -0.0428  0.0952 -0.0609
16059W        W31868   2.231   7.005  13.089  0.1582 -0.4468  0.0299
16060W        W31869   1.171  12.138   5.305  0.1020 -0.0612  0.0126
16061W        W31870  12.170  13.468  15.028  0.2230  0.1048  0.2693
16062W        W31871  14.947   4.808  14.401  0.3098  0.1017 -0.0197
16063W        W31872   4.048   6.106  11.024  0.2966  0.2201 -0.2693
16064W        W31873   9.944  18.398   0.999 -0.0901  0.2157 -0.2238
16065W        W31874   3.505  18.452   0.636 -0.1418  0.0901 -0.0804
16066W        W31875   4.305   2.062   4.712 -0.1326 -0.2799 -0.5352
16067W        W31876  10.783  12.033   2.733 -0.2091 -0.1669 -0.0800
16068W        W31877   6.008  15.397   0.537 -0.2068  0.1975 -0.2632
16069W        W31878  14.323   7.642  14.451  0.1316  0.4092 -0.4647
16070W        W31879  13.704   5.044   4.923  0.0352  0.1206 -0.0485
16071W        W31880  12.028  16.168  15.176  0.0147 -0.0744 -0.2460
16072W        W31881   1.676   6.530  15.585 -0.3110 -0.0748  0.1926
16073W        W31882  17.030   3.337  13.034  0.1108  0.4134 -0.1332
16074W        W31883  12.514  11.368   1.655 -0.1068  0.2427 -0.1639
16075W        W31884  13.439   5.608   2.876  0.2078 -0.3151 -0.0353
16076W        W31885  13.649   8.334  11.217  0.0657  0.2041  0.0208
16077W        W31886   8.568   0.611  15.797  0.0525  0.2179 -0.3980
16078W        W31887  12.571  10.010  15.308 -0.0601  0.2328  0.2255
16079W        W31888  16.931   8.185  14.511  0.0213  0.0510  0.0496
16080W        W31889  16.682  16.379  12.116  0.1107 -0.1902 -0.1271
16081W        W31890  13.911   0.308  11.827 -0.0787 -0.0526 -0.1593
16082W        W31891  13.617  11.978   3.593  0.1624 -0.1644 -0.4136
16083W        W31892  16.063   0.210  12.926  0.3200  0.3750  0.0387
16084W        W31893  14.549  15.906  11.696  0.0105 -0.2477 -0.0080
16085W        W31894   9.517   1.466   0.631 -0.0998  0.1065  0.1871
16086W        W31895  14.601   8.854  14.118 -0.0370 -0.1549 -0.0970
16087W        W31896   6.152   0.130  12.641 -0.4279  0.0965 -0.4450
16088W        W31897   6.286   3.177  13.925 -0.1104  0.4292  0.2635
16089W        W31898   9.752  10.062   3.316  0.3218 -0.1250 -0.3377
16090W        W31899  10.266   8.693   1.317 -0.0751 -0.0206  0.0327
16091W        W31900  15.045   2.703  14.748  0.1100 -0.2326 -0.0127
16092W        W31901   6.695  17.829   1.630  0.1710 -0.0003  0.1620
16093W        W31902  14.352  11.238  14.670 -0.2969  0.0112 -0.0971
16094W        W31903  12.090   2.046   3.880 -0.1053 -0.2131 -0.1657
16095W        W31904   0.700  12.839  12.029 -0.0234 -0.1444 -0.1916
16096W        W31905   9.913   9.304   5.035  0.1616 -0.4439  0.0623
16097W        W31906  13.692   5.474  10.362 -0.2076  0.1819  0.2040
16098W        W31907   9.275   2.849  15.340 -0.0675  0.0818 -0.0245
16099W        W31908  14.758  15.515  10.717 -0.2459  0.0011  0.0781
16100W        W31909   9.835   3.638  13.703  0.1836 -0.0270 -0.1136
16101W        W31910  14.984   4.318   0.728  0.0031  0.0651  0.0580
16102W        W31911  10.190  13.412  13.938 -0.0351 -0.0383  0.0023
16103W        W31912  13.053   6.508   1.200  0.1142  0.0325 -0.0970
16104W        W31913  15.299   2.579  13.141  0.0762 -0.1349 -0.1052
16105W        W31914  16.017  17.722   1.274 -0.0611 -0.3258  0.2627
16106W        W31915  12.838  18.190   1.483 -0.1792  0.0970  0.1358
16107W        W31916  14.200  18.286  14.999  0.3091  0.0872 -0.2310
16108W        W31917   6.992  17.823  12.365 -0.0801  0.1452  0.0710
16109W        W31918  11.590   1.090  12.555  0.0832 -0.0372  0.2673
16110W        W31919   5.788  13.118  13.037  0.0172  0.1065 -0.0036
16111W        W31920   7.592   9.798  11.222 -0.2971 -0.1021 -0.0554
16112W        W31921  17.755   9.504   3.164  0.3903 -0.0107  0.1487
16113W        W31922  16.052  12.367  15.739  0.1769 -0.1611  0.1799
16114W        W31923   4.090   3.671  14.862 -0.3032  0.2543  0.3294
16115W        W31924  18.025   7.075   0.962  0.2746 -0.1993 -0.0438
16116W        W31925   5.019   9.067  15.439  0.1169 -0.0676  0.2136
16117W        W31926   1.468  11.406   3.420 -0.0415 -0.3022  0.0396
16118W        W31927   8.353   3.016   2.239 -0.2554  0.1410  0.0742
16119W        W31928  16.181   5.384  13.372 -0.0273 -0.0720  0.0897
16120W        W31929  11.791  17.515  11.949 -0.1433  0.0532 -0.2922
16121W        W31930   1.153  17.834   1.412 -0.4286 -0.0915 -0.0523
16122W        W31931  10.896  16.034   3.443  0.2071  0.2405 -0.1233
16123W        W31932  12.431   0.432   4.089  0.0789 -0.0971 -0.3765
16124W        W31933   8.538  15.718   5.534  0.0547 -0.1431  0.2879
16125W        W31934   6.641   2.525  14.181  0.0408 -0.1440 -0.1687
16126W        W31935  16.994   1.000  10.135  0.4918  0.0502  0.0108
16127W        W31936   6.979  18.230   3.069 -0.1925  0.1330 -0.2609
16128W        W31937   7.259  16.591  14.896 -0.0593 -0.1124 -0.2888
16129W        W31938  11.177   6.400   2.334  0.1209  0.1426  0.0699
16130W        W31939   3.771  13.968   5.104  0.0812  0.0886 -0.1332
16131W        W31940   2.167   5.744   0.376  0.0761  0.2910  0.0124
16132W        W31941   2.196  18.050  11.210 -0.0291  0.2051 -0.0524
16133W        W31942   4.615   8.769   1.040  0.0092 -0.2400 -0.0248
16134W        W31943   7.678  13.916   1.433  0.2813 -0.0400 -0.2038
16135W        W31944   3.951  14.887  13.489 -0.0216  0.2086 -0.0350
16136W        W31945  10.074   9.446   4.593  0.1057 -0.1128  0.0416
16137W        W31946   1.598  11.433  14.264 -0.0640  0.1821  0.1783
16138W        W31947   9.917  16.837   0.140 -0.1896  0.0691  0.1028
16139W        W31948   0.510  14.755  13.959 -0.0388  0.2041  0.0215
16140W        W31949  17.617  12.539   2.947  0.2912 -0.2224  0.0586
16141W        W31950  17.607   6.707  14.400 -0.3067 -0.0084  0.0517
16142W        W31951  12.440  10.426  13.256 -0.0830  0.2927  0.0430
16143W        W31952  17.363   5.768   1.570  0.0602 -0.0920 -0.0785
16144W        W31953   8.111   6.539   2.022  0.1200 -0.1998 -0.0418
16145W        W31954   1.316  16.604  10.563  0.1146  0.0545 -0.1317
16146W        W31955  17.354   7.363   0.566 -0.0781 -0.0333  0.0600
16147W        W31956   6.675  14.236   2.984 -0.0010 -0.0922 -0.1718
16148W        W31957   2.727  17.073   0.698 -0.1549  0.1881 -0.0665
16149W        W31958  16.643   2.858   3.240 -0.0438 -0.2366  0.2007
16150W        W31959  13.441  17.257   6.212  0.4724  0.1273 -0.2911
16151W        W31960  14.009  13.669   2.932 -0.1981  0.2894 -0.0333
16152W        W31961  15.284   9.272   0.187 -0.1610 -0.0395  0.0530
16153W        W31962  13.593  11.458  12.975  0.2560 -0.0548 -0.0035
16154W        W31963   2.353   1.778  14.181 -0.0619 -0.1462 -0.0488
16155W        W31964   7.792   6.814  10.885 -0.1175  0.2512 -0.1433
16156W        W31965  11.599  10.969   2.137  0.0335 -0.0376  0.0451
16157W        W31966  14.222   3.248   0.083 -0.3211  0.2143 -0.1560
16158W        W31967   9.064   8.849  12.424 -0.0077  0.0139  0.0692
16159W        W31968   2.245  18.423   0.325 -0.0808 -0.0755 -0.2906
16160W        W31969   1.236   2.620   2.363 -0.0222 -0.1562 -0.3811
16161W        W31970   1.364  17.421  15.783 -0.2304  0.0784 -0.0090
16162W        W31971  15.469  16.311   2.316  0.1195 -0.0966  0.0488
16163W        W31972  10.374   6.319  12.977  0.1844  0.0390 -0.0839
16164W        W31973   7.303   7.931   2.510  0.1707 -0.2635  0.2821
16165W        W31974  15.397   8.753   0.414 -0.0810 -0.2258  0.0858
16166W        W31975  11.623   0.378   4.244  0.0603 -0.0668 -0.4105
16167W        W31976   3.168  15.895  12.936 -0.1697 -0.2959  0.0963
16168W        W31977  10.788   3.936   1.197  0.0379 -0.0537  0.2043
16169W        W31978   1.098  12.150  13.359 -0.0958 -0.0211  0.1784
16170W        W31979  13.736   2.770   2.910 -0.2094  0.1501 -0.0567
16171W        W31980  15.580   2.963   1.377 -0.0832 -0.1379  0.0992
16172W        W31981  14.629  15.068  13.408  0.0700  0.1825  0.0502
16173W        W31982   2.004   4.521  12.960  0.0390  0.2974  0.0158
16174W        W31983   3.828   4.790   1.037  0.0894 -0.0155 -0.0352
16175W        W31984  14.396  14.865  11.962  0.1575  0.0024  0.0967
16176W        W31985   4.904   6.702  10.939 -0.1759  0.0388  0.1116
16177W        W31986  15.760  12.147   5.405  0.2444  0.0687 -0.1574
16178W        W31987   6.430   8.296  13.135 -0.2019 -0.0819 -0.0524
16179W        W31988  15.527  18.325   1.515  0.0882  0.4113 -0.1247
16180W        W31989  16.725  12.455  14.183 -0.0074  0.0540  0.1207
16181W        W31990   0.510  13.654   1.795 -0.0431 -0.1248 -0.2133
16182W        W31991  17.792   9.100   2.897 -0.0188 -0.0215  0.2015
16183W        W31992   6.003  11.099  12.686 -0.0275 -0.2150  0.0074
16184W        W31993  13.142   1.676   1.494  0.0042 -0.0489  0.1166
16185W        W31994  16.499   1.009   0.971  0.0348  0.0368  0.0971
16186W        W31995  14.375   2.698  12.045  0.0357 -0.1717  0.1982
16187W        W31996   7.927  18.072  13.649  0.3248 -0.0062  0.1055
16188W        W31997   8.972  11.107  11.920  0.0470  0.2035 -0.1001
16189W        W31998  17.802   7.574  13.208 -0.2100  0.0928 -0.2182
16190W        W31999  11.305  17.760  14.895 -0.0231 -0.1793 -0.3956
16191W        W32000   6.518   6.582  13.461 -0.3087  0.2247 -0.0762
16192W        W32001   2.371   5.124  11.557 -0.2541 -0.0075  0.2516
16193W        W32002   9.319   0.616   3.616 -0.1055  0.1850 -0.0513
16194W        W32003   6.961  17.640   4.731 -0.3208  0.0412  0.0439
16195W        W32004   4.739  17.752  15.759 -0.5739 -0.0796 -0.0047
16196W        W32005  14.348   5.963   3.196  0.0808 -0.3033 -0.1471
16197W        W32006   7.268   9.391  15.387 -0.1562 -0.0914 -0.0041
16198W        W32007  16.869  13.400   9.626 -0.0359  0.0525  0.0655
16199W        W32008  17.460  15.480  12.423 -0.1790 -0.2971  0.0308
16200W        W32009   3.166   1.821  14.022  0.2062  0.0391  0.1287
16201W        W32010  15.338   9.002   3.963 -0.0841 -0.1595 -0.2365
16202W        W32011  12.399   3.887  13.973 -0.4106 -0.0804  0.0449
16203W        W32012   2.194  10.355  12.387 -0.1142 -0.3313  0.0029
16204W        W32013   8.125   0.135   0.627  0.2144 -0.0827  0.0442
16205W        W32014   2.971  14.342   4.075 -0.0633 -0.1046 -0.0948
16206W        W32015  14.230  16.261   1.736 -0.1421 -0.0128 -0.0650
16207W        W32016   7.800  11.619   2.876 -0.1881 -0.1474 -0.0418
16208W        W32017  11.449  15.220   1.996  0.2067  0.1240 -0.0924
16209W        W32018   9.844   4.989  10.808 -0.0738 -0.0016 -0.0758
16210W        W32019  12.199  12.230   0.965  0.0802 -0.2503  0.1394
16211W        W32020  11.936  11.188   2.424  0.1662  0.3875 -0.2370
16212W        W32021  13.739  13.845   4.805 -0.0131  0.2754  0.1055
16213W        W32022   7.090  11.098   2.274 -0.0255 -0.2597  0.0537
16214W        W32023   1.625   3.500  13.922 -0.5895 -0.1351 -0.1846
16215W        W32024  16.320  11.430   2.183 -0.1330  0.1812  0.0870
16216W        W32025   2.240   3.951   4.512 -0.0806 -0.0874  0.2863
16217W        W32026   7.508   9.598   0.326 -0.0083 -0.1102 -0.2248
16218W        W32027  18.161  13.095   4.589  0.1389  0.0745 -0.1726
16219W        W32028   6.627   8.319   1.156 -0.0270  0.1653  0.1362
16220W        W32029  14.115  13.673  12.681 -0.0892 -0.1552 -0.0183
16221W        W32030  10.062  10.271   1.154 -0.1513  0.0502  0.0479
16222W        W32031   2.057  15.444  10.402 -0.0307 -0.0137 -0.0782
16223W        W32032   6.829   0.687  12.603  0.1386  0.4766  0.1657
16224W        W32033   9.620  13.998   4.596  0.2560  0.1439  0.0178
16225W        W32034   3.432  17.002   5.441 -0.1065 -0.0259 -0.0820
16226W        W32035  17.541  16.467  11.405 -0.0205 -0.0489  0.0594
16227W        W32036   3.603   3.498   1.516  0.0138  0.0413 -0.0395
16228W        W32037  16.390  14.240   3.286  0.2408 -0.1253  0.0653
16229W        W32038  17.249   9.477  14.828 -0.2596  0.2260 -0.1923
16230W        W32039   5.078   0.746   5.862 -0.1861 -0.2117 -0.0091
16231W        W32040  15.264  13.568  13.018 -0.1450  0.1456 -0.1037
16232W        W32041   3.734   7.741   3.564 -0.3383 -0.2130 -0.1472
16233W        W32042   8.489   8.019   4.769  0.0654  0.1176 -0.2117
16234W        W32043  17.053   1.397   2.996  0.1912 -0.0544  0.0530
16235W        W32044   2.334  17.388   4.570  0.1292  0.1709 -0.1231
16236W        W32045  15.630   0.773   2.733  0.2593  0.3436 -0.0534
16237W        W32046   9.263  17.973  14.399  0.0496 -0.1373  0.1234
16238W        W32047  11.752  12.672  11.561 -0.0129  0.1620 -0.1398
16239W        W32048  12.418  14.149  12.716 -0.2419  0.1073  0.0469
16240W        W32049   3.047  11.578  13.734 -0.1555 -0.1670  0.3073
16241W        W32050   9.008   4.933   3.018 -0.1365 -0.2638 -0.0687
16242W        W32051   1.358  10.548  11.977 -0.0132  0.0725 -0.1512
16243W        W32052  16.925   0.181   0.817 -0.0899  0.0833  0.0900
16244W        W32053   1.927  10.407   3.798  0.0201 -0.3574 -0.0150
16245W        W32054   7.990  11.922  12.299 -0.0093  0.3307  0.2123
16246W        W32055  16.943   7.455   0.022 -0.2586 -0.1056 -0.1509
16247W        W32056   5.857   2.624   2.752  0.2209  0.0063 -0.0178
16248W        W32057   2.852   0.014   1.645 -0.0762 -0.4467  0.0306
16249W        W32058  15.058   0.945   5.812 -0.1413  0.1451 -0.0949
16250W        W32059   0.024  11.642  12.241 -0.0271  0.0790 -0.0633
16251W        W32060   7.094   3.592  11.992  0.1930  0.0315 -0.0066
16252W        W32061  16.455   7.296  15.022 -0.0077  0.2505  0.2644
16253W        W32062  17.616  12.469   5.131 -0.1198  0.0748 -0.2826
16254W        W32063  13.246   5.927  12.860  0.0790  0.3021  0.3694
16255W        W32064   7.503   8.034   3.027  0.0520  0.1004  0.2953
16256W        W32065  15.858   0.635   3.290  0.1278  0.2132 -0.2716
16257W        W32066   1.262   2.175   1.165  0.1518  0.0112  0.1702
16258W        W32067   3.954  11.922   1.358 -0.0677 -0.1807 -0.2051
16259W        W32068   0.635   6.992   2.801 -0.1007  0.1346  0.0630
16260W        W32069  12.970   0.456   2.070 -0.0681  0.0611 -0.1515
16261W        W32070   0.074   7.380  11.304 -0.0144 -0.0705 -0.1648
16262W        W32071  10.808   7.215  11.658 -0.0762 -0.2437 -0.0651
16263W        W32072  10.739  12.916  12.328  0.1102 -0.0217  0.2662
16264W        W32073   6.798   7.174  15.726 -0.2032 -0.1461  0.0669
16265W        W32074   9.403  11.957   2.278  0.2990 -0.1375 -0.2107
16266W        W32075   5.623  12.987   2.638  0.0929 -0.0994 -0.0270
16267W        W32076   7.786   7.072  12.967  0.0162 -0.0028 -0.1481
16268W        W32077   3.244  16.728   2.613  0.0743 -0.1968  0.2214
16269W        W32078   1.122   7.773  12.405  0.2101  0.3776  0.0816
16270W        W32079  12.504  17.179  14.114 -0.2208 -0.1619  0.0421
16271W        W32080   2.172   2.711  12.510  0.1928 -0.0943  0.2141
16272W        W32081   0.533  12.683   2.674  0.0703 -0.0790  0.0875
16273W        W32082  17.125  12.606  13.896 -0.0204  0.0976 -0.1885
16274W        W32083  10.722   1.438  12.473  0.1452 -0.2582  0.0679
16275W        W32084   6.018  15.601  12.224  0.1911  0.0054  0.2191
16276W        W32085   8.073  10.952   0.971 -0.1374 -0.0904 -0.1370
16277W        W32086   5.156   2.000  13.276  0.1666 -0.0383 -0.2869
16278W        W32087   2.722  11.749  11.165  0.0398  0.0256  0.0423
16279W        W32088  13.875  18.272   3.088  0.0391  0.3084 -0.0448
16280W        W32089  11.096   5.491   3.596 -0.1068  0.1232  0.0911
16281W        W32090  10.930  10.516  14.534 -0.1708  0.2861 -0.2094
16282W        W32091  14.123  15.783  14.007  0.0755  0.1178  0.2360
16283W        W32092  11.641  18.228   2.457  0.3759 -0.0349 -0.1629
16284W        W32093  13.648   8.298   2.912 -0.1978  0.2094 -0.4026
16285W        W32094  11.013   5.417  12.266  0.3618  0.0536 -0.1278
16286W        W32095  10.831  13.735   4.964  0.0608 -0.0457 -0.2228
16287W        W32096  10.041   7.448  12.004  0.1854 -0.2616 -0.1152
16288W        W32097   2.203   1.379   2.978 -0.2613 -0.0988  0.1230
16289W        W32098  18.260   7.541   0.150 -0.1694 -0.0530 -0.0448
16290W        W32099  10.071   2.993   2.650  0.0390 -0.0927  0.1916
16291W        W32100  14.916   7.109   2.613 -0.3554  0.4158 -0.1220
16292W        W32101  17.452  10.431  12.580  0.2746 -0.2236  0.0092
16293W        W32102   6.387  15.900   0.642 -0.0366 -0.0548  0.0081
16294W        W32103  15.921  13.534  14.279 -0.0668 -0.1076  0.0852
16295W        W32104  18.000   2.343   4.774 -0.0669  0.2610  0.1444
16296W        W32105   3.052   3.957  14.511 -0.3650 -0.0003 -0.2278
16297W        W32106  14.186   7.996   1.383 -0.0465 -0.1814  0.0529
16298W        W32107  16.578  15.513   2.006  0.3292  0.3130  0.2566
16299W        W32108  16.287   3.366  12.458 -0.2532  0.3127 -0.1547
16300W        W32109  16.812   7.768  14.812  0.2010 -0.2656  0.0330
16301W        W32110   6.958  12.008  11.462 -0.2128 -0.1835 -0.1332
16302W        W32111  14.255  15.217  10.071  0.1801  0.0649 -0.2330
16303W        W32112   3.416  15.476   4.440  0.1664 -0.1080  0.1298
16304W        W32113   7.699  13.194  11.656 -0.1558 -0.0686  0.0145
16305W        W32114  15.735   0.219  11.950 -0.0334 -0.4385  0.2644
16306W        W32115  15.446   6.822   3.114 -0.0927  0.0204  0.1547
16307W        W32116  11.653  14.188   1.571 -0.1202  0.1266 -0.0381
16308W        W32117   3.064   3.562   3.172 -0.0521  0.0691 -0.1074
16309W        W32118  12.650  17.209   2.139 -0.1692 -0.0952 -0.0238
16310W        W32119  14.096   4.325  14.166  0.0406  0.0125 -0.1264
16311W        W32120   2.901  16.896  11.070 -0.1775  0.2142  0.2910
16312W        W32121  17.538  15.310  13.224 -0.2823 -0.0305  0.0590
16313W        W32122   6.537   0.303  12.368 -0.1700 -0.2002  0.2698
16314W        W32123  17.284   5.059  15.372  0.4245  0.0468 -0.0659
16315W        W32124  13.100  13.203   5.494 -0.0265  0.1432  0.0499
16316W        W32125   5.332  15.496   3.731  0.2264  0.1323  0.3142
16317W        W32126  18.172   7.425  14.542 -0.1898 -0.2038 -0.1799
16318W        W32127   0.346   5.884   3.773  0.0653  0.0670  0.1665
16319W        W32128  13.168   4.883  12.668  0.1453  0.2186  0.0010
16320W        W32129   7.236  10.815  15.547 -0.1066  0.0213 -0.1413
16321W        W32130  14.736   7.374   5.707  0.0797  0.0579 -0.0396
16322W        W32131   1.180  17.233  11.925  0.2156 -0.1244 -0.0254
16323W        W32132   6.388  15.158   2.202  0.1603  0.0167 -0.1356
16324W        W32133  17.930   7.789  14.797  0.0315  0.0856  0.0022
16325W        W32134   4.175   7.374  15.790  0.0274 -0.0424 -0.2060
16326W        W32135  12.402   0.681   3.068  0.0074  0.1349 -0.0555
16327W        W32136   5.701  13.341   0.353  0.1618  0.3488  0.4164
16328W        W32137  16.328   7.262  14.527 -0.0210 -0.0184  0.0790
16329W        W32138  15.191   4.916   4.672  0.2964  0.3915  0.2455
16330W        W32139   4.861   9.080   4.235 -0.1133 -0.1752  0.1093
16331W        W32140  13.232   8.420   4.622  0.0876  0.1695  0.2547
16332W        W32141   1.207   3.056   3.987  0.0259  0.0790  0.0599
16333W        W32142  14.623  14.779   9.775  0.0616  0.1288  0.1454
16334W        W32143   8.221  13.904   1.560 -0.1552 -0.3413  0.0875
16335W        W32144  15.539   1.893  12.666  0.0425 -0.1948 -0.0528
16336W        W32145   1.281  11.201   6.074 -0.0208 -0.2145 -0.1159
16337W        W32146   0.937  12.208   4.541  0.0085  0.2339 -0.0622
16338W        W32147  11.578   4.683   3.544 -0.0099 -0.2806  0.1430
16339W        W32148   3.475  14.935   2.339 -0.0471 -0.0337  0.1632
16340W        W32149  14.310   7.667  15.464 -0.4246  0.0753  0.3117
16341W        W32150  17.278   0.292   1.892  0.1517 -0.1559 -0.0169
16342W        W32151  12.817  12.718  11.257 -0.1358  0.3441  0.0005
16343W        W32152   7.427  16.420  13.442 -0.3064  0.0467  0.1749
16344W        W32153  17.553   6.347   4.826  0.0607  0.0938  0.1375
16345W        W32154   5.426  14.442   1.550  0.1629  0.1327  0.2466
16346W        W32155   7.329  14.081   4.817  0.0140  0.0822  0.0073
16347W        W32156  17.021  17.495   3.561 -0.1318  0.2027 -0.1860
16348W        W32157   2.681  14.731  12.593 -0.0643 -0.0038  0.0362
16349W        W32158   5.658   3.996   4.309  0.1437 -0.4266  0.1888
16350W        W32159  18.360  15.060   4.654  0.0009 -0.1003  0.1567
16351W        W32160   4.488  10.492   5.172 -0.0880 -0.0932  0.3659
16352W        W32161  14.959   1.012  15.538 -0.1116 -0.0472  0.1114
16353W        W32162   5.022  14.612  11.217  0.0888 -0.0672  0.2453
16354W        W32163   0.052   3.748   0.064  0.0121 -0.3367 -0.0840
16355W        W32164  11.195   2.445   3.464 -0.0692 -0.2426  0.0759
16356W        W32165  16.506  17.124   4.559 -0.0680 -0.1018  0.0388
16357W        W32166  10.638   4.582  10.846  0.2879  0.0837 -0.0730
16358W        W32167  13.636  10.809   3.816 -0.2474  0.0442  0.1327
16359W        W32168  16.388   5.795  13.660 -0.0164 -0.1605  0.1429
16360W        W32169   2.901  18.209  13.624  0.3516 -0.0452 -0.4175
16361W        W32170   8.893  13.268   1.238 -0.0126  0.2276  0.1571
16362W        W32171  13.102   3.121   4.927  0.1226  0.0620  0.1173
16363W        W32172   2.305   1.891  12.069 -0.2891 -0.1046  0.0400
16364W        W32173  12.004   2.374  11.522  0.0918  0.1325  0.2315
16365W        W32174  12.855   9.075   5.031 -0.1786 -0.0485 -0.2317
16366W        W32175   6.003  11.994   2.528  0.1873 -0.0015 -0.0318
16367W        W32176  15.023   6.576   0.295  0.0773 -0.0777 -0.2206
16368W        W32177  10.639  16.765   0.405 -0.1132 -0.2499 -0.2627
16369W        W32178  14.211   8.036   3.636 -0.1192 -0.1712 -0.0602
16370W        W32179  11.290   0.147   5.019  0.1406  0.1324  0.1310
16371W        W32180   5.015   5.947   1.485 -0.2051  0.1410 -0.0960
16372W        W32181   8.380  14.813  14.743  0.3593 -0.0137  0.1706
16373W        W32182  12.421   7.753   5.366 -0.0150  0.3870  0.0492
16374W        W32183  13.055   3.584   3.558  0.2299 -0.0838  0.3365
16375W        W32184   8.087   8.815  12.254  0.0064  0.1427  0.0732
16376W        W32185   5.957  15.537   5.566  0.4184 -0.3381 -0.0696
16377W        W32186  16.704   4.957   2.033  0.0719 -0.2474  0.1688
16378W        W32187   4.670   1.240  15.513  0.0884  0.0718  0.1330
16379W        W32188   0.125   4.372   2.804 -0.1765  0.0664  0.0057
16380W        W32189  15.497  16.779  15.724  0.1496 -0.0699  0.0673
16381W        W32190   8.696   9.710  10.861  0.1645 -0.1663  0.0516
16382W        W32191   6.807   8.281   4.714  0.0277 -0.2487  0.0131
16383W        W32192   5.876  14.990   2.122  0.1845 -0.3481 -0.1677
16384W        W32193   6.663  14.556   0.425  0.0837 -0.2261  0.1063
16385W        W32194  15.336  10.951  11.022 -0.0671  0.2759  0.3608
16386W        W32195   6.656  14.535   1.462  0.1388  0.0412 -0.0780
16387W        W32196   9.089   9.850  12.366  0.2186  0.0758  0.0174
16388W        W32197   4.035   8.782   2.380  0.2564 -0.2353  0.1077
16389W        W32198   4.360   2.307   1.302  0.1753 -0.3991  0.2328
16390W        W32199   8.981   5.700   3.215 -0.1784  0.0062  0.3367
16391W        W32200  15.508  14.098   4.656  0.0345 -0.2032  0.0606
16392W        W32201  17.841  12.858  15.077  0.1767  0.1597  0.2957
16393W        W32202   4.925   7.791   1.699  0.0052  0.0903  0.1323
16394W        W32203  17.549   1.597  14.883 -0.0296 -0.2612 -0.3359
16395W        W32204   7.910  10.920  12.560  0.0491  0.0308  0.0450
16396W        W32205   9.115   4.875   4.127 -0.0438 -0.2543 -0.1318
16397W        W32206   0.952   5.445  12.722 -0.1282 -0.3741  0.0894
16398W        W32207   7.831  10.746   4.959  0.1835  0.0797  0.3944
16399W        W32208  12.383   4.256   3.709 -0.2029  0.1869 -0.0658
16400W        W32209   8.429  14.342  14.349  0.0373  0.1742  0.0753
16401W        W32210  13.120   8.224   2.043 -0.1555 -0.1768 -0.0822
16402W        W32211   9.450  12.486   3.806 -0.2337  0.0733 -0.3716
16403W        W32212  10.716   5.145   5.773  0.2938  0.0406 -0.1054
16404W        W32213   5.920   6.302  10.667  0.0857 -0.3701 -0.0724
16405W        W32214  17.144   2.308   4.428  0.0151  0.1309  0.0051
16406W        W32215   8.910  14.990   1.263  0.1385 -0.0336 -0.0290
16407W        W32216   7.732   6.755  13.860 -0.0403 -0.2415 -0.0549
16408W        W32217  16.238   7.257   4.259 -0.1783  0.0282  0.0465
16409W        W32218   1.829   4.764   1.119 -0.0626  0.1743 -0.1455
16410W        W32219   5.352  10.492   5.503  0.1393  0.1682 -0.1501
16411W        W32220  13.128  10.146   0.242  0.1159 -0.0563 -0.0723
16412W        W32221   7.679   8.470  12.092 -0.1175 -0.3589 -0.0841
16413W        W32222  10.202   3.507   4.934 -0.1548 -0.1559 -0.3481
16414W        W32223  16.337   6.544   0.651  0.4165  0.2279  0.1327
16415W        W32224   1.416   3.402   1.770  0.0293  0.0166 -0.1018
16416W        W32225   5.161   5.224   1.649 -0.2024 -0.2519 -0.1933
16417W        W32226   4.284   6.274  15.168  0.3309  0.0756 -0.0918
16418W        W32227  16.715  13.216  12.174 -0.2137  0.0853 -0.0281
16419W        W32228   7.444   8.425  14.901  0.1036  0.0212  0.1254
16420W        W32229   6.967   7.457   3.650  0.1259 -0.0886 -0.0015
16421W        W32230  10.221  17.875   0.993  0.1429 -0.2328 -0.1209
16422W        W32231   4.239   7.826  13.278 -0.2045 -0.2975  0.2201
16423W        W32232   3.954   4.329  14.820  0.0522 -0.0027 -0.2247
16424W        W32233  15.780   3.616  15.608  0.2579  0.1418  0.1897
16425W        W32234   2.621   2.776  12.205 -0.2158  0.1063 -0.0813
16426W        W32235  15.768   6.135   2.798 -0.0875 -0.0187  0.3740
16427W        W32236  18.015   1.536   1.084 -0.1302 -0.4032 -0.1131
16428W        W32237  10.013  14.430  14.111  0.1265 -0.1907 -0.1230
16429W        W32238  12.576   5.280  11.592 -0.0366  0.2766  0.0148
16430W        W32239  12.840  12.035  12.649  0.0550 -0.1015  0.1987
16431W        W32240  15.338  18.152  15.518 -0.0830  0.2749  0.1247
16432W        W32241  14.362   5.901  14.949 -0.1273  0.2138  0.2353
16433W        W32242  13.798  13.019  15.645 -0.2058 -0.2326 -0.0488
16434W        W32243  14.546  16.627   1.807 -0.0070  0.1303 -0.1272
16435W        W32244  13.173   4.920   3.227 -0.0734  0.1299 -0.1646
16436W        W32245   9.433  14.363   2.839  0.0479  0.1886  0.1041
16437W        W32246   2.913   7.301  10.050 -0.1652  0.2491 -0.0972
16438W        W32247  11.106  11.631   4.661  0.1054  0.0784  0.4018
16439W        W32248   5.356   3.155  13.929 -0.0813  0.1235  0.0499
16440W        W32249  14.836   3.051  10.701  0.0885  0.0368  0.1962
16441W        W32250  12.628   1.122  13.498  0.0764  0.1752  0.0687
16442W        W32251  11.732  16.661  14.134 -0.3971 -0.1736  0.1695
16443W        W32252   3.863  15.713  11.701 -0.1569  0.1219 -0.1294
16444W        W32253   0.554   6.410   0.016 -0.0109  0.2081 -0.0771
16445W        W32254   9.112   4.456   1.119  0.0693  0.2925 -0.0540
16446W        W32255   8.304   7.630   1.113 -0.0448  0.1646  0.2296
16447W        W32256  14.158  10.497  13.740  0.2494 -0.0670  0.1057
16448W        W32257   4.502  11.640  13.404  0.1333 -0.1203 -0.0672
16449W        W32258   3.770  12.980  11.815 -0.0268  0.0301 -0.0737
16450W        W32259  15.590   0.467  12.849  0.2183  0.0644  0.2309
16451W        W32260  13.483   3.212  14.736  0.0694 -0.1452 -0.1642
16452W        W32261  12.737  17.655   1.131  0.1445 -0.0638  0.1000
16453W        W32262   5.192   3.344  14.930 -0.2288 -0.1133  0.3309
16454W        W32263  16.513   0.597   3.049  0.1991  0.0018  0.1597
16455W        W32264   3.635  10.421   0.525  0.0761  0.1265  0.2164
16456W        W32265   2.544   3.438   4.490 -0.2280  0.1477 -0.0183
16457W        W32266  17.870   6.181   0.647  0.0886  0.2901  0.1990
16458W        W32267  17.204   1.921   0.433 -0.3493  0.0288 -0.0860
16459W        W32268   8.265  15.464   1.097  0.0582  0.0900  0.3838
16460W        W32269  10.946   1.145  13.392  0.3197  0.2045  0.0902
16461W        W32270  11.822  15.804   1.186  0.1669 -0.2657  0.0464
16462W        W32271   7.575  11.435   3.371 -0.2702 -0.0365 -0.1215
16463W        W32272   1.756   0.145   2.688  0.0517  0.2100 -0.1139
16464W        W32273   8.939  17.058  14.840 -0.1813 -0.2268 -0.0140
16465W        W32274  12.043   2.891   1.595 -0.0154 -0.1022 -0.0091
16466W        W32275  16.025  15.325  14.720  0.0608  0.1235  0.2440
16467W        W32276  16.465   0.243   2.582 -0.3196 -0.5527  0.2055
16468W        W32277   2.532   7.667  11.852 -0.0313  0.0472 -0.2956
16469W        W32278  12.990  17.931   0.609 -0.0157 -0.1217 -0.0799
16470W        W32279   8.841   4.565  11.526 -0.0271 -0.0620  0.1464
16471W        W32280   1.155   0.514   1.110 -0.3107  0.3624  0.0825
16472W        W32281   3.599  17.191  15.328 -0.2227  0.2055 -0.1220
16473W        W32282  13.962  15.895   1.925  0.0866 -0.2382  0.1229
16474W        W32283   7.057   9.040   0.954  0.1772  0.0254  0.2221
16475W        W32284  12.425  14.538  11.770 -0.1756 -0.1712  0.0832
16476W        W32285   1.190  17.530  12.716 -0.0486 -0.0625  0.1418
16477W        W32286   7.138  16.743   5.263  0.2133 -0.1408  0.1407
16478W        W32287  13.200  14.062  15.283 -0.1377  0.1274 -0.3409
16479W        W32288  13.552  14.861  13.968  0.0752  0.2785  0.0838
16480W        W32289  14.488  15.896  13.565 -0.5754  0.0106  0.0830
16481W        W32290  13.471   3.528  13.256  0.2169  0.2363 -0.2038
16482W        W32291  15.020   8.327   0.126  0.0588 -0.0948  0.1200
16483W        W32292   3.309   0.191   5.294 -0.1545  0.0315 -0.1390
16484W        W32293   6.067  16.894  13.394 -0.1754  0.2855  0.1835
16485W        W32294   9.218  14.831   1.939  0.0173 -0.0574 -0.0343
16486W        W32295   3.860  11.525   1.905 -0.0915  0.0733 -0.1611
16487W        W32296  15.695   5.220   2.112  0.3873 -0.0028 -0.1332
16488W        W32297  16.654   9.184   1.466 -0.3548 -0.0130 -0.1212
16489W        W32298   6.050   7.070  14.200  0.0375  0.0073  0.1278
16490W        W32299   6.633  16.495  11.667 -0.3944  0.1608  0.1081
16491W        W32300  13.314  12.584   3.695 -0.2032 -0.0095  0.1151
16492W        W32301   1.325   5.550  14.079  0.2117  0.0176  0.2717
16493W        W32302   5.284  17.599  13.619 -0.0043  0.0595 -0.0606
16494W        W32303  17.414   0.845  11.062  0.1828 -0.0196 -0.0237
16495W        W32304   2.203  12.622   5.137 -0.1232 -0.0304 -0.1075
16496W        W32305  16.690  11.299  11.970 -0.1997  0.1565 -0.1771
16497W        W32306  14.109  10.986  12.188 -0.1657  0.1189  0.1095
16498W        W32307   0.093   3.312  15.767  0.0829  0.2485  0.2245
16499W        W32308   5.446   8.493  11.442 -0.1892  0.2752  0.1336
16500W        W32309  13.699  17.760  12.778  0.0194 -0.0621 -0.1317
16501W        W32310   7.326   2.960   2.721 -0.3624  0.1895 -0.4893
16502W        W32311   2.939   6.445   4.477 -0.3757  0.0716  0.0265
16503W        W32312   8.309   7.445   3.166 -0.0504  0.1041 -0.2839
16504W        W32313  18.215   4.545   1.799 -0.3355 -0.0038 -0.3350
16505W        W32314  10.388   9.996   0.849 -0.0537 -0.0940  0.2477
16506W        W32315  14.582   8.679   1.285  0.2836  0.2531  0.0923
16507W        W32316  13.758  15.083  14.437 -0.0951  0.1012  0.3382
16508W        W32317   5.831   6.337   4.660  0.3104 -0.0165 -0.3255
16509W        W32318  14.955  16.193   4.754  0.2483 -0.0510  0.1367
16510W        W32319   2.400  17.874   0.307 -0.1397 -0.2072 -0.0142
16511W        W32320   3.818  11.760   4.056 -0.1457 -0.0109 -0.0671
16512W        W32321   8.387  15.393   4.938  0.1707 -0.1315 -0.0128
16513W        W32322   1.444  12.628  13.658  0.1035  0.0173  0.0126
16514W        W32323   0.912   6.855  10.627  0.3932  0.0692  0.0913
16515W        W32324  12.272   3.643  12.374 -0.1849  0.0009 -0.0903
16516W        W32325  15.945   3.613   3.728  0.1157 -0.1031 -0.0869
16517W        W32326   9.729  13.924  13.246 -0.3891 -0.1960 -0.0139
16518W        W32327  17.186   0.056   4.769 -0.1416 -0.0108  0.2140
16519W        W32328  14.152   2.978  14.801 -0.0881  0.0174 -0.1114
16520W        W32329   3.704   8.810  15.339 -0.3272  0.1065  0.2684
16521W        W32330  13.436   0.170   2.905  0.0623  0.2285  0.0970
16522W        W32331   4.071  15.068  12.599  0.2613  0.1962  0.0351
16523W        W32332  11.815   4.917   0.327  0.1940 -0.0434 -0.0942
16524W        W32333  11.722   4.735  12.305  0.0869  0.2537 -0.0126
16525W        W32334  14.903  12.085  10.813  0.0040 -0.0271 -0.1008
16526W        W32335   7.495  13.608  13.207  0.1451  0.1646 -0.2538
16527W        W32336   9.611  10.511  15.195 -0.0832  0.2101  0.0449
16528W        W32337   8.922  15.653   3.024 -0.0620 -0.1200  0.0879
16529W        W32338   0.065   5.964  11.415 -0.3700 -0.0524  0.2548
16530W        W32339  12.093  14.987   3.246 -0.0974  0.0628 -0.0104
16531W        W32340  16.139   2.041   3.456  0.0236 -0.0547  0.1301
16532W        W32341  10.879   5.970  12.168 -0.1285 -0.2674 -0.2290
16533W        W32342   7.124   8.910  14.181  0.0168 -0.0170 -0.0558
16534W        W32343  13.835  17.709   3.001 -0.0982  0.0379  0.0356
16535W        W32344   4.121  17.315  13.251 -0.2660  0.0573  0.1864
16536W        W32345  12.795   4.644  10.943  0.0848 -0.2866  0.0006
16537W        W32346  13.972   4.255   0.272  0.0774  0.2663 -0.0980
16538W        W32347   5.265  13.211  12.946 -0.2759 -0.0044  0.1895
16539W        W32348  17.861   4.849   0.230 -0.1818  0.0042  0.4478
16540W        W32349  13.088  18.349   4.221  0.2215  0.0151  0.1293
16541W        W32350   2.591   9.888  10.650  0.0610  0.1340  0.0621
16542W        W32351   5.209  11.930   9.751 -0.0213  0.2401  0.2475
16543W        W32352  11.836   4.157   3.522  0.0478  0.3361  0.0776
16544W        W32353   5.766  10.681  13.558 -0.1604 -0.2712 -0.1305
16545W        W32354  11.192  17.060  15.683 -0.0304 -0.0415 -0.0473
16546W        W32355   7.595   1.910  14.381 -0.0178 -0.1631 -0.0785
16547W        W32356  13.600   7.877  13.904  0.4486 -0.1519  0.2136
16548W        W32357   7.943  10.647   5.894 -0.0282 -0.1158 -0.1548
16549W        W32358  17.797  10.729   3.600 -0.2321  0.0672  0.0282
16550W        W32359   4.729  17.085  12.899 -0.2257 -0.1887  0.0762
16551W        W32360  13.336  15.344  12.494 -0.0447 -0.0512 -0.0877
16552W        W32361   7.512  16.308   5.183  0.1575 -0.0385 -0.1282
16553W        W32362  15.165   7.549  13.269 -0.1084 -0.2660  0.0089
16554W        W32363  17.649  14.839  13.340 -0.2964  0.1858  0.3025
16555W        W32364  13.575  17.330  14.152  0.1699 -0.1373  0.0977
16556W        W32365   3.027  15.176  14.371  0.0201  0.1824 -0.0674
16557W        W32366  14.946   7.705  11.157  0.2713  0.1049 -0.1924
16558W        W32367  10.331  14.079  11.054 -0.0206 -0.1965  0.1844
16559W        W32368  16.513   5.721   3.720  0.1252 -0.1177 -0.1370
16560W        W32369   3.247  13.204   0.008  0.1587 -0.1169 -0.1799
16561W        W32370  17.940  17.612  13.687 -0.2040  0.2227  0.3663
16562W        W32371   9.814  13.162  15.501  0.1533 -0.0216  0.0055
16563W        W32372   3.374  12.198   1.472  0.1386  0.0808 -0.0438
16564W        W32373   7.020   8.976   1.452  0.3257  0.0308  0.2304
16565W        W32374  13.004  11.592   4.059 -0.0499  0.1053  0.0141
16566W        W32375   6.905   4.651  10.391 -0.3435 -0.0405 -0.0427
16567W        W32376  15.368  10.156  12.431  0.1243 -0.0360 -0.0202
16568W        W32377  17.492  13.709   4.699 -0.1807  0.4577  0.0889
16569W        W32378  15.372  13.126   4.063 -0.1924  0.0926  0.3656
16570W        W32379  13.426   5.464  15.552  0.1963  0.1061  0.1079
16571W        W32380   7.167   1.631  15.769 -0.0019 -0.1731 -0.1711
16572W        W32381   0.232   4.807  12.941 -0.0262 -0.1756 -0.0741
16573W        W32382  14.923  17.006  11.320  0.0875 -0.0641 -0.2265
16574W        W32383  12.485  12.921   2.485  0.2112 -0.1657  0.0329
16575W        W32384   7.743  18.252  14.081  0.2123  0.1821 -0.1101
16576W        W32385  14.922   6.017  12.084  0.0676 -0.0086 -0.0654
16577W        W32386   5.174   1.430  13.221  0.3580  0.1348 -0.1634
16578W        W32387   9.882   1.082  13.617 -0.1265  0.4281  0.1923
16579W        W32388  15.698  12.899  12.402 -0.1324 -0.1359 -0.0221
16580W        W32389  14.126  12.041   3.922 -0.2713 -0.0471 -0.0925
16581W        W32390  16.094   3.112  13.812 -0.0154 -0.2280  0.1117
16582W        W32391  14.602   1.154  13.310  0.1028 -0.1873  0.0826
16583W        W32392  16.672   2.596  15.794 -0.1611 -0.0888  0.1648
16584W        W32393  11.354   2.795   2.068  0.0542 -0.3303  0.0726
16585W        W32394  12.247  15.948  11.060  0.1548 -0.3889 -0.1797
16586W        W32395  15.565   5.787   3.782 -0.1132 -0.0084  0.2399
16587W        W32396   3.306  11.778  15.663 -0.1914  0.1156 -0.0377
16588W        W32397   8.071  13.235  15.459 -0.1122  0.2266 -0.1496
16589W        W32398   0.762   1.037  13.546 -0.1167 -0.1644  0.0271
16590W        W32399   4.866  10.957  13.416  0.2150  0.1736  0.1731
16591W        W32400  11.412   2.757  15.228  0.0309  0.4249 -0.2755
16592W        W32401  12.583  17.228  15.729  0.1967  0.1454  0.3093
16593W        W32402  11.404   3.643  14.998 -0.1762  0.0438  0.3167
16594W        W32403  10.742  11.900   1.746  0.0505  0.2104 -0.1597
16595W        W32404  10.582  18.076   5.573  0.1931 -0.0773 -0.2411
16596W        W32405   6.348  15.633  11.864  0.0990 -0.0813 -0.0807
16597W        W32406  14.956   0.464   5.644 -0.0878  0.0632 -0.0543
16598W        W32407   0.973  14.686  10.724 -0.0589  0.1968 -0.1951
16599W        W32408  14.961   8.835  15.823 -0.1499 -0.0801 -0.0317
16600W        W32409   5.796   6.623  15.489 -0.0691  0.1446  0.0524
16601W        W32410  14.985  12.462  13.023 -0.0603  0.2904 -0.2781
16602W        W32411   7.288   1.209  13.983 -0.0338  0.0746  0.1273
16603W        W32412   7.123   5.592  14.260 -0.0581  0.3044  0.0442
16604W        W32413   5.420  17.691   3.502 -0.1055  0.0294 -0.1042
16605W        W32414  16.790  18.346  13.267 -0.2165 -0.1499 -0.1448
16606W        W32415  17.572   3.337  12.081  0.1998 -0.0554 -0.0996
16607W        W32416  17.037   3.214  11.899 -0.2257 -0.2968 -0.1616
16608W        W32417  14.252  15.686  10.914 -0.0271 -0.0477 -0.0170
16609W        W32418   7.275   9.324  13.881  0.0222 -0.0927  0.2047
16610W        W32419  15.544  17.431   4.780  0.3355 -0.1911  0.1615
16611W        W32420  18.091  10.578   4.209 -0.1654  0.2887  0.1904
16612W        W32421   5.928   1.384   0.756  0.1966 -0.0248  0.0993
16613W        W32422  16.643   1.770  11.796  0.1924 -0.2618  0.1928
16614W        W32423   9.730  16.390   3.077  0.1157  0.0720  0.2767
16615W        W32424  10.699  14.354  11.024  0.4737 -0.2148  0.3524
16616W        W32425   0.237  16.926   2.121 -0.0464  0.0583  0.0029
16617W        W32426   7.706  16.609   0.250  0.2077  0.0449 -0.0945
16618W        W32427  14.547  17.176  12.790 -0.0010  0.1070  0.0305
16619W        W32428  13.178   6.240   3.513 -0.1015  0.2605 -0.0896
16620W        W32429   3.314  12.371   1.982 -0.0377 -0.0465 -0.1722
16621W        W32430  13.165   5.122   3.737  0.2335 -0.1704  0.5561
16622W        W32431  11.997   3.658  15.202 -0.0852  0.2006 -0.0836
16623W        W32432   1.624   9.286   5.124 -0.0601 -0.3124 -0.2619
16624W        W32433   2.827   0.135  14.456  0.2151  0.3562 -0.2147
16625W        W32434  18.374   8.383  13.525  0.0267 -0.0188  0.2313
16626W        W32435  14.838   1.222  12.071  0.0076 -0.0489  0.0366
16627W        W32436  17.652   1.181   3.489 -0.1565 -0.0219  0.1985
16628W        W32437   9.117   2.772   3.824  0.1477  0.1432 -0.1657
16629W        W32438  13.439   0.889   4.747 -0.0973 -0.1303 -0.2504
16630W        W32439  11.552  15.936  11.402  0.1390 -0.1995  0.4226
16631W        W32440  10.784   5.627  13.661 -0.0382 -0.0194 -0.1921
16632W        W32441   7.116  14.474   3.066  0.2270  0.0236  0.2399
16633W        W32442   2.136   6.741  12.390  0.1423 -0.1352  0.2661
16634W        W32443  16.206  10.001  12.638  0.1940 -0.1473  0.3556
16635W        W32444   9.577   7.207   2.156  0.0037 -0.3012 -0.2823
16636W        W32445   3.146   8.328   1.355 -0.0589 -0.0178  0.1846
16637W        W32446  13.658  18.019   0.577  0.4061  0.3902  0.3326
16638W        W32447   3.743   5.707   2.271 -0.1974 -0.3368  0.1155
16639W        W32448  17.551   5.248  12.448 -0.0019 -0.0107  0.1610
16640W        W32449  12.296   9.096  15.806  0.0142 -0.5249  0.5155
16641W        W32450   3.369   0.409   4.074 -0.0527  0.2161 -0.1749
16642W        W32451  11.799   5.474   0.290  0.0744 -0.2603 -0.0238
16643W        W32452  13.277  12.001  12.053 -0.0600  0.0949  0.1785
16644W        W32453  12.420   7.907  13.082  0.1351 -0.1318  0.0124
16645W        W32454  17.411  16.055   1.783 -0.2021  0.0131  0.3167
16646W        W32455   6.517   2.054   1.148 -0.1511  0.0580  0.1478
16647W        W32456  13.858  15.512  13.140  0.3582 -0.0338 -0.0810
16648W        W32457   0.499   3.926  11.388 -0.0009 -0.1219 -0.0963
16649W        W32458   4.317  13.586   3.999 -0.1447 -0.2504 -0.0287
16650W        W32459   7.790  10.694  10.593  0.1465 -0.0165  0.0829
16651W        W32460  10.809  16.674  10.446 -0.1010  0.0335 -0.1981
16652W        W32461   7.833  14.364  11.554  0.0736  0.0966 -0.1266
16653W        W32462  11.636  11.141   1.347 -0.0447  0.0881 -0.0167
16654W        W32463   6.152  14.395   0.455 -0.1685  0.2500  0.0666
16655W        W32464  11.246   0.435   0.958 -0.2513 -0.1444 -0.0195
16656W        W32465   4.748   6.484  13.507 -0.0091 -0.2646 -0.0336
16657W        W32466   5.720  13.933  12.748 -0.0005 -0.0000 -0.0036
16658W        W32467   7.248   7.075   2.332  0.1875  0.2206 -0.2545
16659W        W32468  14.750   6.709   2.113  0.0585  0.0875  0.0530
16660W        W32469   5.854  15.641  10.644 -0.1947  0.1645  0.2599
16661W        W32470  11.650  13.692  11.516  0.0165 -0.0446  0.1317
16662W        W32471  14.654   4.209   4.390 -0.0446 -0.2368  0.0337
16663W        W32472  13.291  13.261  12.480  0.0931  0.3300  0.0471
16664W        W32473  10.624  13.523   4.371 -0.1709  0.2554 -0.0346
16665W        W32474   6.922   1.583  11.781  0.2371 -0.1315 -0.2036
16666W        W32475   8.348   1.699  15.056 -0.0372  0.0219 -0.1574
16667W        W32476   1.071   5.922  14.789 -0.0280  0.1578 -0.0740
16668W        W32477   2.715   4.493  10.807 -0.0452  0.1686  0.0732
16669W        W32478  14.673   7.290  12.606  0.1968 -0.2362  0.1391
16670W        W32479  12.334   5.660  12.818  0.2766  0.1716 -0.0735
16671W        W32480   1.507   8.706  12.431 -0.2564  0.0251 -0.1716
16672W        W32481   3.506  13.514   5.207  0.3638 -0.0917 -0.0555
16673W        W32482  12.870   7.817   3.389  0.0888 -0.1229  0.1850
16674W        W32483  10.451   9.048  12.746 -0.0530  0.3184  0.2260
16675W        W32484   5.401   8.014  11.649 -0.6000  0.1291 -0.0724
16676W        W32485   6.092  11.407   0.028  0.2382 -0.1067 -0.2032
16677W        W32486  13.759  16.636  12.921 -0.2415  0.2105  0.1145
16678W        W32487  16.064  16.254   4.971 -0.1808  0.0608  0.0411
16679W        W32488  12.607   2.861  11.880 -0.0237 -0.0457  0.4274
16680W        W32489  16.102  14.201  15.335 -0.0646 -0.0552  0.0110
16681W        W32490   2.227  18.054  11.871 -0.0879  0.1464 -0.0908
16682W        W32491  12.469  12.772   5.212 -0.2017  0.1641  0.0712
16683W        W32492  17.617   0.023  13.542 -0.0694  0.1173  0.0545
16684W        W32493   6.318  14.564   0.923  0.3175 -0.0253  0.0423
16685W        W32494  16.663  13.762  14.828 -0.4691  0.1101  0.1091
16686W        W32495   7.350  13.769  14.222  0.0952  0.1757 -0.0739
16687W        W32496   0.989  10.397   1.868 -0.0455 -0.1064  0.1940
16688W        W32497   2.941  13.813  14.185 -0.2079  0.0335  0.1155
16689W        W32498   3.659   8.538   1.262 -0.2005  0.1768  0.3697
16690W        W32499   0.317   4.014  13.260 -0.1146 -0.2503  0.3458
16691W        W32500   5.187   2.496   1.863 -0.1089  0.0924 -0.1080
16692W        W32501  16.966   3.031   0.153  0.0874  0.4550  0.2455
16693W        W32502  14.411   2.238   3.373  0.1922 -0.1322 -0.3900
16694W        W32503   6.625   7.686  13.176  0.2130  0.0186 -0.2833
16695W        W32504   7.005  10.717  12.105  0.0534 -0.0328  0.0484
16696W        W32505  15.492  17.027  14.722 -0.0948 -0.4553  0.0984
16697W        W32506   5.504   7.302   4.715  0.3654  0.1674  0.1302
16698W        W32507  17.449  15.396   1.000  0.1262  0.0632 -0.2164
16699W        W32508   5.293  12.037   4.732  0.0130 -0.1933 -0.1092
16700W        W32509   8.947   8.596  15.130 -0.0405  0.1500 -0.0096
16701W        W32510  18.453  13.030   0.529  0.0181 -0.0946  0.1342
16702W        W32511  13.180   7.069   1.351 -0.0162 -0.1090 -0.0541
16703W        W32512   2.620  17.580   3.208 -0.0415 -0.1468  0.2432
16704W        W32513  13.032  15.891   0.239 -0.1585  0.2331 -0.0672
16705W        W32514  18.076   6.373  14.611 -0.1995  0.0399  0.0018
16706W        W32515  15.026   4.410  10.788  0.0898 -0.2109  0.1557
16707W        W32516   9.492   7.267  14.661 -0.0622 -0.4020 -0.1598
16708W        W32517   3.758  15.701   2.592 -0.2797 -0.4223  0.0304
16709W        W32518   7.815  16.491   4.716  0.0305  0.0528  0.2735
16710W        W32519  17.061  11.638  11.551  0.1858 -0.0266  0.0093
16711W        W32520  15.666   3.780   1.175  0.0525 -0.1994  0.2877
16712W        W32521  13.945   5.135  14.494 -0.0046 -0.1342 -0.3415
16713W        W32522   5.696  17.634   9.862  0.3542  0.1069 -0.0383
16714W        W32523   8.382  11.941   2.550  0.1999 -0.3552  0.0434
16715W        W32524   3.285  11.926  11.895  0.0319  0.2699  0.0072
16716W        W32525   6.024   3.132   2.887  0.3015 -0.1957 -0.3666
16717W        W32526   9.497   3.197  12.376  0.0931 -0.1206  0.1910
16718W        W32527  15.271   0.168  11.056  0.2019 -0.2543 -0.0552
16719W        W32528   5.608   1.348  15.111  0.0684 -0.1735 -0.0542
16720W        W32529   3.307   3.866   3.637 -0.0407 -0.0234  0.0612
16721W        W32530   0.403   6.171   2.912 -0.1160  0.1882  0.1574
16722W        W32531   1.829  14.224   1.238  0.0557  0.0504  0.0425
16723W        W32532  15.437  14.519   0.570 -0.0374 -0.1063 -0.0318
16724W        W32533  12.704   1.506   3.864 -0.2191 -0.0674  0.0472
16725W        W32534  17.524  12.769  12.162  0.1161 -0.0749 -0.0136
16726W        W32535   7.536   6.490  12.171 -0.1089 -0.1806 -0.1246
16727W        W32536   6.631   5.257  14.468 -0.0828 -0.1236  0.0293
16728W        W32537   6.715   8.787   5.906  0.3499  0.2956  0.1559
16729W        W32538   7.283   9.895   3.381 -0.0025 -0.1977 -0.5225
16730W        W32539  17.194   0.710  13.712  0.0054 -0.1095 -0.3947
16731W        W32540   4.421   2.346  11.261  0.0023 -0.3797 -0.0472
16732W        W32541   2.697  11.290   3.650  0.0569  0.1993 -0.1624
16733W        W32542   8.113   0.549   5.320  0.1595 -0.2988  0.2310
16734W        W32543  15.656   8.105  12.062 -0.1544  0.2672 -0.0924
16735W        W32544   3.596  16.795   2.267  0.3274  0.1003 -0.2760
16736W        W32545  17.908   4.445  11.166 -0.0820  0.0653  0.1349
16737W        W32546   1.304   2.660  15.659  0.0099  0.2297 -0.1682
16738W        W32547   0.348   8.649   3.656 -0.0211  0.2713  0.0473
16739W        W32548   4.034   4.155   3.016  0.0260 -0.0847  0.0427
16740W        W32549  16.406   9.316  14.120 -0.2776 -0.1012 -0.1962
16741W        W32550  14.200   7.122  11.070  0.0031  0.0420  0.0755
16742W        W32551  17.585  17.944   2.272  0.1998 -0.1075 -0.1408
16743W        W32552  18.071   6.518  15.099  0.1781  0.0466 -0.1726
16744W        W32553   8.363  11.420  11.509  0.1221  0.0802 -0.0625
16745W        W32554   2.062  13.817  12.232 -0.0978  0.0168  0.0642
16746W        W32555   5.484   5.850   5.681 -0.1957 -0.1661 -0.1214
16747W        W32556   5.996  17.747  11.935  0.0856 -0.4023  0.0586
16748W        W32557   2.235   6.021   2.205 -0.0307  0.1587  0.0122
16749W        W32558   2.730  11.722  12.304  0.0268 -0.1658 -0.1937
16750W        W32559  17.982  15.106  13.066 -0.2885  0.0943  0.0641
16751W        W32560  13.474   2.672  12.606 -0.3433 -0.0992 -0.1447
16752W        W32561   2.969  11.006   2.730 -0.1205  0.1285 -0.0480
16753W        W32562   1.982   2.174   4.153 -0.2196 -0.0437  0.2942
16754W        W32563  15.054   0.876   1.801  0.0789  0.0309 -0.1086
16755W        W32564  10.348  16.834   1.116 -0.0544  0.3093  0.0168
16756W        W32565   0.764  15.473   5.241 -0.3066 -0.1368 -0.0104
16757W        W32566  15.075   2.675   1.437 -0.1876  0.3683  0.2309
16758W        W32567  15.712  13.398  11.650  0.1065 -0.1102 -0.1998
16759W        W32568  16.174  10.044  11.446 -0.0114 -0.1910 -0.0966
16760W        W32569  15.501   4.280   3.507  0.2216 -0.1552 -0.1485
16761W        W32570   3.557  11.811   4.529  0.3264  0.2099  0.2385
16762W        W32571  11.028  16.179  12.797  0.1405  0.0667 -0.2816
16763W        W32572   0.742   3.246  11.869 -0.0204  0.0151  0.0479
16764W        W32573   7.317  18.296   2.584 -0.2663  0.1756  0.0598
16765W        W32574   1.496   1.697  13.669  0.0254 -0.1950 -0.3859
16766W        W32575  10.501   1.121  13.814 -0.2707 -0.2930  0.1266
16767W        W32576   8.636   4.470  10.583  0.1415 -0.0972 -0.0474
16768W        W32577   4.733   6.624  11.437  0.0442 -0.2351 -0.2867
16769W        W32578   3.764   9.252  12.471 -0.0275 -0.2049 -0.0169
16770W        W32579  11.045  17.426   2.320 -0.1120  0.0486 -0.0123
16771W        W32580   8.939  15.258   1.751  0.4033  0.1358  0.0726
16772W        W32581  17.142   8.391  12.607  0.2199  0.1724 -0.2251
16773W        W32582   0.257  16.411  10.664 -0.1328 -0.1806  0.2183
16774W        W32583   6.761   3.943  14.242 -0.1396 -0.3703 -0.2289
16775W        W32584  14.571  15.298  11.878 -0.1228  0.0750 -0.0847
16776W        W32585  11.659   3.634   2.118  0.0836  0.2518 -0.0778
16777W        W32586  13.736  17.961   5.032  0.0469 -0.1961  0.1414
16778W        W32587  14.071   8.261  13.485  0.0897 -0.2022  0.2107
16779W        W32588  15.706   1.897  14.333 -0.3188  0.0101  0.1672
16780W        W32589   9.407  17.469   3.420 -0.0907 -0.0179  0.1022
16781W        W32590   8.209   9.945   1.277  0.2517 -0.4375 -0.2205
16782W        W32591  10.901  13.959   4.210 -0.0234 -0.2505 -0.1918
16783W        W32592  18.137  17.154  12.129 -0.1864  0.0781 -0.0734
16784W        W32593  17.350   8.810   2.954  0.1874 -0.0575 -0.3147
16785W        W32594  14.492   1.497  14.253  0.0240 -0.0528 -0.0724
16786W        W32595   3.105   8.183   3.256  0.2386 -0.2036 -0.1673
16787W        W32596  17.730  13.117  15.538  0.1664 -0.1795 -0.1960
16788W        W32597   4.575   8.155  11.065  0.0879 -0.0399 -0.1825
16789W        W32598   7.026   5.789  13.827 -0.0340  0.0491  0.0437
16790W        W32599  12.428   4.906   2.567 -0.0316 -0.2468  0.0960
16791W        W32600   4.624   0.274  13.030 -0.0790  0.1112 -0.3294
16792W        W32601   9.217   1.758  12.116  0.0257  0.2125 -0.0924
16793W        W32602   4.676  12.757  12.204 -0.0879 -0.0445 -0.1754
16794W        W32603   7.216  13.941  11.326  0.0113 -0.1692 -0.1059
16795W        W32604   9.675   0.272  13.270 -0.0611  0.1211  0.0749
16796W        W32605  13.973  14.007  13.533  0.2344  0.3338 -0.3398
16797W        W32606  10.727  16.049   4.818 -0.3029 -0.0313  0.1708
16798W        W32607   0.192  18.211  14.670 -0.2010 -0.0702 -0.1285
16799W        W32608   4.234  16.231   1.328 -0.0596 -0.1531 -0.0620
16800W        W32609  16.726  16.710  15.173 -0.0044  0.0599 -0.1448
16801W        W32610  14.704  12.730   1.303  0.0704  0.1422 -0.1430
16802W        W32611   9.167  17.026  12.452 -0.1818  0.0089  0.1870
16803W        W32612  17.577   4.078   5.433 -0.2424  0.1773  0.0093
16804W        W32613  17.018  14.931   1.422 -0.0520 -0.0432 -0.1589
16805W        W32614   7.004  11.465  11.370 -0.1386 -0.2657  0.1144
16806W        W32615   8.481   5.090  12.851 -0.3200 -0.0530  0.0930
16807W        W32616  13.402  16.079   4.663 -0.3364  0.0583  0.1444
16808W        W32617  15.163   0.167  10.537  0.1962  0.2580  0.1230
16809W        W32618  10.032   8.391   5.247  0.1855 -0.0582  0.0442
16810W        W32619   4.597   3.078   4.411 -0.2116 -0.0156  0.1214
16811W        W32620   7.412  12.402   4.539 -0.0662 -0.0741  0.0689
16812W        W32621   9.371  15.945   3.523  0.0052 -0.2233 -0.0259
16813W        W32622  15.231  16.696   2.180 -0.0680  0.1040 -0.2103
16814W        W32623   8.748  11.708   1.242  0.0433  0.3112 -0.5149
16815W        W32624   1.672  10.535   4.471  0.0751 -0.2043  0.3705
16816W        W32625   6.957   2.055  11.084 -0.0547  0.1822 -0.3378
16817W        W32626  11.317  16.728  14.793  0.0881  0.2167 -0.1250
16818W        W32627  18.076  15.606  15.493 -0.1607  0.2360  0.0388
16819W        W32628   3.898  13.067   1.261  0.1419 -0.2782 -0.1498
16820W        W32629   3.948   9.884   2.980  0.1689 -0.3649  0.1379
16821W        W32630   8.273   6.794   0.633  0.0238 -0.0866 -0.0940
16822W        W32631   9.674  16.275  14.441 -0.2990  0.2857 -0.1148
16823W        W32632   9.307  16.680   3.079 -0.1879  0.0430  0.1303
16824W        W32633  13.258  14.107  12.686 -0.1102 -0.1512 -0.1363
16825W        W32634  15.868   2.207   0.964  0.1721 -0.0684 -0.0305
16826W        W32635   5.556   3.993   3.075  0.2554 -0.1061  0.1476
16827W        W32636  11.890  15.384  13.132  0.1353  0.0103  0.0020
16828W        W32637  14.537   9.700   2.991 -0.1135  0.0229 -0.2444
16829W        W32638  16.295  12.435   4.184 -0.2631  0.1468  0.2473
16830W        W32639  17.384   9.091   3.389 -0.0310 -0.1655  0.3256
16831W        W32640   6.996   7.354  13.437 -0.0645  0.1075 -0.1040
16832W        W32641  11.835   7.620   4.253  0.1200  0.2805 -0.0020
16833W        W32642   8.884  10.780  15.721 -0.0420  0.1325 -0.1795
16834W        W32643  15.936  13.679   0.381 -0.0139  0.1516  0.2068
16835W        W32644   7.654  16.846  11.145 -0.2751  0.0392 -0.1801
16836W        W32645  16.668  14.863   2.669 -0.1803  0.2344 -0.0184
16837W        W32646  16.170  15.315  10.272 -0.0929  0.2052  0.1663
16838W        W32647  10.919  18.460   1.245  0.0682  0.3420  0.3266
16839W        W32648  16.128  13.454   5.120  0.2146 -0.0901 -0.2869
16840W        W32649   0.616   0.236   4.423  0.1492  0.1653  0.2446
16841W        W32650  12.347   5.161  12.666 -0.1598 -0.0831  0.1051
16842W        W32651  14.209  16.395   5.258  0.0116 -0.0154 -0.1327
16843W        W32652   4.912  12.032   1.229  0.1783 -0.0478 -0.1669
16844W        W32653   6.727   7.144  11.886 -0.1452  0.1110  0.1457
16845W        W32654   7.665  11.006  11.121 -0.2530 -0.2126 -0.0836
16846W        W32655   9.742   8.135   4.607  0.2812  0.1935 -0.3763
16847W        W32656   3.338  16.646  10.977  0.3176 -0.2416  0.1460
16848W        W32657  14.785  18.445   3.846 -0.1709 -0.2988 -0.1910
16849W        W32658  10.792  18.217   1.848  0.1839  0.0146 -0.2340
16850W        W32659   0.470   7.694  10.691 -0.1419 -0.1839 -0.0286
16851W        W32660  16.845  11.584   3.896 -0.0147  0.0280  0.0710
16852W        W32661  10.168   0.153   0.569 -0.1542 -0.3263  0.2068
16853W        W32662   1.471  11.050   5.571 -0.0279 -0.0253  0.3463
16854W        W32663   6.352   8.876  13.211 -0.0629 -0.2447 -0.0300
16855W        W32664   3.314   4.475  11.376 -0.1809  0.2670 -0.1194
16856W        W32665  13.653   0.793   0.540 -0.1646 -0.0203 -0.1501
16857W        W32666   3.925  10.148  11.401 -0.0673  0.2434  0.1103
16858W        W32667   1.791   5.219  14.155  0.1065  0.1067  0.2005
16859W        W32668  14.396   6.080   1.240  0.0559  0.0179  0.3392
16860W        W32669   3.639  16.822   4.657 -0.0211  0.3804  0.0193
16861W        W32670   8.566   9.730   5.201  0.0470  0.1087  0.1452
16862W        W32671   2.782   3.652   0.459 -0.1176 -0.1055 -0.0575
16863W        W32672  12.452   4.680   2.038 -0.1741  0.2365  0.2545
16864W        W32673   7.728   6.339  14.081  0.0557 -0.0930 -0.1667
16865W        W32674  17.071   6.607   5.069 -0.0809  0.0006  0.0648
16866W        W32675  18.315  10.030   0.486 -0.1798 -0.0735  0.2841
16867W        W32676  13.360   7.594  10.615 -0.1132 -0.2409 -0.0243
16868W        W32677   3.150  15.049   5.189  0.0929  0.0459  0.3738
16869W        W32678   4.689   2.365   1.691 -0.0876  0.0127 -0.4081
16870W        W32679  10.634  15.780   4.200 -0.0323 -0.0845 -0.0548
16871W        W32680   2.858  10.910   3.287  0.1341 -0.2809  0.3625
16872W        W32681  14.355   2.527  14.953  0.1490  0.0204 -0.2658
16873W        W32682   6.383  16.473   4.109 -0.1903 -0.2460 -0.1809
16874W        W32683  10.678   4.670   3.398  0.1630  0.0869 -0.1371
16875W        W32684  10.721  16.013   2.197  0.0921  0.0406 -0.0534
16876W        W32685   7.619   4.916   4.582  0.1908 -0.0538  0.0079
16877W        W32686   5.822  12.352   3.978 -0.1241  0.2675  0.1016
16878W        W32687   0.843  11.300  10.733 -0.2952  0.1345  0.1396
16879W        W32688   7.767   9.469  14.692  0.2149 -0.1397 -0.3105
16880W        W32689  13.399  14.615   1.155 -0.3272 -0.0109 -0.2100
16881W        W32690   8.145   8.320   1.366 -0.0086 -0.1983  0.0936
16882W        W32691  16.557  15.655  13.467 -0.2652  0.0267 -0.1452
16883W        W32692   0.087   0.244  13.602  0.1335 -0.1592  0.4311
16884W        W32693  13.150  16.309   2.641  0.1038 -0.0359 -0.1834
16885W        W32694   6.480  13.634   1.843 -0.2798  0.0027 -0.1080
16886W        W32695  13.665  15.943  15.333 -0.1552  0.0265 -0.0440
16887W        W32696   0.956   2.342   4.454 -0.2715  0.1533 -0.2151
16888W        W32697  17.691  16.379  12.419  0.0269 -0.3848 -0.0080
16889W        W32698  13.908  11.598   5.055 -0.1513  0.3452 -0.0872
16890W        W32699   8.092   1.758  11.101 -0.0761 -0.0459 -0.2263
16891W        W32700   0.209   7.270   0.341 -0.0164 -0.1236 -0.0993
16892W        W32701   9.469  16.059   5.693 -0.0262  0.3748  0.1920
16893W        W32702   7.334  15.918   4.818 -0.0827 -0.1747 -0.2855
16894W        W32703  15.373  17.021  11.598  0.2590 -0.0174  0.2908
16895W        W32704  13.919   8.405  11.628  0.3449  0.0115 -0.4243
16896W        W32705   4.089   3.628  15.331  0.0375 -0.0058  0.0225
16897W        W32706  13.736  16.603  11.898 -0.1078  0.1606 -0.0026
16898W        W32707   6.958   5.415  12.110 -0.0609 -0.2019  0.1284
16899W        W32708  11.307   9.007  15.417  0.0455  0.1208  0.0572
16900W        W32709   4.870  10.715   4.766  0.1401 -0.0009 -0.1352
16901W        W32710  15.188  13.137   4.898  0.3411 -0.3827 -0.3963
16902W        W32711   4.054   5.553  14.187  0.3063 -0.0718  0.1345
16903W        W32712   7.427   9.034  15.753  0.0281  0.2380  0.2205
16904W        W32713  10.451   6.623   5.120 -0.2353  0.1490 -0.0416
16905W        W32714   0.516   9.962  11.663  0.0450  0.1809 -0.0616
16906W        W32715   1.027   7.739   5.385  0.0317 -0.2030  0.0543
16907W        W32716   9.899   7.923   3.621 -0.0822  0.0837 -0.0131
16908W        W32717  11.038   7.801   2.105  0.3385  0.0901 -0.3061
16909W        W32718  15.572   0.543   4.085  0.0012  0.3598 -0.2593
16910W        W32719  17.680   4.109  14.024 -0.1748  0.1778 -0.2870
16911W        W32720   4.754   1.627  14.709  0.2485  0.2119 -0.0869
16912W        W32721   7.659   0.994  11.005 -0.1211 -0.0491  0.3063
16913W        W32722   3.102   2.207   2.847 -0.1407  0.1690  0.1567
16914W        W32723   6.656   3.119   0.615  0.0364  0.0897 -0.0015
16915W        W32724   7.519  16.146  12.564 -0.1858  0.3316  0.0468
16916W        W32725   9.437  13.435   3.610 -0.1269 -0.2010 -0.0484
16917W        W32726   0.289   4.959  11.565  0.2117 -0.0754 -0.0443
16918W        W32727   0.522  16.058  13.290 -0.0749  0.1779  0.0929
16919W        W32728  10.366  16.617  13.314 -0.4799  0.1983  0.1434
16920W        W32729   8.163   7.278  14.219  0.0893  0.0893  0.0623
16921W        W32730   3.457  14.655   3.998 -0.2930 -0.0050 -0.2635
16922W        W32731   4.968  10.007   3.632  0.0973  0.4081 -0.1522
16923W        W32732  12.720   5.341  13.689  0.0231  0.0070 -0.1473
16924W        W32733   1.564  14.796  14.699  0.3883  0.0308  0.0011
16925W        W32734  11.598   7.487  13.050  0.0650 -0.2259 -0.1862
16926W        W32735   7.159  17.950   0.066  0.0507 -0.2292  0.0716
16927W        W32736   2.718   8.064   0.369 -0.0401 -0.1133 -0.1708
16928W        W32737  11.760  10.049   1.937 -0.0716 -0.2460  0.0355
16929W        W32738   7.222  11.522  14.710  0.2479  0.1845  0.1949
16930W        W32739  13.046   4.852  12.022  0.0817 -0.0387  0.3610
16931W        W32740  17.188   5.582  11.650 -0.2800 -0.1239  0.1746
16932W        W32741  16.091  12.160  11.019 -0.1556 -0.0392 -0.3615
16933W        W32742  16.363   5.164   0.588  0.1617 -0.2270  0.0097
16934W        W32743  14.263   2.812  13.392 -0.2307  0.0535 -0.0356
16935W        W32744   4.332   3.081   3.004  0.0350 -0.0561 -0.3319
16936W        W32745  12.472  17.977   5.600  0.0642  0.1516 -0.1685
16937W        W32746   9.874  10.386   2.858 -0.2381 -0.1706  0.1490
16938W        W32747  10.392   9.690   4.305 -0.2243 -0.2754  0.0765
16939W        W32748   2.097   5.568   4.475  0.1165  0.1002 -0.0508
16940W        W32749  10.970  10.519  13.482 -0.0925 -0.0475  0.1890
16941W        W32750  10.533  10.666  12.228  0.1155 -0.1829  0.0681
16942W        W32751  17.309  13.175  11.206 -0.0470  0.2765  0.1782
16943W        W32752  11.219  13.485   4.189  0.2832  0.1347 -0.0866
16944W        W32753  17.840  11.450   4.300  0.0941  0.0070 -0.2700
16945W        W32754   8.502  15.352   1.973 -0.4077  0.0723  0.1763
16946W        W32755  17.131   5.493   0.229  0.1105 -0.0106 -0.1246
16947W        W32756  16.876  12.565  10.882  0.0537 -0.1919 -0.3163
16948W        W32757   0.742   3.783   1.279  0.3180  0.3516  0.2112
16949W        W32758  12.384   0.188  11.761  0.0921 -0.1976  0.2394
16950W        W32759   6.539   2.989  12.736  0.0447 -0.0812 -0.2059
16951W        W32760  12.889  14.458   4.224 -0.1513 -0.1873  0.3878
16952W        W32761   4.016   3.909  11.144  0.0140 -0.1333 -0.1678
16953W        W32762  15.272  18.143   4.675 -0.1335 -0.1544  0.1169
16954W        W32763  10.201  12.751  14.774 -0.0895  0.0947  0.1511
16955W        W32764  13.924  17.263   1.600 -0.1979 -0.0572 -0.0082
16956W        W32765   1.533  17.957   1.943 -0.0875 -0.1903  0.0147
16957W        W32766   4.977   4.081   0.779 -0.0220 -0.2245 -0.2399
16958W        W32767  12.743  15.138  12.585  0.0806  0.0355  0.3738
16959W        W32768  17.209   3.487  10.565 -0.1292 -0.2006 -0.1167
16960W        W32769   3.146   3.883  12.714  0.0779  0.1890  0.0994
16961W        W32770   1.271  10.097  11.223 -0.0528  0.1837 -0.2905
16962W        W32771   0.377   1.802  13.511 -0.1455 -0.0201  0.1968
16963W        W32772   4.910  14.233   0.852 -0.2372  0.0392 -0.0459
16964W        W32773   3.436   7.218   0.148  0.2266  0.2961 -0.0895
16965W        W32774  15.776  12.758   2.427 -0.2502  0.2589  0.3832
16966W        W32775   3.860  11.488   5.879 -0.1444  0.1069 -0.0286
16967W        W32776  12.238  12.427  14.655  0.0888 -0.1467 -0.2376
16968W        W32777   2.028  15.980  11.726 -0.0798 -0.2682  0.2133
16969W        W32778   9.606  12.924  11.491 -0.0049  0.2834 -0.1966
16970W        W32779   1.308  11.801  11.789  0.0190 -0.1011  0.0443
16971W        W32780  17.627   0.807   0.215  0.3319  0.1769  0.1497
16972W        W32781   6.170  18.380   1.693 -0.1618  0.0168  0.1907
16973W        W32782  15.009  14.198   5.980  0.4413  0.1721 -0.3056
16974W        W32783  12.725   1.374  15.188 -0.4127 -0.3148  0.2190
16975W        W32784   6.027   1.695  14.403  0.4424  0.0769  0.2530
16976W        W32785   6.015  12.730   0.588 -0.1515  0.0882  0.1884
16977W        W32786  10.506  10.246   3.705  0.1631 -0.2745 -0.0082
16978W        W32787   2.128   8.997   0.600  0.3946 -0.2756 -0.0868
16979W        W32788  13.473   0.809  11.254  0.1156  0.3103 -0.2720
16980W        W32789  12.619   4.310   4.935  0.2060  0.1240 -0.0985
16981W        W32790   8.048  10.049  11.263  0.1004  0.3400 -0.1091
16982W        W32791   3.582  12.148  14.032  0.0222  0.0339  0.2445
16983W        W32792   1.095   7.653   1.112  0.1598  0.0096 -0.0291
16984W        W32793   1.280   6.554   0.625 -0.0178  0.1436 -0.3161
16985W        W32794   1.020   1.798  14.499  0.0236  0.2144  0.2025
16986W        W32795   9.248  12.732   4.197 -0.0222  0.3851 -0.0775
16987W        W32796   3.929   2.097   1.295 -0.5831  0.0224  0.1446
16988W        W32797   8.114   8.843  15.106  0.0846 -0.1863  0.0574
16989W        W32798   0.172   0.951   2.371 -0.0352 -0.1746  0.0452
16990W        W32799   7.749   7.397  15.760  0.0591  0.1783  0.1345
16991W        W32800   8.094  17.872   0.242  0.0148 -0.4029 -0.1071
16992W        W32801   9.215   4.719  11.121  0.0220 -0.2977 -0.2397
16993W        W32802   7.887  16.213   1.432 -0.3976  0.3575 -0.0381
16994W        W32803   3.689   0.596  13.126  0.3072  0.1361  0.1511
16995W        W32804   0.862  14.030  10.754 -0.0562  0.1044  0.0661
16996W        W32805   5.101   7.819  13.606 -0.0589 -0.1507  0.1706
16997W        W32806   3.825  15.955  11.159 -0.1459  0.0991  0.3030
16998W        W32807   8.592  10.871  13.929  0.0140  0.1464  0.2732
16999W        W32808  16.810   2.100  10.338 -0.0039 -0.1227  0.0385
17000W        W32809   4.866   6.606   3.924  0.0826  0.0817 -0.1575
17001W        W32810   3.403   8.315  13.109  0.1055 -0.2630  0.2545
17002W        W32811  15.217  13.140  11.170 -0.1862  0.0404 -0.0251
17003W        W32812  11.138  11.029  14.262 -0.0581  0.2135 -0.2914
17004W        W32813   4.366  15.480  12.821 -0.1539  0.0618 -0.1273
17005W        W32814   8.059  15.973  14.246 -0.4799 -0.2179  0.2203
17006W        W32815   0.504   2.849   1.081 -0.0352 -0.1235 -0.1832
17007W        W32816  17.994  17.011   4.927  0.0225 -0.2009  0.2591
17008W        W32817  12.711  10.135   2.101 -0.1941  0.6272 -0.1727
17009W        W32818  14.383  17.813   4.360 -0.0686  0.2065 -0.1699
17010W        W32819   1.109   8.198  12.793  0.1403  0.2058 -0.0768
17011W        W32820   5.487   2.956   1.756 -0.1817 -0.2320  0.2895
17012W        W32821   7.548   1.576  10.431 -0.1829  0.0344 -0.0681
17013W        W32822   6.491  14.531   5.827  0.0177  0.0407  0.2985
17014W        W32823  10.165   5.318   2.420 -0.0253 -0.1066 -0.0074
17015W        W32824  11.804  13.944  15.093 -0.1302  0.0262  0.2245
17016W        W32825  16.488  13.215   4.820  0.2340 -0.4109  0.0382
17017W        W32826   8.560  17.109   0.544 -0.0972  0.1139  0.1129
17018W        W32827   4.961  10.948  13.891  0.3194  0.0450  0.0751
17019W        W32828  12.012  15.296  12.035 -0.1413 -0.2682  0.1722
17020W        W32829   7.183  12.416  14.734  0.2126 -0.1188 -0.1955
17021W        W32830  13.343  17.016  12.259  0.0336  0.1671  0.2912
17022W        W32831   8.545   9.262   2.391 -0.1692 -0.0368 -0.1480
17023W        W32832   8.033  12.781   0.322  0.1214  0.4323  0.0226
17024W        W32833   7.842  17.069  13.481  0.1182  0.1984 -0.3674
17025W        W32834  18.432   9.498  12.921  0.2224  0.0089  0.2038
17026W        W32835   7.399   8.342   0.807 -0.1056 -0.0460  0.0359
17027W        W32836  18.425  11.018  12.705 -0.1116 -0.0495 -0.0304
17028W        W32837   8.090   9.192   5.584  0.1989 -0.4692 -0.2642
17029W        W32838   9.519   7.065   1.202 -0.2476  0.3310  0.0503
17030W        W32839   3.090   9.708  14.396 -0.0441 -0.1008 -0.0993
17031W        W32840   9.410  12.166  13.730 -0.1761 -0.2436  0.0962
17032W        W32841  13.079  13.327   0.743  0.0032 -0.3093  0.2345
17033W        W32842  11.071   5.000  13.030  0.0294 -0.1884  0.2435
17034W        W32843  12.166   5.026   1.129  0.0298 -0.2584 -0.2370
17035W        W32844  12.405   3.446  11.882  0.2198 -0.3014  0.1718
17036W        W32845   7.890   8.033  11.611  0.2505  0.0880 -0.1592
17037W        W32846   6.321  17.660  13.177  0.2688  0.0670  0.0058
17038W        W32847  11.276   7.630  14.009  0.2162 -0.1930  0.1465
17039W        W32848  11.954   9.915   9.650 -0.0406 -0.1072  0.0739
17040W        W32849  16.974  16.202   1.482  0.0502  0.1248  0.0089
17041W        W32850   0.372  16.805  14.362  0.0746  0.0281  0.0070
17042W        W32851   7.156  11.296   3.514  0.1053 -0.0465 -0.0372
17043W        W32852   8.598   6.204   2.071  0.0846 -0.1187 -0.0717
17044W        W32853  18.261   7.721  14.078 -0.0213 -0.0737 -0.0543
17045W        W32854  14.306   8.392   3.298 -0.0638 -0.1981 -0.1060
17046W        W32855  16.647   8.829   5.076  0.2677  0.1247 -0.1901
17047W        W32856   5.218  15.462  14.385  0.2046 -0.0878 -0.1305
17048W        W32857  10.927   3.510  12.814  0.1778  0.3253 -0.1421
17049W        W32858   9.917  13.282   1.367 -0.0997  0.3680  0.0719
17050W        W32859   5.665  17.459   5.447 -0.0345  0.0196  0.0434
17051W        W32860   2.822  12.224   3.339  0.1924  0.1529  0.3721
17052W        W32861  12.951  15.596  12.834 -0.0429  0.0413 -0.1858
17053W        W32862   7.850  12.785  11.345 -0.3571  0.1019  0.1104
17054W        W32863  16.087   0.332   0.302 -0.3052 -0.1921 -0.2396
17055W        W32864  14.321  17.076   4.748  0.1581  0.0789  0.0503
17056W        W32865  12.816  18.033  13.989  0.3901 -0.2140  0.2982
17057W        W32866  18.354  13.387  14.079 -0.0610  0.1031  0.0947
17058W        W32867   9.304  11.945  12.492 -0.0038 -0.0202  0.0589
17059W        W32868   2.931  17.102   4.225  0.0144  0.0877  0.1039
17060W        W32869   6.109   1.178  11.724  0.0419 -0.1133  0.2370
17061W        W32870   8.661   5.851   5.012  0.2525 -0.1592  0.0349
17062W        W32871   4.597   0.533  13.482 -0.0803  0.0405  0.2418
17063W        W32872  16.119   6.795   5.513 -0.0551  0.2057  0.1646
17064W        W32873  13.810   9.347  14.143  0.0249  0.2768 -0.0049
17065W        W32874   0.915   3.950   2.333  0.2341 -0.4803 -0.0510
17066W        W32875   7.785   5.780  12.779  0.0980  0.2892 -0.1254
17067W        W32876   9.983  12.165   1.643 -0.1734 -0.2192  0.2975
17068W        W32877  12.248  15.467   4.473 -0.0833 -0.4454  0.2522
17069W        W32878   1.350   9.405  11.795 -0.0065 -0.2436 -0.0665
17070W        W32879  16.363  12.422   1.072 -0.0489 -0.0956 -0.1977
17071W        W32880   5.038   6.470  12.929  0.0410  0.0318  0.0215
17072W        W32881  18.360   1.434   2.536 -0.0719 -0.0325 -0.2032
17073W        W32882   2.332   0.932   3.327 -0.1681 -0.1464  0.0496
17074W        W32883  11.080  11.126   3.342  0.0975  0.0517 -0.2771
17075W        W32884   4.774   9.641   5.230 -0.3936 -0.1154  0.1142
17076W        W32885  11.742  13.307   2.001 -0.2739 -0.2261  0.0724
17077W        W32886   6.794   2.351  15.052 -0.0779 -0.0808  0.1665
17078W        W32887  12.839   0.524  14.910 -0.0645 -0.0912 -0.3438
17079W        W32888  14.178   8.917   4.679  0.1061  0.1008 -0.1404
17080W        W32889   8.913  14.229  12.693  0.0186 -0.0164 -0.1249
17081W        W32890   4.078   3.414   0.907 -0.1407 -0.3363 -0.0516
17082W        W32891  11.761  16.398   3.717  0.0729 -0.3186 -0.0192
17083W        W32892  18.216  15.644  12.873 -0.0481 -0.1731  0.1727
17084W        W32893  14.973  13.020   0.414  0.1628  0.1314 -0.0249
17085W        W32894   3.483  18.020  12.138 -0.3642 -0.4461  0.0347
17086W        W32895   5.209   1.161  15.316  0.1431 -0.1241  0.0394
17087W        W32896   1.129   2.041   1.632  0.1773  0.0932  0.0324
17088W        W32897   6.777   9.111  12.988  0.0062 -0.2876  0.0946
17089W        W32898  13.028  12.031   4.735  0.0936  0.0831 -0.0770
17090W        W32899   8.239   5.178   2.877 -0.3001 -0.0287  0.1506
17091W        W32900   8.277   8.158  14.660 -0.1546 -0.2062  0.0261
17092W        W32901  16.881  16.918   1.442  0.0554 -0.1245  0.0713
17093W        W32902   9.039   2.904   0.392  0.1896 -0.2765 -0.3685
17094W        W32903  12.824  18.274   5.372  0.1697  0.2485  0.0533
17095W        W32904  16.086  14.469  12.600  0.0437 -0.0658  0.3481
17096W        W32905  16.483   4.302   3.998 -0.1670 -0.3616 -0.0364
17097W        W32906   7.564   7.153  11.666  0.1332 -0.2534 -0.2093
17098W        W32907   6.906   3.286   4.306 -0.1040  0.1353  0.1206
17099W        W32908   6.089   0.185  14.807 -0.0206  0.0026  0.0536
17100W        W32909   8.499   2.226  11.260  0.2433  0.0797  0.2384
17101W        W32910   4.272  17.110  12.526  0.0798 -0.0174  0.1000
17102W        W32911  10.618   1.460   2.845  0.1084  0.1688  0.0997
17103W        W32912  17.823  12.171  15.182 -0.2109 -0.1649 -0.2236
17104W        W32913   0.716  18.392   5.181  0.0604 -0.3159  0.2585
17105W        W32914   7.842   8.581   5.527  0.1887 -0.0285 -0.0868
17106W        W32915   2.734   1.365   1.093 -0.2739  0.0157 -0.1033
17107W        W32916   9.260  13.436  14.098  0.1347 -0.2983 -0.0245
17108W        W32917  10.034   6.063  14.437 -0.0808 -0.0696  0.2792
17109W        W32918   6.909  14.270  14.939  0.0754  0.2973 -0.0221
17110W        W32919   4.869  15.077   1.804  0.1993 -0.2009  0.1992
17111W        W32920   2.411   8.195  12.561 -0.2088 -0.0846 -0.2810
17112W        W32921  10.384  16.367   1.975 -0.0549 -0.0741  0.2545
17113W        W32922   1.605  12.809   3.090  0.2290  0.2334  0.1049
17114W        W32923  13.758   7.570   0.433 -0.0986  0.1187 -0.2834
17115W        W32924   5.166  12.860   0.081 -0.0298  0.1843  0.0812
17116W        W32925   0.564   3.080  13.331 -0.1888 -0.0864 -0.2314
17117W        W32926  12.456  16.810  12.944  0.1084 -0.2543 -0.0415
17118W        W32927  11.787   6.250  15.235 -0.3333  0.1552  0.0207
17119W        W32928  16.729  15.781   4.364 -0.0295  0.1417  0.0121
17120W        W32929   0.082   0.751   1.845 -0.4710 -0.0995  0.1824
17121W        W32930  14.252  11.720  15.439  0.0975 -0.0275  0.0971
17122W        W32931   1.690  17.468   0.687 -0.1148 -0.0909 -0.0255
17123W        W32932   3.708   7.549   3.071 -0.0253  0.2721 -0.0537
17124W        W32933  17.879   0.030  11.412 -0.0644  0.0937 -0.0805
17125W        W32934  14.442   3.485  14.855 -0.0737 -0.0322 -0.8289
17126W        W32935  16.178   8.478   1.961  0.2569 -0.2328 -0.0655
17127W        W32936   2.823   7.431  15.160 -0.4075 -0.0557  0.1450
17128W        W32937  16.073  14.856  14.856  0.2901  0.2071 -0.1050
17129W        W32938   8.651   3.199   0.731  0.3081 -0.1770  0.3952
17130W        W32939   1.685   8.046   6.052  0.0267 -0.0350  0.0619
17131W        W32940  10.108  15.790   0.892  0.0777  0.0156  0.1217
17132W        W32941   6.197   7.403  11.111  0.2871  0.1988 -0.0308
17133W        W32942   3.597   7.108  15.170  0.3602  0.2924  0.0102
17134W        W32943  16.928  14.189   4.377  0.0353 -0.2098 -0.1191
17135W        W32944   8.057  12.799   2.542 -0.0626 -0.0785  0.1693
17136W        W32945   1.955   3.770  12.400 -0.4903  0.1695 -0.0614
17137W        W32946  11.368  15.238   4.124 -0.3175 -0.1785  0.0402
17138W        W32947   1.649   6.669   5.074 -0.0007  0.3526  0.0085
17139W        W32948  16.179  11.210  12.203 -0.4800 -0.1217 -0.0084
17140W        W32949   8.922   9.470  13.859 -0.3664  0.0723 -0.2827
17141W        W32950  13.288  12.018  15.195  0.0628  0.0319 -0.0072
17142W        W32951   7.018  13.559  13.802 -0.1424  0.2655 -0.1006
17143W        W32952   9.654  11.121  11.950 -0.0107  0.2440  0.1509
17144W        W32953  16.613  12.072   0.849 -0.0672  0.2777 -0.3118
17145W        W32954  15.958   2.808   1.046  0.3210  0.3482  0.4706
17146W        W32955   5.434   1.627   1.248 -0.2062  0.6405  0.1204
17147W        W32956   3.501  11.224  11.791 -0.1002  0.2794  0.0887
17148W        W32957  10.487   3.325   0.505  0.2631  0.1495 -0.1675
17149W        W32958   1.289   3.793  11.157 -0.2027 -0.0081  0.1590
17150W        W32959   2.750  10.009  12.013  0.0624  0.0336  0.2869
17151W        W32960  14.290   1.515   0.215 -0.0910  0.1643 -0.1171
17152W        W32961   0.582  15.332  14.019 -0.0961 -0.0748 -0.0443
17153W        W32962  11.504  15.441  12.308  0.0505 -0.4202  0.2260
17154W        W32963   5.608  17.504   2.050 -0.0751  0.4979 -0.1685
17155W        W32964   7.112  13.035   4.063 -0.0297  0.2061  0.0806
17156W        W32965  16.193   8.632   0.682  0.0137 -0.1141 -0.0146
17157W        W32966   4.524   1.198   4.675 -0.0506  0.2062  0.1018
17158W        W32967  12.734   5.272   3.940  0.2455 -0.2606 -0.0392
17159W        W32968  11.099  15.326   0.790 -0.1073 -0.1219  0.0809
17160W        W32969  16.542   0.489  14.782  0.2097  0.1538  0.0173
17161W        W32970  12.606  15.175   1.354  0.1404 -0.0787  0.3716
17162W        W32971   8.901  12.973  12.405 -0.1036  0.2708 -0.0296
17163W        W32972   4.852   5.689   0.815  0.1887  0.0725 -0.1035
17164W        W32973   3.339  11.575   3.118 -0.0311  0.1161  0.0199
17165W        W32974   4.815  12.608   5.871 -0.2373 -0.1237  0.4386
17166W        W32975   2.227  15.265   4.332 -0.0354  0.0179  0.4704
17167W        W32976  13.930  14.334   3.997 -0.2239 -0.0354  0.0769
17168W        W32977  17.878   9.448   5.043 -0.0126 -0.1499  0.0738
17169W        W32978   0.577   1.581  11.511 -0.0813 -0.1398  0.1235
17170W        W32979   5.634   4.072  12.656  0.1126  0.0937 -0.0295
17171W        W32980  10.589  17.616  14.162 -0.1960 -0.3198  0.0152
17172W        W32981  10.170   0.779   1.084 -0.2466 -0.1953 -0.3711
17173W        W32982  12.826  10.105  13.894  0.0266  0.0685 -0.2977
17174W        W32983   7.312  10.653   5.905 -0.0424 -0.0231  0.2977
17175W        W32984   2.321   3.504   5.981  0.1079  0.1529  0.0371
17176W        W32985  10.481  11.774  10.417  0.0451  0.0897 -0.0889
17177W        W32986  15.391   6.767  15.837  0.1170  0.0782  0.0617
17178W        W32987  14.926   5.518  12.957  0.0650  0.1161  0.0372
17179W        W32988   8.049   0.031  11.297  0.1774  0.3206  0.2095
17180W        W32989   3.175  10.736  14.145  0.3530 -0.1031  0.1571
17181W        W32990  15.653  14.815  13.295  0.4870 -0.3274 -0.2621
17182W        W32991   3.703  11.200  15.036  0.2208 -0.0528  0.0906
17183W        W32992   3.030  13.794  11.742 -0.0343 -0.0035 -0.1194
17184W        W32993  16.139  14.700  13.410 -0.0951 -0.0309 -0.0846
17185W        W32994   0.973   7.597   4.166 -0.0286  0.2354 -0.0604
17186W        W32995   3.455  10.908  15.309  0.0267  0.0378  0.2405
17187W        W32996   6.590   2.315  13.251  0.1588 -0.1805  0.0647
17188W        W32997   2.915   1.234   3.978  0.0865 -0.0390  0.1669
17189W        W32998  14.685  14.672  12.399  0.2880 -0.0429 -0.1176
17190W        W32999   3.726  10.741  12.588  0.0150 -0.0922 -0.4096
17191W        W33000  11.248   0.605  11.623  0.0196 -0.2845  0.1565
17192W        W33001  11.217   8.069  15.491  0.2152 -0.1028 -0.0227
17193W        W33002   6.671   5.352   5.562 -0.1273  0.3036  0.0697
17194W        W33003  15.369  10.204   2.567 -0.1052 -0.1373  0.0167
17195W        W33004  10.228  14.925  10.207 -0.2278 -0.0692 -0.0965
17196W        W33005   4.862  12.109  15.757  0.1545  0.0142  0.0157
17197W        W33006   6.617  12.391  15.010 -0.1476  0.0004 -0.3664
17198W        W33007  18.348   1.804   0.806 -0.6234  0.0812 -0.1351
17199W        W33008  13.488  16.819  13.916 -0.1893  0.0053 -0.1387
17200W        W33009  13.175  17.403   1.201 -0.1541 -0.0510  0.1973
17201W        W33010   7.919   0.008  12.909 -0.1064  0.2710  0.2431
17202W        W33011  15.057   1.682  11.822  0.0730  0.1872  0.1759
17203W        W33012  15.293   5.237   0.391 -0.0815 -0.0749 -0.1523
17204W        W33013   3.802   2.866   0.203 -0.3540 -0.0661 -0.1200
17205W        W33014  12.163  12.573  12.502  0.1198 -0.5431 -0.0692
17206W        W33015  11.188   1.074   0.181  0.2510 -0.2071 -0.1524
17207W        W33016  16.567  12.591  15.566 -0.0040  0.1090 -0.0959
17208W        W33017  14.414  11.353  12.340 -0.0055 -0.0350 -0.2123
17209W        W33018   3.412   7.417   3.835 -0.3137 -0.3742 -0.1805
17210W        W33019   4.088  14.713  13.009  0.1093  0.2930 -0.1382
17211W        W33020   7.201  10.664   2.953 -0.0223  0.2342  0.3111
17212W        W33021   9.989   0.289  11.987 -0.1119  0.1463  0.0262
17213W        W33022   7.056   5.231   2.698  0.0314 -0.1814  0.4048
17214W        W33023   4.116  13.590   2.916 -0.0990  0.3693 -0.0661
17215W        W33024  14.048   3.411   3.457 -0.1525 -0.1790 -0.1071
17216W        W33025  12.042  16.291  11.387 -0.2788  0.3790 -0.0887
17217W        W33026   4.294   4.546   4.989  0.4297  0.1115  0.2532
17218W        W33027   4.951  16.756   2.213 -0.1284  0.2613  0.0677
17219W        W33028   1.382  10.446  13.086 -0.0356 -0.0566  0.1289
17220W        W33029  18.283  10.176   2.661  0.0296 -0.0315 -0.2511
17221W        W33030   7.799   6.565  11.741  0.0547 -0.0688 -0.0765
17222W        W33031   0.479   4.362  12.743 -0.3186  0.0515  0.0702
17223W        W33032  17.571  13.460  12.825  0.0308 -0.0964  0.0712
17224W        W33033  15.536  13.244   4.574 -0.1182 -0.0276 -0.0902
17225W        W33034  16.750  13.185   4.380 -0.0328  0.0873 -0.2348
17226W        W33035   1.908  16.280  15.686  0.2641  0.1131 -0.0513
17227W        W33036   4.099   4.793   4.486  0.0762 -0.0035  0.0692
17228W        W33037   1.885   6.391   0.571 -0.1545 -0.1360 -0.1941
17229W        W33038   5.377  12.622   4.742  0.2403 -0.1484 -0.1332
17230W        W33039   3.936   3.286   2.766 -0.0813  0.3849  0.1240
17231W        W33040   1.470   1.770   1.342 -0.2315  0.2309 -0.3620
17232W        W33041  17.733  11.953   4.195 -0.1604 -0.0649  0.0289
17233W        W33042   6.309   2.591   2.434 -0.3459 -0.0840  0.1120
17234W        W33043   3.518  11.356  11.214  0.0331  0.0948  0.1609
17235W        W33044   6.760   1.464   0.760 -0.0075 -0.5453 -0.1432
17236W        W33045   8.159   6.983   2.443 -0.1868 -0.1633  0.1055
17237W        W33046   4.685  12.004   2.055  0.0673 -0.0987  0.0103
17238W        W33047  10.711   2.573  15.763 -0.0748 -0.2884 -0.2965
17239W        W33048  18.097  14.674  12.783 -0.0382 -0.2536 -0.1853
17240W        W33049  14.139   9.686  13.825  0.0445  0.1463  0.2516
17241W        W33050   8.666   7.901   0.582 -0.0569  0.1978  0.0098
17242W        W33051   6.507   0.547   2.050  0.0849 -0.1989  0.0216
17243W        W33052   1.646  14.936  11.621 -0.2287  0.2821  0.0981
17244W        W33053  15.494   1.595   4.218  0.1882  0.1905  0.0605
17245W        W33054  11.256   9.899  12.773 -0.1773 -0.2293  0.1715
17246W        W33055  12.430  16.028  15.506  0.1880 -0.0719  0.0214
17247W        W33056  15.208   1.138   2.934 -0.3144 -0.1698  0.2267
17248W        W33057   2.996   9.909   4.641  0.2568 -0.0385  0.0640
17249W        W33058   3.287  16.467  14.676 -0.3795 -0.0309  0.0368
17250W        W33059  14.602   7.980   0.985  0.0342  0.1186  0.0725
17251W        W33060   7.168   2.885   2.231  0.3128 -0.0469  0.1881
17252W        W33061   1.591  10.396  10.943 -0.1433  0.0282  0.1723
17253W        W33062  11.359  16.233   2.782 -0.0452  0.0375 -0.0387
17254W        W33063   6.286  13.977  12.623  0.3813  0.0856  0.1773
17255W        W33064  10.295   4.111  14.767 -0.3918  0.0607 -0.3104
17256W        W33065  13.489  18.342   2.231 -0.1821 -0.1890  0.2650
17257W        W33066  17.821   9.850  15.535  0.1347  0.0666 -0.0861
17258W        W33067   1.510   7.506  12.096  0.0197  0.0031  0.1006
17259W        W33068  12.594   3.772   3.847 -0.1825  0.1933 -0.2154
17260W        W33069  13.949   0.361   0.354  0.3579 -0.3112  0.0334
17261W        W33070   8.484   0.988   3.852  0.3087  0.1724 -0.1057
17262W        W33071  15.843   4.544  15.579  0.1706 -0.0986 -0.1112
17263W        W33072   7.449   5.637   0.322 -0.0241  0.1816  0.0604
17264W        W33073   6.716   7.349  15.232 -0.1287 -0.1130 -0.0426
17265W        W33074   1.203   7.512   2.917 -0.0821  0.1515 -0.1917
17266W        W33075  15.849  12.549   0.319 -0.1954 -0.1160 -0.1591
17267W        W33076  17.528   6.895  13.393 -0.2961 -0.0342 -0.3675
17268W        W33077  17.876  16.039  12.744  0.1556 -0.4878 -0.0465
17269W        W33078  15.339  11.876   5.159 -0.0758 -0.1904 -0.0183
17270W        W33079   8.550   6.475   4.561  0.2171  0.1824  0.1731
17271W        W33080   6.821  10.927   0.170 -0.1380 -0.2597 -0.0945
17272W        W33081  12.439  15.602  11.342 -0.1092  0.0803 -0.0601
17273W        W33082  14.863   1.320   5.452 -0.1364  0.1944  0.1895
17274W        W33083   0.755  10.196   1.381 -0.0704  0.0599 -0.0142
17275W        W33084   9.590  10.652   0.674 -0.2238  0.1764  0.0764
17276W        W33085   9.293  13.224   4.117  0.1403 -0.0602  0.1357
17277W        W33086   4.382  12.512  11.679  0.1319  0.0400  0.3108
17278W        W33087  18.257   0.638  15.579 -0.2901 -0.2585 -0.0608
17279W        W33088  16.915  14.634  15.016 -0.0202 -0.2281  0.0399
17280W        W33089  12.806   2.477  15.825 -0.2692 -0.0512 -0.0116
17281W        W33090   6.012  10.696   3.236  0.2910  0.0136 -0.1405
17282W        W33091   3.056   4.315  11.810  0.1046 -0.1254 -0.1404
17283W        W33092   1.667   2.896   4.658 -0.0486 -0.1677 -0.0792
17284W        W33093   7.563   2.560  11.369 -0.1695 -0.0937  0.0762
17285W        W33094  14.018   2.769   4.874 -0.0874  0.1941  0.0518
17286W        W33095  17.760  17.622  11.270 -0.0147  0.4732 -0.2519
17287W        W33096   2.772  10.697   2.282  0.0275 -0.2774 -0.1967
17288W        W33097  10.974   9.118   2.759 -0.1574  0.0338  0.0434
17289W        W33098  17.837  15.279  14.619 -0.2275  0.2102  0.0994
17290W        W33099   1.739  15.216   4.185  0.2228  0.1291  0.4981
17291W        W33100   4.045   9.472   5.146  0.3354 -0.2619  0.3534
17292W        W33101  10.145  16.248   0.586 -0.1065  0.0876  0.1610
17293W        W33102   9.341  17.162   3.020 -0.0075 -0.1361 -0.0983
17294W        W33103   3.042   1.707  15.345  0.1248  0.0015  0.1068
17295W        W33104   6.764  11.093  10.850  0.2902  0.0002  0.2192
17296W        W33105   0.300  18.429  12.681  0.0925  0.0329  0.1288
17297W        W33106   5.903  12.590  15.204 -0.0978 -0.1857 -0.0188
17298W        W33107   9.260  16.454   3.506 -0.1107 -0.0464  0.1635
17299W        W33108  15.566   7.649  11.918 -0.1551 -0.1212  0.1335
17300W        W33109  16.602  14.609  12.511  0.0341 -0.0395  0.0675
17301W        W33110  16.389  16.704  12.962 -0.0498  0.2753  0.0853
17302W        W33111   9.702   9.222   2.284 -0.1759  0.1359 -0.4155
17303W        W33112  12.925   3.096   3.508 -0.0263  0.0939  0.0687
17304W        W33113   9.347  10.553  14.284 -0.3695  0.0512 -0.2606
17305W        W33114  16.232  10.199   0.374  0.2667  0.1921  0.0423
17306W        W33115  10.093   8.761   3.228  0.0013  0.2818  0.2795
17307W        W33116   3.459   4.552   3.611 -0.2301  0.1507 -0.2292
17308W        W33117  10.839   3.463  12.156  0.1843  0.0759 -0.2010
17309W        W33118  16.121   6.738   1.043 -0.0682  0.0713 -0.1076
17310W        W33119   0.863   1.749   3.854  0.0223  0.3463 -0.0756
17311W        W33120  10.533   6.811  13.085 -0.1293 -0.0719 -0.0856
17312W        W33121  15.207  17.537  13.882  0.1361 -0.0656 -0.2524
17313W        W33122   6.823   6.667  11.659  0.0397  0.0472  0.2826
17314W        W33123   8.017   9.019   0.795  0.2613  0.3394  0.1219
17315W        W33124   1.553   4.205   2.815  0.2403  0.0313  0.0905
17316W        W33125   7.551   4.193   2.761 -0.1111 -0.0345  0.1148
17317W        W33126   8.266   3.391   2.567 -0.1087  0.1376  0.3485
17318W        W33127   7.433  13.509   2.175 -0.1219 -0.1197  0.2117
17319W        W33128  14.381  16.809   5.798 -0.0792 -0.0068  0.0197
17320W        W33129   7.658  12.484   2.305 -0.0638 -0.2991 -0.1882
17321W        W33130   1.163  18.138  11.865 -0.2920 -0.2308  0.2846
17322W        W33131  11.107   5.667   0.516 -0.2432 -0.1802  0.0287
17323W        W33132  15.160  16.203  10.240 -0.0430 -0.5770 -0.1850
17324W        W33133  10.182  16.747   0.643 -0.0159  0.0069  0.1850
17325W        W33134   5.861  15.088   5.129 -0.1081 -0.2432  0.1281
17326W        W33135   8.835   5.043  11.902  0.1617  0.1537  0.0936
17327W        W33136   9.338   2.326  13.764 -0.1634  0.4802 -0.1595
17328W        W33137   8.882  18.334  12.793 -0.0082  0.1038 -0.2698
17329W        W33138  16.073   8.808  11.108  0.0251  0.0908 -0.1631
17330W        W33139   0.753  11.118  11.922  0.0164 -0.0854 -0.1090
17331W        W33140  14.860  15.391   2.023  0.1934 -0.3172  0.1112
17332W        W33141  12.891   3.592   2.972 -0.2367 -0.0434 -0.1450
17333W        W33142   4.864   4.247  12.522  0.0087  0.0166 -0.0839
17334W        W33143   4.784  15.537  10.214 -0.0132  0.2477  0.0595
17335W        W33144   1.120  11.732   2.785  0.2115 -0.0964  0.0251
17336W        W33145  15.967   1.767  15.524 -0.0793 -0.4253  0.1180
17337W        W33146   0.008   1.207  10.862 -0.2182 -0.1816  0.0243
17338W        W33147  13.258  15.093  11.609  0.2704 -0.3563  0.2513
17339W        W33148   4.061  16.720   4.977 -0.0074 -0.3504  0.2719
17340W        W33149  16.542   4.538  11.898  0.0434  0.0482 -0.0281
17341W        W33150  14.240   1.109  14.093  0.1009  0.2215 -0.1329
17342W        W33151   6.620  17.095   2.850 -0.0644  0.2609 -0.0491
17343W        W33152   2.545   0.105  13.514  0.2168 -0.0903  0.2395
17344W        W33153   7.946  12.056  14.582  0.0135 -0.0602 -0.0238
17345W        W33154   0.978   5.193   2.616  0.0978  0.2538  0.1064
17346W        W33155  11.934   0.423  15.386  0.0632  0.2621 -0.4436
17347W        W33156   0.845  13.439   0.614  0.0453  0.4454 -0.1367
17348W        W33157  16.362   8.227   1.512  0.2511  0.3518  0.2143
17349W        W33158  15.474  14.481  11.026 -0.1074  0.1330  0.2253
17350W        W33159   6.830  17.131  13.560  0.1906  0.2018 -0.1768
17351W        W33160   8.945   9.683   5.552  0.1083 -0.0260 -0.1858
17352W        W33161   9.754  10.368  12.029  0.0099 -0.2776  0.1288
17353W        W33162  16.110  10.351   2.108  0.1678  0.1949 -0.0488
17354W        W33163  18.338  13.424   5.957  0.1141  0.1889 -0.2523
17355W        W33164  12.585   1.264   4.800  0.3243 -0.2163 -0.0404
17356W        W33165   9.726   5.530  14.370  0.1064  0.0055  0.1890
17357W        W33166  13.867  10.299  12.711 -0.1610  0.0283 -0.0646
17358W        W33167   7.107  12.149   0.175 -0.2232 -0.2398  0.2220
17359W        W33168   1.101   3.955   4.582 -0.1693  0.1863 -0.0402
17360W        W33169   7.342  13.484  10.254 -0.1348  0.1517  0.0007
17361W        W33170   7.467   4.504  14.185 -0.2063 -0.0781 -0.0172
17362W        W33171   2.792   2.737   4.007 -0.2943 -0.0595 -0.1687
17363W        W33172   2.591   7.901   2.155  0.3245 -0.0278 -0.1220
17364W        W33173   8.410  14.475  11.979  0.0874  0.0752 -0.0580
17365W        W33174  17.413  12.230  13.145 -0.0500  0.0049  0.4623
17366W        W33175  18.107   0.968   2.265 -0.1570 -0.0542 -0.0507
17367W        W33176  14.710   4.179  12.874  0.1218 -0.0982 -0.0782
17368W        W33177  17.906   3.889  14.476 -0.2789 -0.4037  0.1533
17369W        W33178   1.555   4.757   4.622  0.0865 -0.1767  0.0704
17370W        W33179  18.257   6.920   2.311  0.2077  0.2592  0.1923
17371W        W33180   9.388   5.148   0.230 -0.1761 -0.0555  0.0475
17372W        W33181  17.924  17.039   0.957 -0.2519 -0.1272 -0.0627
17373W        W33182   2.630  10.052  13.577 -0.0391 -0.0558  0.0488
17374W        W33183  10.187   2.707  12.235  0.0049  0.1227 -0.0045
17375W        W33184  12.063   7.234  10.970  0.0329  0.1292 -0.0501
17376W        W33185   0.956  18.433  13.219 -0.1716 -0.1343  0.0839
17377W        W33186  15.977  18.024  14.435 -0.0679  0.2553 -0.4077
17378W        W33187   1.988   3.618  14.518 -0.0349 -0.0173  0.1293
17379W        W33188  14.017  17.729   0.427  0.0338 -0.1287  0.0925
17380W        W33189  11.794   5.523  12.012 -0.0788  0.0272  0.0258
17381W        W33190   5.575   6.187  12.393  0.0543  0.2107  0.1140
17382W        W33191  14.530  13.649  12.374 -0.1527 -0.0614  0.0311
17383W        W33192   7.102   8.882  10.003  0.1379 -0.1134 -0.0213
17384W        W33193  16.755   6.930  14.378  0.0993 -0.3340 -0.0776
17385W        W33194   0.053  10.502   2.384 -0.0561  0.2301 -0.0919
17386W        W33195   6.550  12.828  11.742  0.0446  0.0186  0.1470
17387W        W33196  18.029  10.116   5.030  0.2570  0.0027  0.0252
17388W        W33197  11.140  13.779  13.196 -0.0688 -0.1427 -0.3500
17389W        W33198   0.106   8.934  12.095 -0.0582  0.0959  0.1600
17390W        W33199  14.896   0.662  13.199 -0.0280 -0.1831  0.0449
17391W        W33200   1.824   0.708  14.538  0.0061 -0.1240  0.0419
17392W        W33201   0.517  15.467  14.480  0.3769  0.2108  0.0728
17393W        W33202  11.391  16.455  12.142 -0.0420  0.2496 -0.0010
17394W        W33203  15.318  15.006  14.138 -0.1506 -0.3615 -0.2329
17395W        W33204   1.963  10.704  13.292 -0.3420  0.1590  0.2395
17396W        W33205  16.093   4.428   4.885 -0.0450 -0.4457  0.0853
17397W        W33206   2.937   1.809   2.512 -0.1581  0.0534 -0.2886
17398W        W33207   5.117   4.876   1.254  0.1382  0.2894 -0.3214
17399W        W33208   1.515   0.918   1.126  0.0415  0.0453  0.2271
17400W        W33209   4.218   3.820  13.862  0.2820 -0.0411  0.1166
17401W        W33210  13.216   4.727   1.257  0.1049  0.1204  0.0989
17402W        W33211   0.158   7.049   0.800  0.4760  0.2701 -0.0021
17403W        W33212   9.944  13.885  12.761 -0.0737  0.0928 -0.0915
17404W        W33213  17.433  12.638  11.072 -0.2122  0.2444 -0.0172
17405W        W33214  11.967  11.682  14.956  0.0420  0.0290  0.0909
17406W        W33215  15.475  17.140   0.967 -0.0994  0.1417  0.1400
17407W        W33216   3.791   6.312  12.549  0.2066  0.0331  0.0129
17408W        W33217   1.367   3.699  12.011 -0.1567  0.1352 -0.0789
17409W        W33218  16.887  17.646  15.677  0.0522 -0.1143 -0.2159
17410W        W33219   0.919  11.032  13.730 -0.0689  0.3024 -0.1290
17411W        W33220   1.490  16.717  12.113  0.0952 -0.0262 -0.2281
17412W        W33221   4.103  14.197  11.433 -0.1121  0.0670  0.1630
17413W        W33222   2.627  17.755   4.833 -0.2533 -0.1393  0.5095
17414W        W33223   8.425  16.115   0.546 -0.0586 -0.1042 -0.3227
17415W        W33224   3.572   1.417   0.493  0.0974  0.1123  0.0353
17416W        W33225  17.972  18.050   5.538 -0.1226  0.2394  0.1950
17417W        W33226  18.086   8.404  14.887  0.1758  0.3082  0.0046
17418W        W33227   8.496  17.708   0.453 -0.1681 -0.0921  0.1143
17419W        W33228   3.128  14.317  12.945 -0.0701  0.1579  0.2382
17420W        W33229  16.242  17.165  13.047  0.0387 -0.0663 -0.0517
17421W        W33230  10.655  12.330   3.214 -0.0574  0.2208 -0.2033
17422W        W33231   4.150  10.853   2.567 -0.1527 -0.1117 -0.3106
17423W        W33232   3.408  17.888   3.915  0.0142 -0.0388  0.1261
17424W        W33233   2.768   1.697  11.559  0.1420 -0.0196 -0.3174
17425W        W33234  12.848  14.394   2.768  0.3417  0.2970  0.0445
17426W        W33235  10.262   2.034  14.096 -0.2647 -0.0728 -0.0203
17427W        W33236  15.794   8.559  11.396  0.0288  0.1384 -0.1755
17428W        W33237  12.587  16.456  14.275  0.0701 -0.0780  0.4731
17429W        W33238   3.700   6.662   2.105  0.2588 -0.2994 -0.0449
17430W        W33239  15.285   6.763   4.568 -0.0686  0.0384 -0.0153
17431W        W33240   8.063  14.425  15.200  0.0863 -0.0764  0.2031
17432W        W33241   8.529   3.479  10.222  0.1254  0.0664 -0.3970
17433W        W33242  12.320  11.491   4.834  0.1705  0.0006  0.0568
17434W        W33243   6.374   3.421   0.942  0.4345  0.0520  0.2058
17435W        W33244   0.757   7.560  14.916  0.0662  0.0383 -0.0334
17436W        W33245   2.314  17.788  15.647  0.0952  0.0743  0.1039
17437W        W33246   5.351  11.132  14.203  0.0278  0.0444  0.1949
17438W        W33247  11.075   4.902   1.709 -0.0319 -0.0117  0.2918
17439W        W33248  17.514   6.095   1.006  0.2548 -0.3829 -0.1179
17440W        W33249   4.614   3.074  11.861 -0.2724 -0.1066 -0.4149
17441W        W33250  16.818   6.322  11.348  0.4804 -0.1099  0.0674
17442W        W33251   2.691  14.931  15.295  0.0416  0.1436 -0.0235
17443W        W33252   2.303   6.284  12.421 -0.1439 -0.0976 -0.0763
17444W        W33253   5.329   8.819   4.800  0.2097 -0.2488  0.2407
17445W        W33254  16.797  13.860   0.416 -0.1907  0.0417 -0.0989
17446W        W33255  11.625  13.898   0.361  0.0406  0.2698 -0.1957
17447W        W33256   6.363  15.032  14.588  0.1623  0.0306 -0.1235
17448W        W33257   8.197   7.452   0.043  0.3047 -0.0327  0.0153
17449W        W33258  16.841   9.561  14.636 -0.1491 -0.0075 -0.1599
17450W        W33259  17.618   7.559  12.684  0.0301  0.1873  0.1602
17451W        W33260   2.116  10.025   4.192 -0.0648 -0.0608  0.0894
17452W        W33261   8.031   1.609  13.220 -0.1274  0.0091  0.1298
17453W        W33262   9.152   4.452  12.916 -0.1060 -0.1984  0.0884
17454W        W33263  14.533  12.052  14.088  0.3032  0.3134 -0.0969
17455W        W33264  16.299   8.256  13.852  0.1369 -0.2107  0.3500
17456W        W33265  17.094   6.839  13.797 -0.0183  0.0104 -0.1590
17457W        W33266   9.581   8.832  13.249  0.2513 -0.1552 -0.1634
17458W        W33267  14.338   3.301  10.751 -0.0979 -0.0717  0.0645
17459W        W33268  16.439  12.979   1.028  0.0994  0.0244 -0.0279
17460W        W33269  17.500  17.531   1.886  0.1682  0.0497  0.0997
17461W        W33270   7.135  11.715   4.476  0.2649 -0.3270  0.0363
17462W        W33271   6.047  14.576   3.255  0.0051  0.1994 -0.0849
17463W        W33272  13.664   7.054   5.180 -0.1861  0.1454 -0.0810
17464W        W33273   2.992   6.448   5.065  0.0584 -0.1572 -0.1350
17465W        W33274  18.227  13.176  14.938 -0.1432 -0.0178  0.3013
17466W        W33275   5.711  11.600   2.885  0.0893 -0.2094  0.1342
17467W        W33276   0.717  11.244  13.179 -0.2768 -0.0365 -0.0395
17468W        W33277  15.339  11.660  11.727 -0.0710  0.1609 -0.1269
17469W        W33278  15.878  14.963   3.343 -0.1924  0.0232 -0.1909
17470W        W33279   0.872   8.517   5.588  0.0982  0.4733  0.1029
17471W        W33280  17.959  11.583  14.010 -0.2642  0.0528 -0.1111
17472W        W33281  12.013   0.376   0.995 -0.0397  0.0445  0.1840
17473W        W33282   9.103   0.014   2.557  0.0630 -0.1990  0.1505
17474W        W33283  18.067  17.685  12.819 -0.0494 -0.1221 -0.1064
17475W        W33284  18.369   0.840   2.839  0.2960 -0.1712 -0.2157
17476W        W33285  12.532   9.485   5.173 -0.2828  0.0092 -0.0367
17477W        W33286   2.143   1.691   4.516  0.1733 -0.1373  0.2289
17478W        W33287  11.619  11.872  11.828  0.3019 -0.2700 -0.1826
17479W        W33288   9.316  17.301  13.824  0.0693  0.0191 -0.1134
17480W        W33289   5.443   7.927   6.218 -0.1116  0.2759  0.0066
17481W        W33290   1.443   8.344  15.000 -0.1639 -0.2713  0.0275
17482W        W33291  13.816  17.728   1.578 -0.0971 -0.1251  0.0956
17483W        W33292  17.399  13.512   5.697  0.0915  0.1481 -0.1433
17484W        W33293  13.294  10.751  12.212 -0.2879 -0.0270  0.1491
17485W        W33294  18.250   0.237   5.026  0.0550 -0.0009 -0.0856
17486W        W33295  16.857   4.851   4.255  0.1429  0.1206 -0.1308
17487W        W33296  14.224  11.760  14.445  0.0261  0.0283  0.2856
17488W        W33297   0.098   8.699   1.955  0.3034  0.4439  0.0127
17489W        W33298   6.942  10.802   1.245  0.1502  0.5131  0.2077
17490W        W33299   3.085  13.686  12.439  0.1930 -0.1306  0.2107
17491W        W33300  10.528   1.378   2.353  0.1911  0.1606  0.1953
17492W        W33301   1.219  16.185  12.952  0.0730  0.2467  0.1143
17493W        W33302   3.110   3.788   9.619 -0.1628  0.0834 -0.2377
17494W        W33303  14.298   0.455   2.117 -0.1032 -0.2957  0.0981
17495W        W33304   1.171   5.668   3.144  0.1358 -0.1077  0.3713
17496W        W33305   2.329  16.370   2.209 -0.2952  0.1543 -0.2162
17497W        W33306   2.888  13.412  12.019  0.1336 -0.0143 -0.2950
17498W        W33307  15.496   4.885  10.222 -0.0492  0.1869  0.2969
17499W        W33308   8.384   9.271   1.021 -0.1158  0.2186 -0.0267
17500W        W33309  16.593  10.502   1.776 -0.1781  0.2660 -0.0481
17501W        W33310  10.209   6.752  12.658 -0.1669  0.1144 -0.1349
17502W        W33311   8.193   7.291   0.780  0.1775  0.1754 -0.1301
17503W        W33312   8.386   6.978   3.868 -0.3012 -0.2856  0.1504
17504W        W33313   4.315  14.850   1.068 -0.2140 -0.2914 -0.1234
17505W        W33314   2.945   8.729  11.973 -0.2622  0.0627 -0.0532
17506W        W33315  14.388   8.599   2.294 -0.1484 -0.0295 -0.3094
17507W        W33316  16.591   8.964   5.585 -0.4246 -0.0451 -0.3213
17508W        W33317   0.796  12.398   0.768  0.3694 -0.1574  0.3282
17509W        W33318  18.018   7.466   4.356  0.1535 -0.0463  0.0980
17510W        W33319   1.519   3.709   0.895 -0.5193 -0.0396  0.1180
17511W        W33320  13.709   1.159   2.132  0.0590  0.1030  0.0988
17512W        W33321  14.817   1.622   2.992  0.1690  0.1883 -0.0595
17513W        W33322   0.212   0.676   0.732 -0.0052  0.0240  0.0190
17514W        W33323  12.766   6.587   3.937 -0.2986  0.0622  0.2016
17515W        W33324   9.114   1.166   4.511  0.0291  0.1171  0.0529
17516W        W33325   9.130   4.861  13.813  0.0237 -0.3295 -0.0985
17517W        W33326   6.424  12.088   0.808 -0.1214 -0.0906 -0.0907
17518W        W33327   1.738  13.455  14.158 -0.2168  0.0302  0.1470
17519W        W33328  18.340  10.903  15.673 -0.2281 -0.0398 -0.1918
17520W        W33329  14.511  14.511   5.368  0.3628 -0.1325  0.1083
17521W        W33330  17.965   9.968  14.608  0.3189 -0.1085  0.0216
17522W        W33331  15.636   2.211   2.720 -0.1132  0.1764 -0.0026
17523W        W33332   1.487  17.869  14.572 -0.0776  0.3905 -0.3771
17524W        W33333  12.394  14.420   4.403 -0.0583  0.0127  0.0209
17525W        W33334  17.166   7.129  11.742 -0.0093  0.0435  0.1638
17526W        W33335  12.338   3.273  14.360  0.0619 -0.1841 -0.0907
17527W        W33336  16.674  14.568   1.161  0.0736  0.0696  0.3253
17528W        W33337   9.070  14.706   3.306 -0.1695  0.0787 -0.2317
17529W        W33338   2.552   6.712  12.642 -0.0291  0.0429 -0.2326
17530W        W33339  14.283   1.043   2.609  0.1165  0.2944 -0.0033
17531W        W33340   3.494   6.511   3.676  0.1971 -0.1615  0.1353
17532W        W33341  16.233   7.358  12.597  0.2228 -0.2016  0.1766
17533W        W33342   4.613  17.101   1.445 -0.1096 -0.0153  0.1226
17534W        W33343   3.332   9.220  13.238  0.1009  0.0931 -0.0639
17535W        W33344  12.104  17.199   4.894 -0.0241 -0.0358  0.2781
17536W        W33345  11.462   1.148   0.632  0.0715  0.1551 -0.1935
17537W        W33346   0.195  15.590   2.777  0.1031 -0.3727 -0.2409
17538W        W33347   2.557   1.558   4.181  0.0184 -0.0082  0.0043
17539W        W33348  10.489   7.469   3.760  0.0213 -0.0715  0.2500
17540W        W33349  11.162  14.140   1.262  0.2567  0.0626 -0.1915
17541W        W33350   4.510  13.429   3.252  0.2123  0.1730  0.1776
17542W        W33351   1.843   3.427   4.964  0.1337 -0.3301 -0.1427
17543W        W33352  13.528  17.045   1.785  0.2306 -0.2343  0.0378
17544W        W33353  13.614   9.435  10.138  0.2071  0.0903  0.3133
17545W        W33354  18.197   4.151   4.733  0.0054  0.0759  0.4364
17546W        W33355  15.880  14.114   1.162 -0.2515  0.1825  0.0632
17547W        W33356   1.722   1.389   5.294 -0.4773  0.1473  0.0465
17548W        W33357   9.368   4.896  12.966  0.1478  0.2567 -0.0049
17549W        W33358   7.526  17.536   2.878  0.1055  0.2246  0.0508
17550W        W33359  13.085  11.228  14.716 -0.0019 -0.2847  0.0706
17551W        W33360  10.326   2.536   4.059  0.1637 -0.0498  0.4206
17552W        W33361  11.344  10.374  12.904 -0.1063 -0.0844  0.1925
17553W        W33362  11.627  10.031  14.276 -0.0304  0.3303  0.1585
17554W        W33363   5.270  15.865  13.165 -0.1625 -0.3560 -0.0604
17555W        W33364   7.643  15.400   3.992  0.0546  0.4391  0.1978
17556W        W33365   4.564   3.626   5.132 -0.0048  0.2561  0.0734
17557W        W33366   6.183   2.062  11.633  0.2608  0.0490 -0.3403
17558W        W33367   2.677  14.767   0.613  0.1347 -0.0340 -0.1886
17559W        W33368  15.889   3.923  12.391  0.3140  0.0718 -0.2194
17560W        W33369  17.259   6.439  12.123 -0.3230 -0.0227 -0.1509
17561W        W33370   9.447   0.321   4.683 -0.1790 -0.2669 -0.0412
17562W        W33371   4.835  11.859   0.392 -0.0750 -0.0104 -0.0155
17563W        W33372   2.878  10.946   5.973  0.0809 -0.1332  0.2314
17564W        W33373   0.327   5.506  14.040  0.0802 -0.0034  0.2040
17565W        W33374   7.954   7.308   1.501  0.1859 -0.0548  0.0314
17566W        W33375   3.597   5.219  13.463  0.0355 -0.2059  0.0116
17567W        W33376   2.340   3.448  14.096 -0.0795  0.0083  0.1841
17568W        W33377   2.497   5.324   4.583 -0.1141  0.3290  0.1673
17569W        W33378   8.434  18.215   4.138  0.2674  0.2342  0.0462
17570W        W33379  17.220  14.110  11.921 -0.1382 -0.1014 -0.1895
17571W        W33380   7.609   2.323  14.015 -0.3461  0.1579 -0.6237
17572W        W33381  13.653   3.160   4.133  0.0181  0.1886  0.0051
17573W        W33382  10.926   3.421  11.667  0.0794  0.0167  0.1308
17574W        W33383  17.998  17.609   0.172  0.0075  0.2554  0.2368
17575W        W33384  17.307  10.803  11.210  0.0824  0.1212  0.0513
17576W        W33385   9.458   6.246  13.239  0.1330  0.3954 -0.0334
17577W        W33386   2.203   1.557   5.074 -0.2632 -0.3335  0.0579
17578W        W33387   1.322   3.037   1.442  0.3521 -0.0435  0.0618
17579W        W33388  11.021   8.757   3.601  0.1997 -0.0611 -0.0021
17580W        W33389   7.482  10.558   4.668 -0.2149 -0.1156  0.0395
17581W        W33390   3.777   6.279   2.406 -0.0650 -0.1521  0.0411
17582W        W33391   4.008   9.001  14.001 -0.0609  0.1595 -0.2253
17583W        W33392   5.712   0.940   3.427  0.3471 -0.0200 -0.1778
17584W        W33393  12.324  15.358   1.975  0.1762  0.1415  0.0732
17585W        W33394   0.482   6.871  11.365 -0.2192 -0.1782  0.1958
17586W        W33395   5.779  17.696  12.361  0.0616  0.0298 -0.2315
17587W        W33396   9.770  14.525   4.615  0.2617  0.0219  0.2945
17588W        W33397  14.961   4.257  14.708  0.0952 -0.0408 -0.3186
17589W        W33398  11.660   2.575   1.780 -0.0411 -0.2915  0.0524
17590W        W33399  14.894  10.378   0.813  0.1334 -0.1342 -0.1289
17591W        W33400   6.541  17.099  14.730 -0.0478 -0.0663 -0.0848
17592W        W33401   2.484  17.808   3.625  0.0457 -0.2152 -0.3983
17593W        W33402  14.707   5.813   2.845  0.1433 -0.2286 -0.1131
17594W        W33403   0.871   3.073  14.089 -0.0679 -0.1714  0.0047
17595W        W33404   2.076   3.811   1.009 -0.0083  0.2560  0.2285
17596W        W33405   2.748   9.349  14.454  0.1062  0.1742 -0.2618
17597W        W33406   6.865  11.095   1.635 -0.2073 -0.1479 -0.1832
17598W        W33407  13.326   6.787   3.864  0.2514 -0.0384 -0.0813
17599W        W33408   2.631  12.582   0.339 -0.3231  0.1696  0.1919
17600W        W33409  16.774   3.835  14.954  0.0530  0.2391  0.1861
17601W        W33410   7.923  18.186   4.131  0.1018  0.0143  0.0140
17602W        W33411  17.069   3.421   4.541 -0.1260  0.0180  0.1333
17603W        W33412  12.495  13.246  11.455  0.2585 -0.0132  0.1522
17604W        W33413  15.278   5.619  15.471  0.1747  0.0577  0.1981
17605W        W33414   2.445   6.047   2.760  0.0650  0.0394  0.2654
17606W        W33415   0.502  13.624  13.644  0.1978 -0.0075 -0.0639
17607W        W33416   0.012   4.882  10.678  0.3367 -0.4721 -0.2659
17608W        W33417  14.509   8.483  10.634 -0.2188  0.0468 -0.1025
17609W        W33418   1.910   3.225  12.595  0.0381  0.1692  0.3442
17610W        W33419   7.271   3.011  11.415 -0.0883  0.0382  0.2096
17611W        W33420   2.975   4.536   1.801  0.0953 -0.4899 -0.0081
17612W        W33421  10.683   3.894   1.681  0.1084  0.0767 -0.1652
17613W        W33422   7.562  10.129   0.311 -0.2168  0.0513  0.3772
17614W        W33423   2.889   8.267  13.433  0.1149 -0.3121  0.2274
17615W        W33424   4.190   0.836  13.096 -0.2498 -0.0214 -0.0655
17616W        W33425  13.067  15.856   2.421  0.1807 -0.1512  0.0806
17617W        W33426   0.705   7.258  11.005  0.0042  0.1763 -0.0603
17618W        W33427  10.791   6.193   4.111 -0.0923 -0.1656  0.0484
17619W        W33428  17.686   1.252  11.399  0.2949 -0.1010  0.0058
17620W        W33429   9.162  10.667   5.397  0.3241 -0.1445  0.4548
17621W        W33430   4.731  10.380   6.044 -0.0602 -0.3513  0.1589
17622W        W33431   2.093  14.727  11.428  0.0078 -0.0641  0.0928
17623W        W33432  18.093  12.864   0.104  0.0810  0.4435  0.2647
17624W        W33433  17.465   1.614   1.071  0.4794  0.0711 -0.0649
17625W        W33434  16.813   8.080   4.447  0.0601 -0.0150  0.0172
17626W        W33435   5.893   5.848   4.481  0.2854 -0.1336  0.1394
17627W        W33436  17.072   1.655   2.388 -0.0297  0.1634  0.0077
17628W        W33437  11.522   7.543   4.765 -0.2501 -0.1692 -0.0601
17629W        W33438   6.406  17.820   3.639  0.1659  0.0714 -0.1876
17630W        W33439   1.675   4.046   3.759 -0.0078 -0.0925 -0.3003
17631W        W33440  10.564  16.917   3.479 -0.3166 -0.2041 -0.0909
17632W        W33441  14.190   7.707  11.712  0.3061 -0.3560  0.0742
17633W        W33442   6.485   4.639   0.244 -0.2407 -0.1897 -0.3423
17634W        W33443  12.815  10.846   2.526  0.0147  0.2033 -0.1634
17635W        W33444   4.935   2.435   2.286  0.0789  0.1634 -0.0794
17636W        W33445   5.702  14.423   5.092  0.0180 -0.0997 -0.2360
17637W        W33446  13.833  11.745   1.237  0.1336 -0.0526 -0.1976
17638W        W33447  16.758   8.542  14.090  0.3847  0.1774 -0.0603
17639W        W33448   1.469   9.503  15.535  0.1294  0.0029 -0.0436
17640W        W33449  16.838   5.941   4.077 -0.1767  0.0493 -0.1402
17641W        W33450  16.206  12.250  12.490  0.0303  0.3135  0.1600
17642W        W33451  15.714   7.082  11.925 -0.1890  0.1310 -0.0622
17643W        W33452   5.804   2.315   1.026 -0.0036 -0.1014 -0.2099
17644W        W33453  13.533   8.490  12.419  0.0700  0.1479 -0.1001
17645W        W33454  13.614   4.872   0.475 -0.0224  0.3662 -0.0567
17646W        W33455  12.348   0.305  14.052 -0.1306  0.1006 -0.0326
17647W        W33456   7.573  17.897  13.289 -0.0026 -0.0933  0.1571
17648W        W33457   4.102  14.488   2.734 -0.2347  0.2309 -0.1328
17649W        W33458   1.945   4.926  13.330 -0.0150 -0.1657 -0.2407
17650W        W33459  13.254   3.690  11.737 -0.3674 -0.0201  0.1636
17651W        W33460   7.499   8.805   3.531 -0.0112 -0.0231 -0.0158
17652W        W33461   5.250  18.122   0.342  0.1384  0.2362  0.4100
17653W        W33462   7.157  15.187  11.425 -0.2831  0.1403  0.0215
17654W        W33463   8.351  16.046  11.940  0.2259  0.0450  0.2225
17655W        W33464  11.279  17.459   4.550  0.3033 -0.1113  0.3258
17656W        W33465   9.884   2.147  14.655  0.2039  0.2951  0.2832
17657W        W33466   1.683  15.492   4.599 -0.2909 -0.1167  0.0331
17658W        W33467  12.519  16.652   1.361  0.2302  0.2250  0.2891
17659W        W33468  17.789   4.054  13.120  0.1838 -0.1100  0.2000
17660W        W33469  16.748  10.725   5.457  0.1812  0.1105  0.0727
17661W        W33470   4.781   8.316  12.185 -0.0947 -0.0650 -0.3750
17662W        W33471   7.068  13.681   4.758 -0.1345 -0.4186 -0.2668
17663W        W33472   8.709   3.199  11.762 -0.0028  0.1698 -0.0488
17664W        W33473   9.295   2.000   9.993 -0.1908 -0.2422  0.2793
17665W        W33474   2.450  13.731  13.418  0.3198 -0.0233 -0.0104
17666W        W33475   5.678  10.350  15.194 -0.3227  0.0060  0.1687
17667W        W33476   1.476   7.937   5.074 -0.2000  0.1214  0.0855
17668W        W33477  18.224  14.276   4.989  0.0448 -0.1501 -0.2133
17669W        W33478   0.847   9.897   5.420  0.2561  0.1567 -0.4044
17670W        W33479   3.692   8.528  12.571 -0.1058 -0.1557  0.1512
17671W        W33480  10.538  14.996   1.684 -0.1489  0.0344  0.0455
17672W        W33481   9.243  17.497   5.541 -0.1263 -0.1063 -0.3007
17673W        W33482  16.417   6.664   2.371  0.0277 -0.1502  0.0185
17674W        W33483   8.048   3.243   3.944 -0.2866 -0.1137  0.2155
17675W        W33484  11.354   5.340   0.055 -0.0970  0.1217 -0.2658
17676W        W33485   5.105  17.276   2.893  0.1621 -0.2080 -0.0457
17677W        W33486   7.988   6.651   2.907  0.3043  0.1177 -0.1412
17678W        W33487  13.869   5.367  15.194 -0.5468  0.0662 -0.0724
17679W        W33488   9.339  11.668   2.656  0.1433 -0.0898 -0.2377
17680W        W33489   2.274   8.114  12.089 -0.0904  0.0627  0.1451
17681W        W33490   2.628   3.109   2.529 -0.0579  0.0916 -0.3352
17682W        W33491   1.010  12.968  11.660 -0.2403  0.1485  0.0365
17683W        W33492  11.023  11.087   0.414  0.2333  0.3142 -0.3099
17684W        W33493  10.442  16.663  14.269  0.0462 -0.2687 -0.1895
17685W        W33494   1.540   6.658  14.890 -0.2297 -0.0265  0.1465
17686W        W33495   2.615  16.066  13.000  0.0416  0.0296 -0.1247
17687W        W33496   8.617  16.641  14.684  0.0060  0.0399  0.1206
17688W        W33497   9.017   2.227   2.405 -0.0095  0.1225 -0.0302
17689W        W33498  16.481   5.926  14.441 -0.0758 -0.1250 -0.2751
17690W        W33499  18.368  11.295  11.887  0.2763 -0.1490 -0.0404
17691W        W33500   2.693   7.341   4.549  0.2354  0.2053 -0.0330
17692W        W33501  11.216  10.345   4.189 -0.2306  0.2871 -0.2407
17693W        W33502   4.505  13.821  11.472  0.0132 -0.1205  0.1348
17694W        W33503  11.114  10.305   2.689 -0.0826  0.0803 -0.0307
17695W        W33504   6.848   5.601  10.786 -0.1709  0.0193 -0.0299
17696W        W33505  13.980  16.458  14.983  0.0151  0.2504  0.1872
17697W        W33506  15.046   5.895   2.249 -0.1511 -0.1148 -0.0618
17698W        W33507  10.890   3.283   3.398  0.0918  0.0669 -0.1353
17699W        W33508   3.459   1.027  14.703 -0.3660  0.0516  0.1925
17700W        W33509   8.049  18.057  13.171  0.0368 -0.0651  0.2152
17701W        W33510   2.334   3.504   4.922  0.1881 -0.0779  0.1661
17702W        W33511  13.732  17.096  12.687 -0.0893  0.0589 -0.4818
17703W        W33512  12.856  11.418   2.700  0.3205  0.1450  0.0677
17704W        W33513   1.768   4.447  13.501 -0.1016 -0.2545  0.0914
17705W        W33514   3.376   0.617   4.963 -0.0496 -0.3350  0.2446
17706W        W33515   9.940  11.596  11.191  0.1528  0.1029  0.0166
17707W        W33516   5.415  16.624  15.487  0.3685  0.1693 -0.0339
17708W        W33517  11.135   5.501   3.075  0.0965 -0.2535  0.2163
17709W        W33518  13.141  13.914   3.384 -0.1203 -0.1087  0.0214
17710W        W33519  12.092   6.650   3.095  0.0121  0.0113  0.0150
17711W        W33520   4.049   7.374  13.121  0.1026  0.1202  0.2255
17712W        W33521  17.665   5.035   1.197 -0.0539 -0.0430 -0.2305
17713W        W33522   0.104   6.630   2.526  0.3471 -0.2077 -0.1715
17714W        W33523   8.603  18.276   2.563 -0.0516 -0.1203 -0.2141
17715W        W33524   9.312  15.115   0.039 -0.0590  0.1874  0.0338
17716W        W33525  10.518  16.881   4.805 -0.0290 -0.0547 -0.0191
17717W        W33526   3.574   9.981   3.977 -0.2485 -0.1289 -0.1652
17718W        W33527   7.462  15.065  14.443 -0.0019  0.2920 -0.1077
17719W        W33528  17.589   5.885   2.840 -0.1263 -0.2402 -0.0442
17720W        W33529   3.581   0.466  11.601 -0.2505  0.1106  0.0312
17721W        W33530   7.946  14.140   3.043 -0.0406  0.0526 -0.0781
17722W        W33531   8.192   4.574   1.026 -0.3165 -0.0867 -0.0576
17723W        W33532  15.828   1.736  12.228  0.3170 -0.1745  0.0605
17724W        W33533   5.094   9.526   1.569 -0.0151  0.1530  0.2548
17725W        W33534  15.375   1.415   5.181  0.1142  0.2293 -0.1661
17726W        W33535  10.169   6.127  13.778 -0.1468 -0.3400 -0.1019
17727W        W33536  13.360   3.337   5.547 -0.3223 -0.2568  0.3454
17728W        W33537  10.663  10.912  11.779 -0.3691  0.0028  0.0036
17729W        W33538  12.956   6.161  15.663 -0.1711  0.0670  0.1026
17730W        W33539   3.952   0.471  14.225 -0.3715 -0.3348  0.0988
17731W        W33540  17.303   0.370   3.582 -0.0975 -0.0180 -0.0768
17732W        W33541  14.928   1.539  15.690 -0.0320  0.2001  0.0860
17733W        W33542   1.587  10.688   0.305  0.0191 -0.1074  0.3196
17734W        W33543   9.677   9.004  15.499 -0.0615 -0.0570  0.1124
17735W        W33544   9.719   7.587  15.831 -0.3040  0.0020 -0.0423
17736W        W33545   8.808   5.738  13.590 -0.0491  0.0578  0.2131
17737W        W33546   7.350   8.421  12.726 -0.1748 -0.2386 -0.0370
17738W        W33547   0.069  12.312  10.225  0.0311  0.0917  0.0960
17739W        W33548  15.025  11.411  13.606  0.0603  0.0694  0.4234
17740W        W33549  14.169   9.375  14.743  0.1179 -0.1628  0.1113
17741W        W33550  13.515  13.815   3.003 -0.1301  0.1204 -0.2372
17742W        W33551   4.653   1.298   2.807  0.0647  0.2710 -0.0670
17743W        W33552  10.620  13.503  10.590  0.1841 -0.0559  0.0056
17744W        W33553  15.081   4.494   3.328 -0.0625  0.0239  0.0353
17745W        W33554  11.612  18.069  14.188 -0.3103  0.0392  0.2295
17746W        W33555  15.016  10.708  12.510  0.0243 -0.0769  0.0445
17747W        W33556  14.774  17.168  13.202  0.0101 -0.3470  0.0266
17748W        W33557   4.680   3.506   3.237  0.0029  0.1156 -0.2317
17749W        W33558   5.899   0.730  11.877  0.2893 -0.2889  0.2266
17750W        W33559   0.886   6.765  15.603  0.1128 -0.5766 -0.4220
17751W        W33560   0.317   4.529   5.447 -0.0575 -0.0127 -0.1721
17752W        W33561   1.450   8.725   3.519  0.0906 -0.0334  0.4536
17753W        W33562  12.151  16.636  13.339  0.1437 -0.0863  0.1538
17754W        W33563  17.093   4.868  13.507 -0.1844 -0.1799 -0.1563
17755W        W33564   2.987   0.186   2.097 -0.0567 -0.0203 -0.0887
17756W        W33565   0.953   0.991   1.114 -0.1160  0.1268 -0.1855
17757W        W33566  10.425   3.152   4.619  0.2277  0.1477  0.2655
17758W        W33567   9.084  12.453  12.115 -0.5743 -0.1906 -0.4564
17759W        W33568   9.512  10.156   1.709  0.0500 -0.4232  0.1073
17760W        W33569   5.348  14.651   4.377  0.1038  0.1166  0.4017
17761W        W33570   4.690   2.798  11.412  0.0700 -0.1936 -0.2328
17762W        W33571  16.846   6.449   1.834  0.1698  0.0239 -0.1422
17763W        W33572   9.559  17.179   4.641  0.1222  0.2032  0.0245
17764W        W33573  17.998  12.050  14.724  0.3788  0.0351  0.1489
17765W        W33574   9.642  17.207   1.229  0.0597 -0.2396  0.0764
17766W        W33575  13.614   4.916   3.584  0.1962 -0.4482 -0.1955
17767W        W33576   4.720   7.228   4.727  0.0098 -0.2088  0.0841
17768W        W33577   9.610   0.514   4.254 -0.0005 -0.0246  0.0252
17769W        W33578  16.102  12.610  11.244  0.1526 -0.0339  0.3474
17770W        W33579  11.621  15.639  11.857  0.1445  0.0008  0.0694
17771W        W33580  18.405  16.074  15.380  0.1327  0.1169  0.2835
17772W        W33581   5.209  14.416  15.635 -0.0848  0.1707 -0.2975
17773W        W33582   3.289   1.075  10.705 -0.2843 -0.0297 -0.0321
17774W        W33583   8.445   6.157   0.630  0.2327  0.1725 -0.5116
17775W        W33584  12.248   5.615   1.820  0.1774  0.1491  0.2428
17776W        W33585   1.722  11.399   6.292 -0.1726 -0.3431  0.1935
17777W        W33586   2.522  13.667   1.526  0.0499 -0.1092 -0.0477
17778W        W33587  13.044  16.774   3.363 -0.0876  0.1202 -0.0928
17779W        W33588  18.256  17.367  10.509 -0.0782 -0.1709  0.2144
17780W        W33589  17.905   3.308  14.872 -0.1778  0.1005  0.0929
17781W        W33590  11.195   2.960   3.622  0.4333 -0.0366 -0.1188
17782W        W33591  17.943   5.501  11.545 -0.0347 -0.0065 -0.3373
17783W        W33592   5.434   8.456   2.899  0.0857  0.0293 -0.0098
17784W        W33593   6.553  18.315   3.368  0.1058  0.3502 -0.1082
17785W        W33594   3.727  10.709   1.892 -0.0583  0.1457  0.1534
17786W        W33595   3.661  15.113   0.305  0.0944 -0.1649 -0.0099
17787W        W33596   8.683   9.225   5.494 -0.1914  0.0608  0.2157
17788W        W33597   3.288  14.067   5.066  0.0921  0.0876 -0.0322
17789W        W33598  13.969   0.804  11.234 -0.0172  0.0882  0.0303
17790W        W33599   6.319   8.631   4.977  0.0459 -0.0334 -0.0453
17791W        W33600   4.362  12.961   1.910  0.0112 -0.0864  0.1344
17792W        W33601  13.310  13.075   1.444  0.3452 -0.3321 -0.0914
17793W        W33602   5.387  17.184   0.407 -0.0692  0.1974 -0.3253
17794W        W33603   4.417  16.798   1.134 -0.0091 -0.1592  0.1666
17795W        W33604   3.980  13.873  14.121  0.0662  0.1476 -0.2423
17796W        W33605   3.793  14.594  15.524  0.0149  0.1852 -0.0617
17797W        W33606   1.228   4.397   5.460 -0.1247 -0.1168 -0.1528
17798W        W33607  15.486  13.296  14.848  0.1379 -0.0983 -0.1991
17799W        W33608  18.053  18.359  10.572  0.0068 -0.3887 -0.0389
17800W        W33609  12.093  16.364  15.689  0.0832 -0.0683 -0.0202
17801W        W33610   0.743   2.756  11.846 -0.1043 -0.0055 -0.1740
17802W        W33611   7.931  14.547  13.671  0.1267  0.1626 -0.1793
17803W        W33612   7.062  11.543   6.349 -0.4125  0.0486  0.3478
17804W        W33613   0.633   0.944  13.065  0.2639 -0.4118  0.0257
17805W        W33614   5.878   0.489   3.643  0.1717  0.0456  0.1560
17806W        W33615   2.125   6.313  11.574 -0.0697 -0.1993 -0.0975
17807W        W33616   2.105   9.097   3.076  0.2944  0.2711  0.1834
17808W        W33617   8.165   1.299  10.288  0.1019  0.1257 -0.2366
17809W        W33618   6.440  10.233   2.500  0.1410  0.2570 -0.2261
17810W        W33619   2.268  15.972   1.240 -0.0803 -0.1590  0.0558
17811W        W33620   6.446   8.029   2.905 -0.0167 -0.1543 -0.1841
17812W        W33621  12.721  15.950   6.002  0.1300 -0.1050 -0.0803
17813W        W33622  13.018   9.572  15.502 -0.2311 -0.0020 -0.0447
17814W        W33623   8.023   5.934   3.183 -0.2731 -0.1614 -0.1422
17815W        W33624  15.490   3.663  14.660  0.1364 -0.1476  0.1370
17816W        W33625   7.798  12.328   4.197 -0.2065 -0.0548  0.1160
17817W        W33626  12.159   7.200  14.360 -0.0647 -0.2643  0.0801
17818W        W33627   2.159  11.129  13.430  0.2881 -0.0619  0.1945
17819W        W33628   1.588   2.274   3.828 -0.0948 -0.0718 -0.2811
17820W        W33629   8.804  10.646  14.312 -0.0257 -0.0235 -0.0616
17821W        W33630  17.994   2.288  13.360  0.3421  0.1679 -0.3079
17822W        W33631  17.821   8.506   1.107 -0.1203  0.0647  0.1876
17823W        W33632   6.498   5.727   2.271  0.0736  0.1276  0.1065
17824W        W33633  11.709   8.568   3.808  0.4046 -0.0023 -0.2169
17825W        W33634   8.621   3.705   4.768 -0.2332  0.2245  0.1685
17826W        W33635  14.561  10.831   2.296 -0.0798  0.1668  0.2565
17827W        W33636  13.160  17.205   5.104 -0.0604  0.0795 -0.0243
17828W        W33637  17.779  12.540  12.906 -0.6097 -0.1249  0.2152
17829W        W33638   4.399  11.904  14.472  0.0155 -0.1296  0.2017
17830W        W33639  18.185   5.768  15.808 -0.0846 -0.1537 -0.1176
17831W        W33640  15.751   4.046  14.901  0.1446 -0.3679 -0.0363
17832W        W33641   4.946  10.859  15.226 -0.0109 -0.0770  0.0622
17833W        W33642  10.031  10.079  15.810  0.1552 -0.2072 -0.1360
17834W        W33643   3.303   7.957   4.615 -0.0126  0.2474  0.1485
17835W        W33644   3.876  11.891   5.310  0.1734  0.0375 -0.0902
17836W        W33645   3.046  13.746  15.270 -0.0184 -0.0992  0.0561
17837W        W33646   6.111   3.638  13.058 -0.2037 -0.2205 -0.2257
17838W        W33647   3.570   2.838   9.463  0.0496  0.0345  0.1087
17839W        W33648   5.642  10.385   3.086 -0.1974  0.1207  0.1149
17840W        W33649   9.775   9.427  12.064  0.1179 -0.3075  0.1307
17841W        W33650   9.103  12.367   2.187  0.2711 -0.1785 -0.0238
17842W        W33651   1.499   1.866  14.556  0.0994 -0.0255  0.0206
17843W        W33652   8.314   0.882  13.582  0.1302  0.1884 -0.0868
17844W        W33653  10.184  10.269   3.216 -0.2148 -0.0953  0.2140
17845W        W33654  13.071  16.514  14.455 -0.0989  0.2272  0.3714
17846W        W33655   7.107  14.773   3.924  0.0821 -0.0804 -0.0230
17847W        W33656   5.690   9.855  13.083  0.0995 -0.0611  0.0257
17848W        W33657   2.407  10.803   5.449  0.0834  0.0488  0.1511
17849W        W33658  14.512   9.128   2.232 -0.0174 -0.1886  0.0229
17850W        W33659   2.501  16.299   3.194 -0.0224 -0.2033  0.0076
17851W        W33660   4.127  12.438  15.194  0.4640  0.1166 -0.0031
17852W        W33661  16.339   5.799  11.181  0.0160 -0.2986  0.0171
17853W        W33662   1.091   8.236   0.432 -0.3498  0.1154  0.1870
17854W        W33663   0.798   8.465  13.176  0.1974  0.3617 -0.0415
17855W        W33664  12.062  16.347  14.279  0.4813  0.0802  0.1786
17856W        W33665   6.290   3.334   0.342  0.0127 -0.0411  0.2100
17857W        W33666   8.072   3.622  10.425 -0.0358  0.0237  0.0432
17858W        W33667  14.172  11.866   2.805  0.1130  0.0373 -0.1442
17859W        W33668  14.302  15.073   1.264  0.2023 -0.0504 -0.1208
17860W        W33669   3.624   1.411  12.381  0.1646 -0.0385  0.1337
17861W        W33670   0.546   8.847  12.294 -0.0323 -0.2737 -0.2379
17862W        W33671  11.357   7.581   3.545 -0.1353  0.2690 -0.0080
17863W        W33672  12.218   7.637  15.060  0.2056  0.1299  0.0560
17864W        W33673   6.300  10.901   0.227  0.3840  0.1993 -0.1405
17865W        W33674   3.662  17.035   1.057  0.2916 -0.4653  0.0005
17866W        W33675  11.165   1.186   5.371 -0.1792 -0.0481  0.2893
17867W        W33676  15.699  14.568  12.255  0.2259 -0.0402  0.0384
17868W        W33677   3.260  15.894  11.574 -0.2136  0.2524 -0.0338
17869W        W33678   3.095   4.843   3.809 -0.2207  0.1349  0.0221
17870W        W33679   2.778   9.024  15.200  0.0645 -0.0230  0.0615
17871W        W33680   8.858  15.665   2.125 -0.0706 -0.0610 -0.0932
17872W        W33681   7.337  10.829  13.307 -0.0439  0.0163 -0.1033
17873W        W33682   5.283  13.649  15.308  0.0237  0.3703  0.0011
17874W        W33683  12.575   1.024  12.055 -0.0404 -0.0691 -0.1992
17875W        W33684   3.308   2.264  13.429 -0.1713  0.0557 -0.0754
17876W        W33685   4.947   6.937  12.190  0.0187 -0.0608  0.0110
17877W        W33686  10.373   6.520  11.157 -0.1690 -0.1150  0.0326
17878W        W33687  11.928  11.860   0.969  0.1965 -0.0297  0.0360
17879W        W33688   3.437   6.019  11.724  0.1690  0.5174 -0.0383
17880W        W33689   5.000  17.974  12.672  0.2131 -0.0613 -0.1040
17881W        W33690  10.038  14.562  14.917  0.1043 -0.2398  0.1846
17882W        W33691  18.174  12.485  14.920  0.3997  0.0883  0.0951
17883W        W33692   4.457  11.377   4.643  0.1252 -0.0506  0.1258
17884W        W33693   7.831   0.987   1.662  0.0807  0.0972  0.0859
17885W        W33694   9.709  17.851  12.847 -0.2089  0.1467  0.1626
17886W        W33695   8.468  16.701  13.008  0.1503 -0.0805  0.0424
17887W        W33696   0.797  16.332   5.277 -0.2651  0.2420  0.0466
17888W        W33697   5.589   8.746   1.899 -0.1382  0.0673 -0.1137
17889W        W33698  15.256  13.967  12.354 -0.0755 -0.0553  0.0364
17890W        W33699   7.453   3.546   1.053  0.2478 -0.1835  0.0178
17891W        W33700  10.288   1.828   4.531  0.0598  0.1045  0.1655
17892W        W33701  17.359   6.097   3.222 -0.0291 -0.0026  0.0158
17893W        W33702   6.476  14.842  15.656 -0.1477  0.0926  0.0086
17894W        W33703   3.376   3.214  11.248 -0.4194 -0.0369  0.1390
17895W        W33704  15.745  15.632   4.569  0.3359 -0.0800  0.2729
17896W        W33705  17.734  10.335  15.313 -0.1667 -0.0498  0.1403
17897W        W33706  13.674  10.794   0.069 -0.2267  0.2372 -0.1063
17898W        W33707  12.940   0.847   4.502  0.0202  0.0766  0.2492
17899W        W33708   3.266   1.661  11.833 -0.0163 -0.1879  0.0135
17900W        W33709   9.290  16.331   0.247  0.1170  0.0877 -0.1104
17901W        W33710   5.984  14.198   0.902  0.0813 -0.1248  0.1809
17902W        W33711   2.387  17.973  12.372 -0.4694 -0.3132  0.4322
17903W        W33712   3.563   3.492   0.936  0.1756 -0.0401 -0.5300
17904W        W33713  16.205   3.845  15.633 -0.0624 -0.1447 -0.1270
17905W        W33714  17.029   1.289  13.164 -0.0106 -0.0053  0.3245
17906W        W33715   3.241  12.228  14.911 -0.2067  0.0482 -0.0290
17907W        W33716   3.902  13.683   2.476 -0.1892 -0.1383  0.1516
17908W        W33717   5.209  11.078  15.623  0.3424  0.0738 -0.1152
17909W        W33718   6.157  16.439   1.214  0.2076  0.1329 -0.0283
17910W        W33719  14.063   8.458  15.335  0.0458  0.0721 -0.0511
17911W        W33720   5.496  10.917   6.131 -0.1719 -0.2244  0.1642
17912W        W33721  17.218   3.830   1.426  0.2898  0.0330 -0.1805
17913W        W33722  15.579   3.086  13.469 -0.0055 -0.0057  0.1440
17914W        W33723   7.788   3.348   0.726  0.0441 -0.1408  0.1175
17915W        W33724   3.826   4.591  15.838  0.0846 -0.0418 -0.1447
17916W        W33725   5.364   9.928   2.196 -0.1977  0.1903  0.0903
17917W        W33726  10.414   2.424   0.730  0.3430 -0.0285 -0.0639
17918W        W33727  15.921  12.300   1.426 -0.0235  0.0831  0.1000
17919W        W33728   0.177  14.938  12.454 -0.2311 -0.1055 -0.0186
17920W        W33729  14.822   3.537   0.824  0.3830 -0.0272  0.3307
17921W        W33730  12.537   5.782   0.957  0.0912 -0.0323  0.1563
17922W        W33731  13.775  12.843   3.885 -0.1347 -0.1482 -0.2091
17923W        W33732   6.320   7.426  14.448 -0.1291 -0.0670 -0.1685
17924W        W33733   9.871  15.231   3.119  0.1681 -0.4935  0.0858
17925W        W33734  17.496   8.381  12.981  0.1727 -0.0509  0.1102
17926W        W33735  16.469   3.823   0.202 -0.0195  0.0813 -0.2486
17927W        W33736  12.075   8.215   4.402  0.1104 -0.2461 -0.2044
17928W        W33737  17.052   2.267   2.432 -0.5191  0.3600 -0.1721
17929W        W33738  14.194   0.748   4.029 -0.2135  0.0934 -0.0421
17930W        W33739  13.494   7.187   4.310 -0.0072  0.0734 -0.0611
17931W        W33740   4.823   3.254  14.213  0.2240 -0.0918  0.0375
17932W        W33741  16.769   7.520   5.208  0.3239 -0.1380  0.3295
17933W        W33742   8.475   2.673   3.074  0.1720 -0.0774 -0.1459
17934W        W33743   9.491   4.174  15.189 -0.2164  0.1001  0.0320
17935W        W33744   9.027   8.929  13.212  0.0221  0.2139 -0.1302
17936W        W33745   8.431  17.492   1.917  0.0189  0.0207  0.4400
17937W        W33746   0.073  12.906  13.959  0.2627  0.0145  0.0072
17938W        W33747  15.644  16.075   4.786  0.0539  0.0690  0.1581
17939W        W33748   8.442   6.561  15.292 -0.0109 -0.1687 -0.1483
17940W        W33749  15.831   9.376  12.334  0.1048 -0.1892  0.1663
17941W        W33750  10.610  16.829   1.791  0.3353 -0.0084  0.0575
17942W        W33751   7.665   2.761   2.255  0.2859 -0.3094  0.0218
17943W        W33752  17.920   0.861  12.073  0.0571  0.1586  0.0631
17944W        W33753   8.083  11.487   1.217 -0.1933  0.1589  0.0121
17945W        W33754   9.211   4.150   2.412 -0.0438  0.2313 -0.2627
17946W        W33755  12.962   1.923   1.993  0.0110 -0.0162  0.0145
17947W        W33756  12.913   0.195  15.830  0.1997 -0.1090 -0.1477
17948W        W33757   5.946   1.252   4.173  0.0156  0.1022 -0.2928
17949W        W33758  10.343  17.007  15.657 -0.0597 -0.1533  0.1681
17950W        W33759   0.082   9.786   4.317  0.2240 -0.2477 -0.0442
17951W        W33760  17.079  16.597   4.407 -0.2245  0.0882 -0.4243
17952W        W33761  12.706   4.754  12.419  0.0056 -0.0420  0.0257
17953W        W33762  10.018  11.432  14.420 -0.3667 -0.1474 -0.0151
17954W        W33763  11.086   0.339   0.478 -0.1459 -0.1906 -0.0218
17955W        W33764   7.906  13.894   4.985  0.2134  0.1135 -0.1725
17956W        W33765   2.084   9.731   2.665  0.3851  0.0213  0.0532
17957W        W33766  16.435   7.335   1.699 -0.0770  0.0487 -0.1149
17958W        W33767  15.834  12.544   4.082 -0.1767 -0.1749 -0.2916
17959W        W33768   3.697  15.018   2.766  0.1789 -0.1193 -0.1423
17960W        W33769  18.081   0.308   1.367 -0.0833 -0.4207  0.0916
17961W        W33770   8.611   7.859   2.937 -0.2520 -0.1012 -0.0929
17962W        W33771   6.548   0.729  13.575  0.0827 -0.2078 -0.1649
17963W        W33772   7.654   5.822  14.276  0.0855  0.1023 -0.1640
17964W        W33773   5.101   2.251  12.751 -0.0817  0.0655 -0.2472
17965W        W33774  12.171   0.866   2.662  0.0727 -0.1528  0.1042
17966W        W33775   6.037   9.317   2.622 -0.0857 -0.1641  0.1299
17967W        W33776  14.246  17.761  10.344 -0.4240  0.3843 -0.1300
17968W        W33777   4.739   7.087   2.185  0.0220  0.0818 -0.0177
17969W        W33778  12.688   2.643  13.865 -0.0857  0.0257  0.0598
17970W        W33779   5.185  18.181   2.671  0.0915  0.0361  0.1567
17971W        W33780   3.143  17.335  14.371 -0.2075  0.3230 -0.1826
17972W        W33781   2.094   8.952  11.802 -0.0487  0.0420 -0.3495
17973W        W33782   9.228   6.041  15.336  0.2804  0.0236  0.1025
17974W        W33783   7.447   0.810   3.035  0.1051 -0.0216  0.0294
17975W        W33784   6.653   9.446   0.345 -0.0514  0.3952 -0.0067
17976W        W33785   5.002  16.643  14.235  0.0749  0.0653 -0.0099
17977W        W33786   8.525   7.308   4.296 -0.2820 -0.0636  0.0045
17978W        W33787   8.655   5.633   3.991 -0.2182  0.0434 -0.0141
17979W        W33788  17.977   7.358   2.089  0.0041  0.0938 -0.1144
17980W        W33789   6.314  12.976   3.399 -0.0062 -0.2846 -0.1711
17981W        W33790  14.691   3.968   5.262  0.1801 -0.1406 -0.1670
17982W        W33791  11.374  16.380   3.376 -0.0222 -0.2547 -0.2088
17983W        W33792   0.989   7.225   2.535 -0.1481  0.2868  0.0903
17984W        W33793   7.960   6.496   9.786  0.4646  0.1840  0.0371
17985W        W33794  11.697  11.638   1.360  0.0335  0.0065 -0.0517
17986W        W33795   0.271  10.250   4.536  0.0687  0.1879 -0.0606
17987W        W33796   4.810   8.426   3.873  0.0656  0.2574  0.3251
17988W        W33797   8.619  17.840  14.886  0.3290 -0.2327 -0.2852
17989W        W33798   0.453  15.950  15.505  0.2022  0.0497  0.0576
17990W        W33799   7.525   6.940  15.125  0.1141  0.3915 -0.0724
17991W        W33800   1.628   6.482  12.458 -0.0921  0.0302 -0.0504
17992W        W33801   7.092   4.101  13.222 -0.0251  0.0981 -0.0581
17993W        W33802   9.423  13.207   0.025 -0.0425 -0.0839 -0.2684
17994W        W33803  10.203   1.274  12.447 -0.2563 -0.1129 -0.0756
17995W        W33804  10.957  14.316  14.449 -0.2786  0.1782  0.0235
17996W        W33805   6.871  11.352   5.584 -0.2282 -0.2528  0.3216
17997W        W33806  12.090  14.625  12.473  0.2047 -0.1205 -0.1399
17998W        W33807   1.378  10.094  13.975 -0.1224  0.1100 -0.0468
17999W        W33808   1.131  16.767   5.021 -0.2266  0.1166  0.1993
18000W        W33809   4.668   3.433   2.322 -0.1588  0.2079  0.2577
18001W        W33810   6.882   9.706  15.595  0.0048 -0.4400  0.0895
18002W        W33811  12.942   4.225  11.456  0.1807 -0.0577 -0.0801
18003W        W33812  15.556   8.924  13.962  0.0139  0.1571  0.0904
18004W        W33813  12.964   8.359  11.302 -0.1044  0.1871 -0.1961
18005W        W33814  11.901  13.675  11.999 -0.0535  0.2414 -0.0351
18006W        W33815   2.059  16.458   1.218 -0.0175 -0.0710 -0.2139
18007W        W33816   1.011   2.136   2.598  0.3075  0.0026 -0.0675
18008W        W33817  10.351   6.550   0.877  0.3182 -0.0379  0.0688
18009W        W33818   7.512   4.471   1.367  0.0144  0.1798  0.0506
18010W        W33819   2.872   5.992   9.776 -0.2017 -0.0515  0.0097
18011W        W33820   2.233   6.142   0.879  0.0747  0.0917  0.1634
18012W        W33821  14.015   6.524   3.449  0.3382 -0.1828 -0.2769
18013W        W33822   6.189   0.331  13.688 -0.1611 -0.0431 -0.0670
18014W        W33823   4.581  10.391   3.636  0.0508  0.1494 -0.0889
18015W        W33824   2.238  11.696   3.842 -0.0190 -0.1546  0.0990
18016W        W33825   8.529  16.285  12.378 -0.1508  0.1560 -0.0086
18017W        W33826   7.055  15.870   0.015  0.3316  0.0070  0.2296
18018W        W33827   7.468  16.688   1.717 -0.0812 -0.0700 -0.1876
18019W        W33828   5.008   3.655  14.478 -0.0093  0.1714  0.1969
18020W        W33829  13.393  17.654  11.245 -0.1794  0.1855 -0.4272
18021W        W33830  13.945   2.190  14.215 -0.1860  0.2468 -0.1267
18022W        W33831   6.006  13.797   2.870  0.1515  0.0023 -0.0100
18023W        W33832  14.293  13.234   4.984 -0.3771  0.2669 -0.1794
18024W        W33833  11.509   8.760   5.566  0.3894  0.5720  0.2485
18025W        W33834  12.911  11.136  14.117  0.2189  0.2118 -0.0363
18026W        W33835   1.170   5.941   2.208  0.0979 -0.0671  0.4116
18027W        W33836   8.725   5.714  11.091  0.0194 -0.2403  0.0730
18028W        W33837   1.115  12.796  14.285 -0.1930  0.0806 -0.3070
18029W        W33838  10.583   9.447   2.728  0.0477  0.0694 -0.1522
18030W        W33839   3.528   8.937   4.324  0.1408  0.0878  0.1162
18031W        W33840  11.858  14.762   5.339  0.1323  0.4203 -0.0360
18032W        W33841  12.615  12.417   2.657 -0.1011 -0.1506 -0.0617
18033W        W33842  10.805  10.745   2.551  0.3234  0.0828  0.0670
18034W        W33843   3.138   3.144   2.377 -0.4142  0.0271  0.0524
18035W        W33844   0.891   0.570  13.344  0.5774  0.1003  0.0271
18036W        W33845   5.148  13.921  15.673  0.0781 -0.4227  0.1063
18037W        W33846  17.596  17.780  13.005 -0.0891  0.2100 -0.2604
18038W        W33847   9.476   6.746  14.581 -0.1500 -0.0417  0.1858
18039W        W33848  13.022   6.264  12.237 -0.0543 -0.2911  0.1850
18040W        W33849  17.095   6.470  15.640 -0.0795  0.0886 -0.1816
18041W        W33850  14.456  13.964  11.991 -0.1744 -0.0266 -0.0997
18042W        W33851  10.963  14.233   4.883 -0.1803  0.3380 -0.1465
18043W        W33852  14.835   9.912   3.307 -0.1941 -0.0261 -0.1269
18044W        W33853   7.967   6.544  15.463  0.0486 -0.0939 -0.2063
18045W        W33854  17.994   4.401  15.402 -0.2353 -0.0044 -0.1000
18046W        W33855  16.995   6.058   1.333  0.1000  0.0449  0.1873
18047W        W33856   7.245  10.486   3.822  0.0737  0.1270 -0.2561
18048W        W33857   0.792   4.311  13.739 -0.1196  0.1769 -0.2419
18049W        W33858  13.852   1.412   5.935  0.2234 -0.0763 -0.2348
18050W        W33859  12.466   6.359  10.732 -0.2434 -0.0413  0.1122
18051W        W33860  10.105   4.168  15.832  0.1683 -0.0773  0.1218
18052W        W33861  12.309  12.023  14.994 -0.0421  0.0680  0.0254
18053W        W33862   4.252  11.029   1.690 -0.0916  0.3073  0.0321
18054W        W33863  15.378   3.219   5.272  0.3196 -0.3640  0.2594
18055W        W33864   0.037  11.331   5.529  0.0392 -0.0461  0.0699
18056W        W33865  15.190   1.398  10.876 -0.2800  0.2390 -0.1794
18057W        W33866  13.278   9.312   2.733 -0.1452 -0.1455  0.0185
18058W        W33867  10.861   5.094   3.243 -0.0239 -0.2160  0.0893
18059W        W33868   1.086  10.807  11.666  0.1541 -0.1541  0.0716
18060W        W33869  10.272   2.931  15.132  0.4015  0.0716  0.1467
18061W        W33870   1.995   1.979  12.445  0.0788  0.2700  0.2606
18062W        W33871  14.965  13.523  15.102  0.0464  0.3585  0.0942
18063W        W33872   7.819  10.585  12.192  0.0574 -0.1695  0.1389
18064W        W33873   3.448  12.346  11.482  0.0366 -0.0931  0.0218
18065W        W33874   6.218   4.193   9.904  0.1072 -0.1343  0.0430
18066W        W33875   2.989   8.963   4.817 -0.0582  0.0887 -0.0204
18067W        W33876  16.348   3.724  12.077 -0.0224  0.0256 -0.1809
18068W        W33877   5.978   1.358   0.171  0.1206 -0.0546 -0.0796
18069W        W33878  18.205  14.372   3.630 -0.0806  0.0459  0.1286
18070W        W33879  13.260  11.499   4.846  0.0468 -0.1682  0.3454
18071W        W33880   9.656   9.502  15.179  0.0671 -0.3303 -0.0702
18072W        W33881   0.117   5.972  12.705  0.0209 -0.2829  0.2229
18073W        W33882   8.331   8.321   0.568  0.0310  0.0562 -0.0293
18074W        W33883  14.666   0.793  12.802 -0.2109 -0.2703 -0.1291
18075W        W33884   1.714   4.809   4.043  0.2558  0.1615  0.1186
18076W        W33885   3.445  12.869  14.495  0.2077 -0.0534  0.0891
18077W        W33886   1.775   5.410  13.163  0.1130  0.1180  0.0783
18078W        W33887  12.002   8.663   5.360  0.0809 -0.1234 -0.0108
18079W        W33888   1.044   4.029   0.387 -0.1041 -0.0970  0.0973
18080W        W33889   5.284  12.152  15.378  0.3359  0.2290  0.2418
18081W        W33890  14.229  17.886   1.329 -0.0211 -0.1346 -0.0240
18082W        W33891  10.599   5.816   4.899  0.0206 -0.0718 -0.1522
18083W        W33892   5.132   0.612  13.671 -0.2142 -0.0975  0.6278
18084W        W33893  17.074  13.159   4.806  0.0669 -0.0224  0.2626
18085W        W33894   6.166   9.396   5.840 -0.0101  0.2146  0.0207
18086W        W33895   9.896   3.671   0.027 -0.0629  0.4380  0.2121
18087W        W33896   3.489  12.176  12.267 -0.2573  0.0660 -0.2625
18088W        W33897   7.145   1.278  11.396  0.0141 -0.0918  0.2325
18089W        W33898   9.471   3.070   4.219 -0.1626 -0.0272 -0.2441
18090W        W33899   4.561   5.480   4.594 -0.1814 -0.2705  0.3649
18091W        W33900  10.281  15.980   3.970  0.2424 -0.1155 -0.1260
18092W        W33901   2.458  17.781   4.154 -0.3108  0.0547 -0.0959
18093W        W33902   8.211  12.111   5.190  0.3636  0.4443 -0.0341
18094W        W33903   3.845  11.558   0.456  0.0814  0.0929 -0.1124
18095W        W33904  18.458  13.040   3.213 -0.0190  0.1694  0.2903
18096W        W33905  16.826   4.876  10.105 -0.4404 -0.0938  0.1066
18097W        W33906   1.015   1.726   0.230 -0.0749  0.2178  0.3224
18098W        W33907  10.447  10.201   1.495  0.1349 -0.1075 -0.1130
18099W        W33908   7.403   2.475   0.352 -0.3410 -0.0271  0.0736
18100W        W33909  11.110   3.619   4.356  0.0075 -0.0675  0.0912
18101W        W33910   8.374   1.879   0.625  0.0479 -0.1829 -0.0184
18102W        W33911  15.751   2.304   3.615  0.3990  0.1399 -0.2793
18103W        W33912  14.418   4.495  13.830 -0.0704  0.2323 -0.2197
18104W        W33913   2.006  17.250  11.421 -0.3450 -0.0870 -0.2542
18105W        W33914   9.538  13.154  12.679  0.0564 -0.0312  0.1878
18106W        W33915  16.758  15.261   4.444 -0.0108  0.0389 -0.0263
18107W        W33916   0.942  16.362   0.800  0.2809  0.0973  0.1513
18108W        W33917   1.595  16.856  11.227 -0.0406  0.1362  0.3626
18109W        W33918   0.647   4.036  12.393  0.0224  0.3354 -0.2717
18110W        W33919   1.813  11.873  12.245 -0.0468  0.2803 -0.0323
18111W        W33920  16.936   9.245  11.388  0.0210 -0.1729  0.1575
18112W        W33921  16.128  16.826   4.363  0.0294  0.0923  0.0152
18113W        W33922  10.859   2.011  14.049 -0.2771  0.0289 -0.2421
18114W        W33923  14.327  17.315  12.340  0.1523  0.2112  0.1382
18115W        W33924   9.334  12.525   4.624 -0.1117 -0.0438 -0.2861
18116W        W33925   4.146  13.604   5.710 -0.1072  0.2215 -0.1322
18117W        W33926  11.174   8.265   1.561  0.2580 -0.1461  0.0656
18118W        W33927   2.100   3.913  11.521  0.2949  0.1115  0.1201
18119W        W33928   1.992  18.111   0.028  0.0843  0.0629 -0.0052
18120W        W33929   1.011   9.653  14.743  0.1370 -0.0840 -0.2284
18121W        W33930  11.445  12.732   3.897 -0.0055  0.0236 -0.0850
18122W        W33931   8.336  12.969  15.827  0.1466  0.2144  0.0322
18123W        W33932   8.112   2.059  11.467 -0.4701 -0.0557 -0.1388
18124W        W33933   7.486   1.829   2.518 -0.1939  0.0969  0.2080
18125W        W33934  12.562   4.847   3.119  0.2117  0.0676 -0.0411
18126W        W33935   5.587   4.630   5.068 -0.3228 -0.0422  0.0105
18127W        W33936   4.049   1.256  13.721 -0.0358 -0.3224  0.0238
18128W        W33937  16.055  16.566  13.259 -0.1234  0.2450 -0.0151
18129W        W33938   7.582  13.334  14.286  0.2801 -0.1440  0.0752
18130W        W33939  10.712  17.871   0.806  0.0321 -0.0902  0.0102
18131W        W33940   8.131   0.693  15.552 -0.0663  0.0079 -0.2280
18132W        W33941  13.938  14.170  11.972 -0.0183 -0.1971 -0.0066
18133W        W33942   9.549   5.326  15.662 -0.3297 -0.2266  0.0208
18134W        W33943  16.105  17.406  11.511 -0.0572  0.2915 -0.3088
18135W        W33944   3.342  16.573   4.351 -0.1011 -0.0013  0.2180
18136W        W33945  14.505   9.141  13.228  0.2747 -0.2382  0.2501
18137W        W33946  17.665   2.736  13.532 -0.1276  0.0130 -0.3075
18138W        W33947   7.387   7.286   0.722  0.0040  0.0999  0.2790
18139W        W33948   9.057   8.885   5.089  0.4057 -0.1544 -0.0753
18140W        W33949   9.750   7.653   4.482 -0.3092  0.1812  0.1127
18141W        W33950  15.912   5.307  14.930 -0.0661  0.2596 -0.2939
18142W        W33951   9.567   5.418   0.674  0.1321 -0.2781  0.1229
18143W        W33952  16.587   9.487   1.069  0.1609 -0.0488  0.2156
18144W        W33953   0.605   0.735   3.929  0.1078 -0.1495  0.2488
18145W        W33954   1.471   6.033  11.985 -0.1865  0.1524  0.1689
18146W        W33955   3.075   9.304  14.872  0.1626  0.1337  0.1778
18147W        W33956   0.127  11.860   3.142  0.0171  0.0768  0.0890
18148W        W33957   3.051   2.640   3.585  0.0204 -0.1131 -0.2745
18149W        W33958  11.279  12.198   5.411 -0.2145 -0.1384  0.1530
18150W        W33959   4.696  17.804   2.241  0.0161  0.0362  0.3050
18151W        W33960   3.256  15.311   0.035 -0.0533  0.0475 -0.2136
18152W        W33961   7.487  11.457  11.110 -0.0736  0.0697 -0.1927
18153W        W33962  15.429   6.191   2.381 -0.1970 -0.0826  0.1273
18154W        W33963  17.620   9.261   0.235 -0.1383 -0.0776  0.0364
18155W        W33964  14.795   7.744  11.690  0.2570 -0.1155  0.1256
18156W        W33965  15.443  18.190  13.505  0.0628  0.1468  0.1249
18157W        W33966   9.322   9.505  11.459  0.1806  0.1502 -0.1661
18158W        W33967   8.487  10.297  13.959 -0.0068  0.3798  0.3728
18159W        W33968  11.575  17.108   0.230  0.0593  0.0261 -0.1347
18160W        W33969  14.271  12.206   2.181  0.0581 -0.0906 -0.1544
18161W        W33970   6.582  13.454   4.821 -0.0650 -0.1772  0.2620
18162W        W33971   2.410  10.157   3.844 -0.2859 -0.0347  0.1285
18163W        W33972  14.228   0.030   2.346  0.0925  0.2017  0.0820
18164W        W33973  11.351  14.106  15.244  0.1951  0.2890 -0.0592
18165W        W33974  13.314   4.575  11.708  0.0456  0.0914  0.2268
18166W        W33975   1.150  16.689  13.191 -0.1201  0.1857  0.5527
18167W        W33976  17.885  17.492   2.297 -0.1219 -0.0806 -0.0268
18168W        W33977  14.788  10.480  13.726 -0.0034  0.4180  0.0343
18169W        W33978   1.567   3.265   4.241 -0.0044 -0.1359 -0.0208
18170W        W33979  13.922   9.780   0.906  0.0447 -0.1342 -0.0598
18171W        W33980   9.220   2.623  15.814 -0.5105  0.1961  0.0358
18172W        W33981  10.940   9.214  13.383  0.0301  0.2274 -0.0359
18173W        W33982   0.167   6.855   4.080  0.1373  0.1942  0.2601
18174W        W33983   2.415   2.809  14.946 -0.3561 -0.0025 -0.0823
18175W        W33984  12.647   1.450   4.355 -0.0098 -0.1362  0.3194
18176W        W33985   1.462   7.966   2.805  0.1722  0.0826 -0.3226
18177W        W33986   9.586   7.532   0.821 -0.1840  0.0866  0.1995
18178W        W33987  16.453   0.537  11.269 -0.1119  0.0179  0.5122
18179W        W33988  10.179  13.719   2.293 -0.1340  0.1375 -0.1158
18180W        W33989   0.379  18.336   1.675  0.5196  0.1132  0.2269
18181W        W33990  14.137   7.901  13.887  0.1394 -0.0257  0.1838
18182W        W33991  15.121   3.425  11.941 -0.0016  0.3341 -0.0712
18183W        W33992  14.562   5.638  14.168 -0.3209  0.0854 -0.2618
18184W        W33993  12.304  17.826   3.682 -0.1840 -0.4338  0.5664
18185W        W33994  16.920   4.645  14.333  0.1546 -0.1184  0.3572
18186W        W33995   7.504   7.302   3.629  0.2696 -0.1258 -0.0852
18187W        W33996   7.945   6.080  10.463  0.0226  0.0197 -0.0757
18188W        W33997   3.414   9.685   0.217 -0.1141 -0.0721 -0.0848
18189W        W33998  17.445   7.289   0.084 -0.0270  0.0544  0.1405
18190W        W33999   6.827   4.059  12.059 -0.2483 -0.0648  0.0114
18191W        W34000  15.122  10.615   2.730 -0.0165 -0.0451 -0.1970
18192W        W34001   9.453  14.797   3.619 -0.2768  0.2091 -0.1118
18193W        W34002   1.921   3.039  11.496  0.0079  0.0742 -0.0190
18194W        W34003   1.418   6.391   2.010  0.1907  0.0682  0.1924
18195W        W34004   7.912  17.949   0.702 -0.2180 -0.0006  0.2235
18196W        W34005   8.400  12.861  13.181  0.4331 -0.0807  0.0122
18197W        W34006  14.441   1.748   1.478 -0.2076  0.0736  0.0090
18198W        W34007   6.760   7.999   0.438 -0.2093 -0.1169 -0.1870
18199W        W34008   1.266  16.981  12.458  0.0978  0.0197 -0.0032
18200W        W34009  10.955   3.091   4.636 -0.0232 -0.2330 -0.0092
18201W        W34010  14.446   3.945  12.487 -0.0204 -0.1509 -0.1067
18202W        W34011  13.436  18.254   0.950  0.0791 -0.0897  0.0058
18203W        W34012   2.456  17.049   1.558  0.3510  0.0664  0.0667
18204W        W34013   2.750  15.917   4.825  0.1853  0.0027 -0.0138
18205W        W34014  12.089  13.823   5.108 -0.1002 -0.3386  0.0233
18206W        W34015  18.265  13.398  12.625  0.1609  0.1471  0.1010
18207W        W34016   5.861  12.546  13.871 -0.1011 -0.0887 -0.0033
18208W        W34017  12.527  10.404   4.689  0.1432 -0.1418 -0.1729
18209W        W34018   4.202  11.353  15.220 -0.2246  0.1942  0.2759
18210W        W34019  13.356   0.450   0.277 -0.2755  0.0762  0.1601
18211W        W34020   0.441   9.348  12.167 -0.0156 -0.0294 -0.0139
18212W        W34021   8.948   4.069  14.727 -0.1282 -0.2770  0.0967
18213W        W34022  15.323   0.604   2.137  0.0786 -0.1761  0.0402
18214W        W34023  13.270  18.307  13.211  0.0425  0.1606 -0.6180
18215W        W34024  15.516   0.990   1.800 -0.1701 -0.1320  0.1221
18216W        W34025   3.619  14.505   2.679 -0.2690 -0.1202 -0.0814
18217W        W34026  11.200  12.804   5.085 -0.0231  0.3131 -0.0225
18218W        W34027   4.831  14.769   4.738 -0.0772 -0.1837  0.2562
18219W        W34028  11.629   1.383   4.204 -0.0982  0.2638 -0.3785
18220W        W34029  13.095   6.865  12.320 -0.0827  0.0327  0.1028
18221W        W34030   2.401   6.710  10.934  0.2054  0.2964  0.4282
18222W        W34031   8.048   1.504   1.760 -0.0213  0.3075 -0.2734
18223W        W34032  14.589   4.468   0.275 -0.1108 -0.0934 -0.1647
18224W        W34033   9.149  17.785  10.192  0.3801  0.0081  0.1364
18225W        W34034  14.109  10.574   0.239  0.0225 -0.0707 -0.0010
18226W        W34035  11.519   1.012  13.040 -0.0198  0.0391  0.2283
18227W        W34036   6.709  13.043   0.531  0.1339  0.4826 -0.1087
18228W        W34037   6.634   1.495   0.254 -0.0186  0.0931  0.1142
18229W        W34038   9.643   4.324  15.613  0.2038 -0.0220 -0.1154
18230W        W34039  13.773   2.636  10.888  0.1666  0.2262  0.1582
18231W        W34040  12.544  13.582   0.085 -0.1220 -0.2119  0.4058
18232W        W34041   8.858  10.436   3.645  0.2154 -0.0240 -0.1629
18233W        W34042   0.739   8.922  15.739 -0.2413  0.0043  0.2837
18234W        W34043  13.494   9.675   1.638 -0.3529 -0.1011 -0.2159
18235W        W34044  16.564  14.713  12.023  0.0461  0.0255  0.0686
18236W        W34045   9.373  10.919   4.161 -0.2769  0.0452 -0.1401
18237W        W34046  16.093   3.215   2.895  0.0900 -0.3267  0.0405
18238W        W34047  14.415  14.895  13.816  0.4939 -0.0470  0.2796
18239W        W34048   3.719  11.294   3.807 -0.1126  0.1923  0.0864
18240W        W34049   8.749  14.992   5.170 -0.3745 -0.0025  0.0361
18241W        W34050  11.831  15.054  12.406  0.2012 -0.0072  0.3554
18242W        W34051   4.221  13.409  15.636 -0.1701 -0.0453 -0.0474
18243W        W34052  14.846   9.856   3.852 -0.0129  0.3479  0.2052
18244W        W34053  15.826  12.438  13.136  0.0427 -0.3094  0.4233
18245W        W34054  13.172   8.064  15.784  0.3635 -0.1201 -0.2086
18246W        W34055  16.497   1.756   2.542 -0.0348 -0.0649  0.0643
18247W        W34056  12.832   0.801   3.263  0.0435 -0.2377  0.0196
18248W        W34057  16.717   7.476  14.250  0.1550 -0.1813 -0.0504
18249W        W34058  14.233  16.595  10.315 -0.1368 -0.2654 -0.0669
18250W        W34059   0.563  16.653   1.720  0.0812  0.0042  0.0003
18251W        W34060   4.925   2.951  15.166  0.0264  0.1033  0.1890
18252W        W34061  15.420  18.331   5.989 -0.1982  0.3471 -0.0297
18253W        W34062  11.309   1.156  10.609  0.0847  0.2005 -0.0076
18254W        W34063  12.066   4.226  15.595 -0.0103 -0.2023  0.2140
18255W        W34064  13.059  14.541  13.351  0.3861 -0.0634  0.0579
18256W        W34065   6.990   3.840   0.152 -0.1358 -0.2062 -0.3470
18257W        W34066  16.699   4.541  13.802  0.1106  0.1847 -0.0773
18258W        W34067  13.407  15.879   3.354  0.0481  0.0488  0.0394
18259W        W34068   8.199  17.468  11.674 -0.0835  0.0014 -0.1246
18260W        W34069   3.549   8.670   5.819  0.0435 -0.5743  0.1584
18261W        W34070   5.728  11.810   2.117 -0.4463  0.1367  0.0640
18262W        W34071   1.705   9.505   6.343  0.1125 -0.0109 -0.2841
18263W        W34072   4.742  12.600  14.481 -0.1302 -0.3103  0.2486
18264W        W34073  10.378  16.032   0.153  0.0523 -0.1295 -0.0152
18265W        W34074  14.206   2.080  12.854 -0.3040 -0.0315 -0.0373
18266W        W34075   5.539   4.629  13.683  0.0306 -0.4885 -0.2555
18267W        W34076  16.847   4.700   1.653  0.3826 -0.2037  0.3408
18268W        W34077   5.792   0.131   5.025  0.2067 -0.0293  0.0315
18269W        W34078   2.830  17.609   4.437 -0.3511 -0.4731 -0.1706
18270W        W34079  15.988  11.587   1.351  0.0577  0.1215 -0.2612
18271W        W34080   6.723   9.514  12.450 -0.1080 -0.0778 -0.0697
18272W        W34081   5.839   1.487  10.896  0.2555 -0.0540  0.2685
18273W        W34082   6.716   0.048   5.236 -0.1576 -0.0074 -0.1057
18274W        W34083  12.794   0.367  14.391  0.1915  0.2057 -0.0512
18275W        W34084  15.027   9.429   3.650  0.5464  0.0555  0.1155
18276W        W34085  14.551   3.466   3.879 -0.0616 -0.1461  0.2725
18277W        W34086   5.947   0.458  12.366  0.0611  0.0549 -0.1368
18278W        W34087   4.008  16.990  15.738  0.1097 -0.0454 -0.0901
18279W        W34088   4.987   4.511   1.628  0.1198  0.0816  0.3116
18280W        W34089  13.561  16.323  14.560  0.2832 -0.0512  0.0065
18281W        W34090  11.430   7.950  11.513 -0.0311 -0.1549  0.3797
18282W        W34091   8.982   9.823  11.810  0.0122  0.0665  0.2708
18283W        W34092  10.691  15.119  11.834  0.2032  0.1569  0.0083
18284W        W34093   7.000   1.802   3.395  0.0154  0.2065  0.2769
18285W        W34094  11.466   5.986   0.423  0.1678  0.0549  0.4131
18286W        W34095   3.032  15.688   5.660  0.0309 -0.0173  0.0926
18287W        W34096   1.168   5.907   5.542  0.1309 -0.2619  0.1867
18288W        W34097  16.734   0.635  14.290 -0.1008  0.0096 -0.0038
18289W        W34098  15.025   5.065  13.105  0.0969 -0.0030 -0.2104
18290W        W34099  16.976  17.234  11.388 -0.2242 -0.1296 -0.1980
18291W        W34100  12.838  17.984   3.868 -0.0018 -0.0523 -0.0026
18292W        W34101   9.449  11.257   0.733 -0.0694 -0.3528  0.1774
18293W        W34102   1.703   8.203   1.739 -0.0012 -0.1500 -0.0683
18294W        W34103   9.988   9.915  11.046  0.1126 -0.1754  0.1411
18295W        W34104  13.916  11.368  10.310  0.0712  0.2472 -0.2400
18296W        W34105   0.159  17.011  13.334 -0.2342  0.0174 -0.0305
18297W        W34106   7.617  10.674   5.475 -0.1300  0.1905  0.1917
18298W        W34107   1.190   2.835   0.599  0.0236  0.1590 -0.0808
18299W        W34108  12.637   3.082   3.949  0.5015 -0.2232 -0.0576
18300W        W34109  15.781  15.699   5.857  0.1442 -0.2302 -0.1596
18301W        W34110  10.299   0.850   4.381  0.3851 -0.0446  0.4979
18302W        W34111   6.864  17.637   0.713  0.1817 -0.0502  0.2271
18303W        W34112   3.644  16.331  12.247  0.0338  0.1528 -0.0817
18304W        W34113   0.383  11.024  13.669 -0.0525 -0.3002  0.3091
18305W        W34114  16.343  16.195  13.348 -0.1798 -0.2665 -0.0963
18306W        W34115  13.565   9.764   2.124  0.0298  0.0431 -0.3535
18307W        W34116  12.939   5.501  10.801  0.1562 -0.0696 -0.0491
18308W        W34117   1.287   4.749   5.040 -0.0023  0.0367  0.0793
18309W        W34118  14.964   4.145   0.053  0.0197 -0.0805 -0.1441
18310W        W34119  11.236  17.488   5.101  0.1558  0.0464  0.0091
18311W        W34120   1.397  16.914  14.870  0.0175  0.0127 -0.3487
18312W        W34121   1.836  13.947  14.211  0.0063  0.1134  0.3016
18313W        W34122   5.695   2.029  11.719 -0.1680  0.2100 -0.0281
18314W        W34123   6.097  14.022  15.590  0.3454 -0.2297  0.0963
18315W        W34124  16.814  14.729   4.295 -0.1957 -0.0346 -0.3390
18316W        W34125   1.844  10.249   0.133 -0.0225  0.0165  0.1344
18317W        W34126   0.754  17.740  12.581  0.1099  0.1456 -0.1664
18318W        W34127   8.561  17.484  15.428  0.1398 -0.0250 -0.2663
18319W        W34128   1.418  14.737  13.130 -0.1920 -0.1901  0.4032
18320W        W34129   7.982  11.661  13.248  0.2119 -0.1462 -0.1020
18321W        W34130   0.453   8.773   4.801 -0.3186 -0.1905 -0.2532
18322W        W34131  11.134   5.496   2.456  0.1726 -0.2724 -0.1944
18323W        W34132  12.649   2.129  13.643 -0.1820 -0.3022 -0.0638
18324W        W34133   8.330   1.871   2.029  0.0453 -0.2534  0.0719
18325W        W34134  10.923   3.850  12.418  0.0345 -0.0112  0.1089
18326W        W34135   1.948   7.943  13.291  0.0808 -0.1322 -0.0863
18327W        W34136   6.082   5.329   2.997 -0.0068 -0.0916  0.1884
18328W        W34137  13.731   6.084  13.759 -0.0131 -0.3097 -0.3071
18329W        W34138  14.501   4.151  15.489 -0.0299 -0.2047 -0.1571
18330W        W34139   5.542   1.352   3.766  0.0702 -0.0566 -0.1097
18331W        W34140   6.710   3.182   3.107 -0.1529 -0.0676  0.1539
18332W        W34141   2.348   9.281   5.695 -0.1457 -0.1180  0.0357
18333W        W34142  14.929  17.684  14.885  0.5330  0.2685  0.0871
18334W        W34143   6.607   2.748  14.633 -0.0422  0.0098  0.2298
18335W        W34144  13.334  18.273   4.663  0.1228  0.1840 -0.0210
18336W        W34145  11.505   7.541  15.402 -0.1799 -0.0373 -0.0499
18337W        W34146   1.839  16.512   5.709  0.1446 -0.0373 -0.0948
18338W        W34147   2.384   8.869   4.779  0.0280  0.0796  0.2913
18339W        W34148  18.118  18.044  12.460  0.0736  0.2521 -0.0092
18340W        W34149  17.921  10.308   1.743  0.3735  0.1628  0.0807
18341W        W34150   2.888  11.004   5.435  0.3584  0.1894  0.2090
18342W        W34151  17.223   8.879  11.467 -0.0020  0.0699 -0.0433
18343W        W34152  10.488  17.681   0.008  0.3443 -0.1410 -0.0600
18344W        W34153   6.115   4.919   2.668  0.0940  0.2417  0.4359
18345W        W34154   2.990   1.599   1.451  0.2570 -0.1412 -0.1261
18346W        W34155  16.391  17.902  11.054 -0.0437 -0.3237  0.1506
18347W        W34156  13.418   6.502   4.659 -0.0630 -0.0477  0.1481
18348W        W34157  15.883  17.176  12.659  0.0950 -0.1869  0.0483
18349W        W34158   0.822   6.605   0.804 -0.0322 -0.1104  0.0559
18350W        W34159   1.953   5.703  14.408 -0.3506  0.2461  0.0748
18351W        W34160   4.624   4.140   5.137 -0.0622 -0.2275 -0.4428
18352W        W34161   5.456   3.309  14.459 -0.0814 -0.1640 -0.0508
18353W        W34162   6.303   0.647  12.653  0.3910 -0.1187 -0.2993
18354W        W34163   2.972   4.881  15.588  0.1512  0.0331  0.5566
18355W        W34164  17.423  10.616  15.559 -0.2254  0.0768 -0.0119
18356W        W34165  12.389   9.420  14.604  0.0751 -0.3442  0.2374
18357W        W34166   1.008   9.471   0.025 -0.5423 -0.0343  0.1029
18358W        W34167  12.695  12.591  15.554 -0.0653 -0.1571  0.1594
18359W        W34168   4.461  11.907  11.028 -0.0304 -0.0486 -0.0671
18360W        W34169   8.185   0.904   2.878 -0.2340 -0.3679  0.0327
18361W        W34170  10.635  10.974   3.561 -0.0775  0.2206  0.1107
18362W        W34171  11.167   5.819   1.840 -0.0641 -0.1242 -0.1319
18363W        W34172   6.058   0.694   3.129 -0.0379  0.0886 -0.0060
18364W        W34173   7.069   1.574   2.655  0.1043  0.2907  0.0935
18365W        W34174  18.219   4.685   4.101  0.1428  0.2603  0.3389
18366W        W34175   0.320   9.135  12.736  0.0659  0.0910  0.0112
18367W        W34176  14.805  16.477  11.092 -0.1613 -0.3356 -0.1787
18368W        W34177  11.793  14.436  15.292 -0.0826  0.0096  0.1991
18369W        W34178  17.191   9.565   0.946 -0.1064  0.1518  0.0565
18370W        W34179  15.402  12.785   3.313 -0.1208 -0.1247 -0.0198
18371W        W34180  16.851  17.816  12.386  0.0693  0.0168  0.2142
18372W        W34181  11.353   0.851  10.144 -0.0895  0.2337  0.3338
18373W        W34182  16.887   8.057  11.518  0.1406  0.0734  0.2547
18374W        W34183   5.990  15.203  10.772  0.1525  0.1347 -0.3258
18375W        W34184   1.036   0.694  13.844  0.1105  0.1645 -0.1737
18376W        W34185  11.673  11.369  12.551  0.1135  0.1202 -0.2210
18377W        W34186  18.101  17.177  12.716 -0.0181  0.0571  0.1258
18378W        W34187   8.459   1.072   4.913 -0.3427 -0.1729  0.2178
18379W        W34188  11.953  11.428   3.401 -0.5021 -0.0575  0.2490
18380W        W34189  18.086   8.485   0.628 -0.0047  0.3141  0.0817
18381W        W34190  13.246  17.271  11.507 -0.0680 -0.0305  0.0153
18382W        W34191  17.401   1.217  12.818 -0.1084  0.0332 -0.0495
18383W        W34192  16.522   0.983  14.637  0.0487  0.1578  0.3529
18384W        W34193  10.478  13.294   0.540  0.0489  0.0051 -0.1349
18385W        W34194   5.780   2.534  15.145  0.1920  0.1156  0.1256
18386W        W34195  10.512   0.345  11.107 -0.0062 -0.0530 -0.2104
18387W        W34196  16.682   7.705  11.067  0.1168 -0.0618  0.1934
18388W        W34197   1.328   9.066   0.647  0.0956  0.1321 -0.2145
18389W        W34198  13.617   2.053  15.510 -0.1316  0.0253 -0.0266
18390W        W34199  18.146  14.933  10.887 -0.0125 -0.2000 -0.0010
18391W        W34200  17.940   1.863  12.481 -0.1477  0.2703  0.0545
18392W        W34201   8.542  15.892  13.984  0.2941 -0.1930  0.1568
18393W        W34202  18.008   9.008   0.545  0.1154 -0.2361 -0.0165
18394W        W34203  10.884   4.970  14.368  0.1424  0.0566  0.0069
18395W        W34204   6.962  14.894   4.433  0.0264  0.0345 -0.2886
18396W        W34205  12.387   4.256   3.078  0.2406  0.1093 -0.2052
18397W        W34206   9.000   3.976   0.465  0.0007  0.2665 -0.0843
18398W        W34207  10.179  11.617  12.034 -0.1336  0.0793 -0.1273
18399W        W34208  12.388  17.897  12.096  0.1463  0.0841  0.0694
18400W        W34209   9.919  12.902   2.771 -0.1285 -0.1860  0.1677
18401W        W34210  11.672  16.642   1.458  0.1719  0.2131  0.1706
18402W        W34211   2.591  14.987   5.969  0.1473 -0.1002 -0.4269
18403W        W34212   7.030  15.995  14.395  0.0785  0.2240  0.0213
18404W        W34213  17.279   9.508   4.955 -0.0559 -0.1666 -0.0369
18405W        W34214   5.548   0.472   4.713 -0.1414  0.0418  0.1584
18406W        W34215   4.935   8.285   1.490  0.1978  0.3832  0.2757
18407W        W34216   8.426   3.901   5.738 -0.0409  0.3111  0.3915
18408W        W34217   9.138   2.577   2.745  0.0664 -0.2265  0.1252
18409W        W34218  15.287  18.242  10.122  0.0026 -0.2365  0.1762
18410W        W34219  15.508   9.289   3.548 -0.3176 -0.0219 -0.1677
18411W        W34220  17.313   4.981   3.292 -0.0739 -0.2404  0.0326
18412W        W34221   6.669   1.294  11.517  0.0257 -0.0515  0.2927
18413W        W34222  14.877   5.502   2.517 -0.0138  0.1187  0.2318
18414W        W34223  17.796   9.767  12.327 -0.2112  0.2312 -0.2325
18415W        W34224   0.869  13.552  14.119 -0.2308  0.1537 -0.2704
18416W        W34225  13.160  12.148   3.444  0.0951 -0.1419  0.2564
18417W        W34226   6.242  14.183   5.319 -0.0287  0.0073 -0.3437
18418W        W34227   4.930   4.477   3.260 -0.0362  0.0746 -0.3112
18419W        W34228  18.038  12.360  14.337  0.0925 -0.3023  0.1907
18420W        W34229  14.923   2.699   4.021 -0.0892  0.0546  0.0391
18421W        W34230  15.402  15.234   3.351  0.1083  0.0310 -0.5236
18422W        W34231  12.973  17.283  12.466 -0.3175 -0.4428  0.0633
18423W        W34232   3.014   2.651   4.875  0.0419  0.0586  0.0807
18424W        W34233  11.101   0.012   9.975 -0.0682  0.0637  0.0583
18425W        W34234  13.338   4.431  12.816 -0.3354 -0.2550  0.1831
18426W        W34235   8.772  10.000   3.432 -0.1672  0.0036 -0.0325
18427W        W34236   8.773  17.307   0.088  0.1759  0.1209  0.0582
18428W        W34237  11.330   1.484   1.165  0.1402  0.1723 -0.3483
18429W        W34238   3.980   9.023   4.976 -0.3672  0.0964 -0.2044
18430W        W34239  12.425   0.672   0.691  0.0750 -0.0097 -0.1611
18431W        W34240   1.828  12.111   0.844  0.1331 -0.0115  0.1224
18432W        W34241  10.252  10.696   3.855 -0.1986  0.0882  0.1381
18433W        W34242  16.777  16.427  14.669 -0.2226  0.1028  0.1392
18434W        W34243  16.408   4.069  14.630  0.0369  0.0800 -0.1333
18435W        W34244   9.390   5.115  13.433 -0.0871 -0.2597 -0.1024
18436W        W34245  11.490   1.249   9.846 -0.0381 -0.0079  0.0825
18437W        W34246  12.985  11.216   3.650  0.3232 -0.1754 -0.1710
18438W        W34247   8.536   8.957  14.530  0.0328  0.0488 -0.1302
18439W        W34248  16.655   3.612  12.954  0.0038 -0.0762 -0.2017
18440W        W34249  10.397   2.473  13.211 -0.1268 -0.3399  0.3896
18441W        W34250   6.120  14.357  10.992  0.2434  0.2875 -0.0186
18442W        W34251   4.473   8.822  13.159 -0.0475  0.0815  0.1772
18443W        W34252  10.801  15.537  10.975 -0.2215  0.0960 -0.0912
18444W        W34253  17.812   9.764   0.298 -0.1381 -0.0727  0.1329
18445W        W34254   8.958  14.154   0.132 -0.2094 -0.0895 -0.6048
18446W        W34255  15.762   0.943  12.890  0.3283  0.0040 -0.0540
18447W        W34256   9.217   0.345   4.012  0.3067 -0.1559 -0.1526
18448W        W34257  10.552  16.089   6.042 -0.1074  0.0763 -0.1203
18449W        W34258  11.585  10.621   3.942  0.1346 -0.2097  0.1665
18450W        W34259   5.965   0.650  13.326 -0.0473  0.2330 -0.0502
18451W        W34260  14.185  13.806   1.670 -0.1483  0.1914  0.1564
18452W        W34261   5.320  14.565  13.963 -0.0319 -0.0529  0.0111
18453W        W34262   5.844  15.825  11.728  0.0384  0.0536 -0.0356
18454W        W34263   1.825   9.486   3.014 -0.1099  0.1519 -0.0915
18455W        W34264   8.793   3.739  13.331  0.1047  0.3434  0.3332
18456W        W34265  14.920   4.894  13.908  0.1918 -0.1717 -0.0519
18457W        W34266   5.892   4.319  13.867  0.2959 -0.2383 -0.2033
18458W        W34267   3.669  17.067   0.472  0.1397 -0.0248  0.2061
18459W        W34268   0.123   7.928   5.444 -0.0164 -0.2311  0.0300
18460W        W34269   7.282  11.267   4.592 -0.1582  0.0470  0.1419
18461W        W34270  15.588  13.750   1.468 -0.2800 -0.3821  0.0050
18462W        W34271  13.392  13.312  14.188  0.1238  0.4916  0.1572
18463W        W34272   7.937   9.550  12.078  0.0041 -0.1065 -0.1880
18464W        W34273  14.324  12.789   3.710  0.2152 -0.0214  0.1290
18465W        W34274   6.931   5.862  15.430  0.1363  0.2461  0.0661
18466W        W34275   6.142  14.064  15.089 -0.0017  0.1487 -0.0121
18467W        W34276   4.277  11.131  13.479  0.1522  0.2305  0.0052
18468W        W34277  10.155  16.281  10.426  0.0188  0.1418  0.4176
18469W        W34278  11.424  11.443   3.390 -0.2133  0.2613 -0.1057
18470W        W34279  17.205  15.396  10.805  0.2245  0.1158 -0.0705
18471W        W34280   0.977  17.012  10.457  0.3239 -0.1559 -0.4040
18472W        W34281   3.779  13.011  11.038 -0.2000  0.1916 -0.0374
18473W        W34282  16.968   0.175  15.833  0.1541 -0.0187  0.0215
18474W        W34283  14.750   6.185  12.703 -0.0429 -0.1158 -0.4239
18475W        W34284   6.078   3.237  12.705  0.0005  0.1802 -0.3443
18476W        W34285  18.407  17.340   3.387  0.0889 -0.0573 -0.3458
18477W        W34286   9.976  14.942  13.291 -0.0151  0.1739  0.0601
18478W        W34287   8.787   6.802   1.478 -0.2253 -0.3570 -0.3285
18479W        W34288   6.560  13.112  14.967 -0.1059  0.2124  0.1741
18480W        W34289   2.364   1.873   0.195 -0.0730 -0.2583 -0.3252
18481W        W34290   7.620   5.130  12.336 -0.1581  0.0847 -0.0729
18482W        W34291   6.453   4.726  13.262  0.0397  0.0766  0.0494
18483W        W34292   6.750   2.845  13.200 -0.0977  0.1280 -0.2350
18484W        W34293   4.592  10.654  12.847  0.1144  0.0045  0.1174
18485W        W34294   8.109  12.923  12.345  0.0473 -0.1418 -0.1860
18486W        W34295   5.933  10.830  15.244 -0.1515  0.0945 -0.2191
18487W        W34296  14.010   5.989   5.725 -0.0035  0.0955 -0.2983
18488W        W34297   7.282  11.717  11.705  0.1911 -0.1275 -0.1199
18489W        W34298   3.752  11.915  11.959 -0.0851 -0.0387 -0.0913
18490W        W34299   5.515  13.014  14.380 -0.1474 -0.1915  0.3425
18491W        W34300   6.163   9.621   0.112  0.0979 -0.0090  0.3261
18492W        W34301   6.394   5.529   3.760 -0.2580 -0.0767  0.3270
18493W        W34302  18.203   9.465  14.377  0.1278 -0.1081 -0.2919
18494W        W34303   4.001  18.331   0.038 -0.1518 -0.0164 -0.1366
18495W        W34304  13.265  13.465   3.242 -0.1126  0.2604 -0.0312
18496W        W34305   0.097  15.597  15.410 -0.2578  0.0684  0.3886
18497W        W34306   7.493   0.085  12.021  0.1219 -0.0685 -0.0957
18498W        W34307  11.813  10.861  12.527  0.2004 -0.2487 -0.2785
18499W        W34308   0.205   9.136  13.263 -0.0230  0.0341  0.1505
18500W        W34309  16.937   6.703   5.634 -0.0269 -0.0589 -0.2006
18501W        W34310  13.746   2.626   5.318 -0.4016 -0.0994  0.1273
18502W        W34311  14.095  17.204   0.561 -0.1321 -0.2082 -0.1707
18503W        W34312   7.388  11.119   2.736  0.0045 -0.0098 -0.1355
18504W        W34313  13.969   6.339  14.995  0.0931  0.2392  0.0807
18505W        W34314   0.844  11.783  13.166 -0.1293  0.0744  0.0970
18506W        W34315   1.745   1.228  13.365 -0.0534 -0.2165 -0.1404
18507W        W34316   9.214  14.347   0.610  0.2317 -0.1380 -0.0445
18508W        W34317   2.307  14.845   2.324 -0.0447  0.0377 -0.5487
18509W        W34318   4.120   0.195  13.779 -0.0404 -0.0016  0.0069
18510W        W34319  13.934  11.126   3.546 -0.0019  0.0580  0.0982
18511W        W34320   9.795  14.628   4.014 -0.2060 -0.2150 -0.4413
18512W        W34321   8.621  11.423   5.535  0.0684 -0.1457  0.1791
18513W        W34322   3.505  17.947  11.248  0.3739 -0.1654 -0.1728
18514W        W34323  11.606  18.146  11.065 -0.0564 -0.0689  0.1068
18515W        W34324  18.242   1.146  13.464 -0.3157 -0.1830  0.0701
18516W        W34325   6.461  13.756   3.046  0.0698 -0.0052  0.0849
18517W        W34326  13.188  10.323   3.147  0.1737 -0.0365  0.0755
18518W        W34327   0.733   9.730   1.454  0.0985  0.2693 -0.1251
18519W        W34328  11.791   6.278   4.515 -0.1923 -0.0539  0.0206
18520W        W34329   3.907  13.867   3.851 -0.0368  0.0093  0.1386
18521W        W34330   1.506  15.311  15.017  0.0440  0.1381 -0.2847
18522W        W34331   0.407  11.307  12.759  0.1471  0.0566  0.1095
18523W        W34332   5.666  11.895  12.119  0.1278  0.1074  0.5276
18524W        W34333   1.948  11.013   5.148 -0.1081  0.0849 -0.1816
18525W        W34334  11.432  13.143  14.298  0.0130 -0.0203 -0.2192
18526W        W34335   9.062  14.376  10.706 -0.1113 -0.0909  0.0109
18527W        W34336  10.825  17.110  14.968  0.1778  0.0052 -0.2770
18528W        W34337  10.655   0.056   0.459 -0.0090 -0.0717 -0.0607
18529W        W34338   1.535  11.539  11.385  0.2629  0.1824 -0.0471
18530W        W34339   7.172   5.458   1.329  0.0932  0.0194  0.2532
18531W        W34340   1.870  15.553  13.536 -0.1245  0.0992  0.3872
18532W        W34341  16.058   1.752  11.790 -0.3730  0.0379 -0.1651
18533W        W34342  10.159  10.662   4.427  0.2337  0.1872  0.1454
18534W        W34343   8.279   1.029   0.050 -0.0421 -0.0685 -0.1162
18535W        W34344  13.686  11.700  14.263 -0.2079 -0.1172 -0.1231
18536W        W34345   1.603  15.436   5.594 -0.2944 -0.3649 -0.2554
18537W        W34346  10.957   3.906  13.643  0.2780 -0.3262 -0.2092
18538W        W34347   6.763   2.129   3.738 -0.2912  0.1635  0.1147
18539W        W34348   9.048  16.567  15.649 -0.1053 -0.0675 -0.5540
18540W        W34349   9.823   3.764  11.037 -0.3085 -0.0473  0.0086
18541W        W34350  18.028  16.304   5.209  0.0335 -0.3183 -0.1982
18542W        W34351  10.905  13.622   0.713  0.1247  0.3519  0.0903
18543W        W34352   2.939   2.789   5.833 -0.0049  0.2378 -0.2323
18544W        W34353  12.017  16.763   5.767 -0.1711  0.1171 -0.2342
18545W        W34354   8.029  11.358   3.808 -0.0789 -0.1388 -0.2798
18546W        W34355   8.798   7.781   2.362 -0.2139  0.3472 -0.2290
18547W        W34356  16.158   3.067  11.179 -0.1996  0.1746 -0.1957
18548W        W34357  11.985   4.031   2.203  0.3421 -0.0644 -0.1771
18549W        W34358   0.341   9.612   3.447 -0.0342 -0.0735 -0.1409
18550W        W34359   1.857   9.690  15.851 -0.0989  0.0054  0.2221
18551W        W34360   0.096   0.231  15.199 -0.3828 -0.2961  0.0182
18552W        W34361   1.386   8.002   1.361  0.4831  0.0443 -0.2274
18553W        W34362   3.692   5.763   5.762  0.3230  0.0703 -0.1913
18554W        W34363   2.052   0.264  11.188  0.0744 -0.2065  0.3725
18555W        W34364   1.475   4.628   1.973 -0.0491  0.0481  0.2441
18556W        W34365   8.715  18.185  14.124  0.0857  0.1051 -0.0867
18557W        W34366  10.506   2.693  11.176  0.0191  0.1667  0.0486
18558W        W34367  18.254  17.495   4.743 -0.2122 -0.1531  0.1206
18559W        W34368   3.688   5.787  11.355  0.0148  0.0609  0.1712
18560W        W34369   2.159  10.551   1.612  0.0508  0.0318 -0.2531
18561W        W34370  18.134   1.071  14.089 -0.1145 -0.1931 -0.0162
18562W        W34371   6.346  17.199  15.279 -0.0303 -0.2145 -0.0439
18563W        W34372  12.180  15.058   1.563  0.2191 -0.0955  0.0698
18564W        W34373   9.716   0.355   3.761  0.1862  0.1644 -0.2031
18565W        W34374  11.571   9.074  14.100 -0.0189  0.1573 -0.0330
18566W        W34375  14.768   1.686  13.802 -0.0805 -0.1070 -0.1470
18567W        W34376   0.498   4.879   3.767  0.0951  0.0488  0.1482
18568W        W34377  14.785  11.633  10.881  0.0350  0.3211  0.0528
18569W        W34378  16.367   5.176  14.696  0.2470 -0.2545 -0.0529
18570W        W34379  17.404   5.030  14.348  0.2734 -0.1196  0.2442
18571W        W34380   8.823  14.166   1.555  0.0835 -0.4407 -0.1506
18572W        W34381  16.986  12.552  13.076 -0.1079  0.3020 -0.0394
18573W        W34382  11.191   3.524   3.009 -0.1302  0.0022  0.3718
18574W        W34383  11.763  14.152  14.312  0.0019  0.0117  0.4334
18575W        W34384   6.751  11.639  12.338  0.0074 -0.0104 -0.2563
18576W        W34385   4.347  17.354   2.399  0.2793  0.1378 -0.0447
18577W        W34386  12.676  17.917  15.274 -0.1085 -0.1832  0.2415
18578W        W34387  18.439   0.703   5.156  0.0390  0.0664  0.2050
18579W        W34388  13.787   4.395   4.799 -0.0050  0.0286 -0.0833
18580W        W34389  15.105  14.456  12.208  0.0419  0.0046 -0.0208
18581W        W34390  13.737   5.895  15.168 -0.0774  0.1713  0.2321
18582W        W34391   6.771   7.731   4.393 -0.0594  0.0464  0.0734
18583W        W34392   5.514   3.640   2.260  0.0102 -0.0653 -0.0186
18584W        W34393   1.295   0.980  12.586 -0.1592 -0.3233  0.2909
18585W        W34394  17.028  10.086  13.783 -0.2039  0.1959 -0.1876
18586W        W34395   7.340   3.553   3.362 -0.1176  0.2501 -0.0108
18587W        W34396   2.327  14.132   3.549 -0.0652  0.0637 -0.2115
18588W        W34397  18.448  16.812   3.696 -0.4629 -0.0548  0.0662
18589W        W34398   8.172   5.289  15.298  0.1369 -0.0312  0.1994
18590W        W34399   7.612   6.505  15.835 -0.1542  0.2553 -0.1661
18591W        W34400   4.562  12.473  13.126  0.2111 -0.0124  0.1897
18592W        W34401   5.065   1.600   4.250  0.0954  0.0265 -0.2195
18593W        W34402  16.356   3.136   3.541  0.1581  0.0724  0.2043
18594W        W34403  14.410  12.804  13.927 -0.2175 -0.2408  0.4845
18595W        W34404  10.375  13.594  11.096  0.0835  0.2436 -0.2631
18596W        W34405   1.054  14.500   2.736 -0.1674  0.0584 -0.0445
18597W        W34406   3.796   7.961  12.990 -0.2266 -0.3831  0.6521
18598W        W34407  15.044   7.998   0.702  0.2810 -0.0457 -0.0166
18599W        W34408  15.770  15.727  14.534 -0.3403 -0.0676  0.1689
18600W        W34409  14.112  18.146   1.751  0.0975  0.0446 -0.2587
18601W        W34410  16.160   2.159  11.530  0.1215  0.5781  0.1459
18602W        W34411   7.459   0.574  14.555 -0.1360  0.0177  0.1190
18603W        W34412   0.590   3.127   4.853  0.0001 -0.1942  0.2601
18604W        W34413   6.197  16.451  12.516  0.4555  0.0092  0.2314
18605W        W34414  13.443   9.935  10.218 -0.0136 -0.2060  0.2301
18606W        W34415  15.646   8.130   3.214 -0.3656 -0.1742  0.1439
18607W        W34416  11.301   0.906   2.947 -0.0876  0.0609  0.0187
18608W        W34417   2.218   1.822   3.180 -0.0787 -0.0310  0.0200
18609W        W34418  16.261   9.727  14.412 -0.3255  0.0600  0.1154
18610W        W34419   0.002   8.221   5.060  0.0585 -0.3121  0.0272
18611W        W34420   7.743   1.457  14.127  0.0718  0.2480  0.1241
18612W        W34421  17.773   3.055  14.228  0.1224  0.0155 -0.0789
18613W        W34422  16.351   7.233  13.499  0.1804 -0.3546 -0.2491
18614W        W34423   0.109   9.881   2.904  0.1145 -0.0701 -0.2728
18615W        W34424   9.346  12.929   3.338 -0.1071  0.0492 -0.1113
18616W        W34425  17.460   9.041  11.856 -0.1530  0.0161  0.0484
18617W        W34426   5.599   9.535  15.766 -0.3026  0.1045  0.0063
18618W        W34427  17.285   6.226   4.180  0.0705 -0.2254 -0.0461
18619W        W34428   8.467   3.394   4.062  0.1928 -0.0470  0.0748
18620W        W34429   5.089   7.522   4.818 -0.1322  0.0300 -0.1655
18621W        W34430  16.440  13.479  11.658 -0.0374  0.2816 -0.1613
18622W        W34431   3.816  17.358   1.390  0.0273 -0.0250 -0.1322
18623W        W34432  16.040   5.813   3.083 -0.0458  0.0985  0.1245
18624W        W34433   8.185  16.102   4.234 -0.1293 -0.3517 -0.2197
18625W        W34434   1.763   9.243  12.182  0.1876  0.1666 -0.0440
18626W        W34435  18.314  11.864  13.111  0.1244  0.1297  0.1295
18627W        W34436  16.359  14.358  12.998  0.0642  0.3495 -0.0507
18628W        W34437   3.284   2.916  11.668 -0.2191 -0.0983 -0.1301
18629W        W34438   0.876   9.144   0.421 -0.1149  0.1761  0.1168
18630W        W34439  13.193   7.480   0.433 -0.2555 -0.2144 -0.1037
18631W        W34440  16.034  13.658   2.650  0.1459  0.0364  0.3978
18632W        W34441   5.943  18.166  12.559  0.1165  0.1591  0.2836
18633W        W34442  11.988  11.890   4.754 -0.0197  0.1028  0.0523
18634W        W34443   5.887  15.718   1.254 -0.0863  0.0639  0.0313
18635W        W34444  14.693   4.443  15.132 -0.1738 -0.0669 -0.1177
18636W        W34445   8.144   6.359   3.447 -0.0814  0.0610 -0.0675
18637W        W34446  15.066  17.911  14.344  0.1660  0.2431 -0.0359
18638W        W34447  17.127  17.520   0.572  0.0383  0.0672 -0.1909
18639W        W34448   8.200  15.282  13.436 -0.3403  0.0405  0.2239
18640W        W34449  13.499  10.853   4.338  0.2019 -0.0969 -0.3258
18641W        W34450   6.496   3.038   5.875 -0.4162  0.0121  0.0339
18642W        W34451  10.348   8.460  13.577  0.2072 -0.0386  0.0799
18643W        W34452  13.881  18.432   0.755  0.3399  0.2148 -0.2957
18644W        W34453   0.800   7.826  15.484  0.0868 -0.1851 -0.1104
18645W        W34454   5.104   0.976   3.977 -0.1707  0.0378 -0.0173
18646W        W34455  12.573   6.901   1.515  0.2439  0.0905 -0.1872
18647W        W34456  16.786   4.615  15.678 -0.2507  0.1627 -0.0518
18648W        W34457  16.421  18.110  14.126  0.2785 -0.0382 -0.2291
18649W        W34458  12.297   9.418   0.297  0.0246  0.0939  0.1464
18650W        W34459   4.015  17.371   3.338  0.2723 -0.2560 -0.0045
18651W        W34460  18.304   6.052   3.870  0.3849 -0.1280  0.0290
18652W        W34461  10.111  14.996  14.192 -0.2772  0.0887  0.1556
18653W        W34462   8.748   4.494   0.282 -0.1407 -0.3475 -0.3380
18654W        W34463  11.878  16.241   5.907  0.0154  0.0224  0.1518
18655W        W34464  11.303  14.883   0.466  0.0979  0.0691  0.0678
18656W        W34465  17.549  13.302   3.788  0.2496  0.1945 -0.3143
18657W        W34466  11.480  16.768  12.532 -0.0837  0.0756 -0.3752
18658W        W34467  15.045  10.489  12.035 -0.0587  0.0800 -0.0803
18659W        W34468  11.901   1.832  11.664 -0.1679 -0.2912 -0.1420
18660W        W34469   8.457   4.295  11.358  0.0088 -0.2999  0.0830
18661W        W34470  16.381  10.967   6.237 -0.0997 -0.1337  0.2042
18662W        W34471   2.549   5.071  10.616  0.0783  0.0598  0.0675
18663W        W34472  10.217  13.236   3.233 -0.1492 -0.0222  0.3141
18664W        W34473  16.511   7.178   2.248  0.2998 -0.0349  0.0303
18665W        W34474   8.415   9.287   3.274 -0.0614 -0.1403  0.0579
18666W        W34475   8.065   2.006  12.921 -0.2704  0.2104 -0.1550
18667W        W34476  17.791  14.479  15.351  0.0636 -0.1690  0.0240
18668W        W34477   2.993  12.771   2.114 -0.0468  0.1012  0.1365
18669W        W34478  12.325  17.538  12.920  0.1520  0.0935  0.1748
18670W        W34479  13.335  16.441  13.164  0.0590  0.0585 -0.5575
18671W        W34480   4.095  18.084   5.060 -0.1778  0.1618  0.0467
18672W        W34481   4.318   6.974  14.028  0.3464  0.2686 -0.1907
18673W        W34482  12.204  17.578  12.408 -0.0416  0.2129 -0.2115
18674W        W34483   1.511   9.226   0.144 -0.2172 -0.0394 -0.1923
18675W        W34484  18.071   0.032   0.971  0.3189  0.0282  0.0196
18676W        W34485  12.867  14.640   3.749 -0.1608 -0.0982 -0.2873
18677W        W34486  15.103  15.119  14.699  0.2708 -0.2509 -0.2928
18678W        W34487  17.558  14.741  10.109  0.1388  0.2637 -0.0900
18679W        W34488  13.805   5.141   4.426  0.1159  0.1833  0.2507
18680W        W34489   8.957   0.721  15.089  0.0679  0.2825 -0.0842
18681W        W34490  14.865   6.641  14.586  0.0553 -0.1780  0.1924
18682W        W34491  12.912  16.239  15.295  0.2421 -0.3198 -0.2570
18683W        W34492   1.836  14.692   2.017  0.1766  0.0150 -0.1305
18684W        W34493   6.434   9.547   4.921 -0.0504  0.0891  0.0710
18685W        W34494   5.579   1.494  14.167  0.1165  0.0530  0.0605
18686W        W34495  11.159  11.181   3.955  0.1219 -0.1215  0.0038
18687W        W34496  15.647   3.890  12.842  0.1111 -0.2824  0.0203
18688W        W34497  15.115   2.546  14.161  0.2031  0.3067 -0.1493
18689W        W34498  16.349  17.225  13.641 -0.4158 -0.0821  0.0066
18690W        W34499   7.541  17.784  12.358  0.0840  0.3454  0.4546
18691W        W34500  16.229   3.850  12.867  0.1343 -0.1583  0.0386
18692W        W34501  18.457   5.579   3.891  0.1877  0.1027  0.0499
18693W        W34502   2.295   4.173  15.832 -0.1681 -0.0319 -0.2899
18694W        W34503  13.587   0.013  13.918 -0.0872  0.0405  0.0155
18695W        W34504   1.639   5.362   0.580  0.0876  0.1393  0.2231
18696W        W34505  14.438   4.580   4.977  0.0835  0.4345  0.0185
18697W        W34506   8.814  11.396  15.250  0.2706  0.1366  0.0097
18698W        W34507   8.522  13.255  13.526  0.1486  0.0336  0.1316
18699W        W34508  16.726   7.597   2.069 -0.1964  0.1469 -0.1603
18700W        W34509  17.646   5.526   1.135  0.0934 -0.0915  0.1063
18701W        W34510   8.912   9.480   1.593  0.2519 -0.2567 -0.0269
18702W        W34511   4.580   8.309  14.535  0.3192  0.1530 -0.1344
18703W        W34512  13.793  13.373   3.927  0.1171 -0.2052  0.0481
18704W        W34513   0.288   5.654   0.741 -0.0307  0.2203 -0.2463
18705W        W34514  13.873   0.752  13.952 -0.1928 -0.0899 -0.1649
18706W        W34515   5.011  16.871  12.439  0.0390 -0.1075 -0.1825
18707W        W34516   9.819   2.746  12.611 -0.2409 -0.1175  0.0500
18708W        W34517   3.372   9.689   0.916 -0.0317  0.0378 -0.2052
18709W        W34518  15.053  10.638   5.333 -0.2242  0.1640  0.0404
18710W        W34519  16.811   9.737  12.499 -0.3524 -0.1470 -0.3426
18711W        W34520  15.502   1.971  15.505 -0.3890 -0.0135  0.2120
18712W        W34521   0.915   3.213  15.053 -0.1425  0.0572 -0.0894
18713W        W34522  14.573   1.929  11.511  0.2514 -0.5036  0.0805
18714W        W34523  10.741  17.840   3.825 -0.0100  0.0661 -0.0752
18715W        W34524   5.788   0.303  14.434  0.2133  0.1332  0.0544
18716W        W34525  16.327  15.294   1.025  0.2599 -0.1905 -0.1364
18717W        W34526  13.684   1.266  11.202  0.2356  0.0102 -0.1202
18718W        W34527   8.149   1.493  11.568  0.0813 -0.2627 -0.2291
18719W        W34528   8.608  10.585   5.433  0.1403  0.0826  0.2155
18720W        W34529  12.719  12.627  12.738 -0.2693 -0.1126 -0.2985
18721W        W34530  11.659  15.661   0.395 -0.2565 -0.2817 -0.3821
18722W        W34531   8.002   4.200  15.301  0.1542  0.0410 -0.0991
18723W        W34532  17.828  13.362  10.841  0.2268  0.1406 -0.1267
18724W        W34533  18.233  11.541   3.924 -0.0444 -0.1592  0.2829
18725W        W34534   6.174  14.575   4.285 -0.0388  0.1499  0.2069
18726W        W34535  13.534  12.959  11.801 -0.0947 -0.0948  0.1639
18727W        W34536   4.294  12.124   1.754  0.1649 -0.0176 -0.2669
18728W        W34537   1.618  14.972   0.619  0.0302 -0.0606 -0.0365
18729W        W34538   4.915   5.627   3.179 -0.0195 -0.2281  0.2654
18730W        W34539  12.577   9.922   4.676 -0.1586  0.1720 -0.0291
18731W        W34540  11.130   2.172   4.121 -0.3088  0.4065  0.1304
18732W        W34541   8.259  17.217   4.410 -0.1358  0.0218 -0.1114
18733W        W34542  15.043   1.299  13.509 -0.3129 -0.1358 -0.2059
18734W        W34543  17.899   5.906  14.532 -0.1400 -0.2538 -0.0596
18735W        W34544   1.499  11.742   0.227 -0.2142 -0.0002  0.3769
18736W        W34545  14.086   3.035  13.901  0.0633  0.2024 -0.3437
18737W        W34546   5.553   8.288   3.860 -0.2751 -0.0494  0.2546
18738W        W34547  16.255   5.883   1.494  0.1865 -0.0645 -0.0338
18739W        W34548  18.430  11.764   4.902 -0.0436  0.2062 -0.0354
18740W        W34549   5.904  13.692   3.859 -0.0519 -0.2178  0.0542
18741W        W34550   3.396   3.510   3.980  0.0559 -0.1475  0.1269
18742W        W34551  17.240  13.419   0.981  0.1398  0.0063  0.5337
18743W        W34552  14.915  18.008  13.481  0.1029  0.1434 -0.0869
18744W        W34553  13.228   8.784   5.144 -0.0030 -0.1699 -0.0940
18745W        W34554  13.246  18.075   5.103  0.0536 -0.1670 -0.2540
18746W        W34555   6.756   8.596  12.881  0.2732 -0.2626  0.1382
18747W        W34556  11.881  17.926  13.820  0.4624  0.2564 -0.1769
18748W        W34557  10.108   0.698   5.191  0.0254  0.0302 -0.3498
18749W        W34558   9.429  16.806   0.264  0.0061  0.0281 -0.0984
18750W        W34559   0.085   6.916  15.827 -0.0430 -0.0014  0.2554
18751W        W34560  12.691   8.499   2.650  0.0752  0.2082  0.2028
18752W        W34561  10.560   9.737   3.696 -0.0038  0.1934 -0.1787
18753W        W34562   2.840   1.819   9.938 -0.2204  0.2110 -0.1722
18754W        W34563  16.512   6.111   4.492  0.0700  0.2934 -0.3053
18755W        W34564   0.769   4.020  12.895 -0.1416  0.2150 -0.2690
18756W        W34565   6.749  16.506   5.420 -0.0035  0.2837  0.0728
18757W        W34566  15.212   9.203   3.176 -0.0622 -0.1524 -0.2585
18758W        W34567   7.408  16.530   2.483 -0.0421  0.0807 -0.1626
18759W        W34568   2.266   5.436  12.995  0.0587 -0.1085  0.1269
18760W        W34569   1.764   8.732   3.157  0.0031  0.0673 -0.0689
18761W        W34570  17.357   4.591  11.617  0.1210 -0.1894  0.4500
18762W        W34571   8.508   0.340  11.939 -0.1040  0.0243 -0.3411
18763W        W34572   9.024   0.536   4.469  0.1377 -0.3633  0.1185
18764W        W34573  10.026  13.204   4.626 -0.1352 -0.0896 -0.0578
18765W        W34574   7.538  11.251  12.399 -0.1704  0.1640 -0.2801
18766W        W34575   2.541   8.076  15.212  0.1690  0.1608  0.0100
18767W        W34576   3.023  12.585  15.829  0.2584  0.1595 -0.3378
18768W        W34577  15.944   9.742  11.056 -0.0183  0.0337  0.1262
18769W        W34578  16.387  15.018  14.390  0.0343 -0.1303  0.0513
18770W        W34579   5.056  17.272  12.087  0.2191  0.0622  0.1036
18771W        W34580  12.150   6.233   2.747 -0.4269  0.2418  0.0230
18772W        W34581  11.920   7.090  12.093 -0.0714  0.0562  0.1796
18773W        W34582   8.310   3.295  11.270  0.0024 -0.2726 -0.3201
18774W        W34583  18.364   8.163  14.002 -0.0705 -0.0255 -0.1214
18775W        W34584   5.958  14.395  15.850 -0.0706 -0.2378 -0.0822
18776W        W34585  17.662   5.798   5.531  0.5074 -0.0462 -0.0201
18777W        W34586   4.761   7.495   0.407 -0.1977 -0.3001  0.0236
18778W        W34587  10.907  16.047   5.730 -0.1488  0.2524 -0.2371
18779W        W34588  14.029   1.622  15.446  0.2304 -0.3115 -0.0901
18780W        W34589   5.024  18.095   4.953 -0.1376 -0.0190  0.2569
18781W        W34590  12.519  17.093  12.555 -0.1169 -0.1346 -0.1102
18782W        W34591   6.800   8.712  11.077  0.1059 -0.1214 -0.1384
18783W        W34592   5.483  17.473  15.571 -0.4214  0.1845  0.1205
18784W        W34593   3.906   6.076  14.016  0.1962  0.0989 -0.1430
18785W        W34594   3.204  15.828   3.895 -0.0670  0.1501  0.0895
18786W        W34595   0.732  17.084  10.017  0.0551 -0.3343  0.1875
18787W        W34596  15.865   9.856   0.167 -0.0647 -0.3418 -0.0976
18788W        W34597   3.023  10.009  15.160  0.2425 -0.1068 -0.0210
18789W        W34598  17.558   8.463   4.144 -0.0330  0.0645 -0.0406
18790W        W34599  13.315   1.324  14.164 -0.1385 -0.0070  0.0013
18791W        W34600  11.980   5.811  10.749  0.0173 -0.0894 -0.0894
18792W        W34601   7.765   3.633  13.995  0.2262  0.0224  0.2270
18793W        W34602   8.616   6.353   1.575 -0.2531 -0.1880 -0.0331
18794W        W34603   5.078   8.801   2.922  0.2205  0.2475  0.3098
18795W        W34604  15.659  10.872   0.281  0.0953 -0.2227 -0.2628
18796W        W34605  11.509   5.002   3.930  0.2508  0.2752 -0.1074
18797W        W34606  12.851  10.439   1.717  0.0555  0.1079 -0.0848
18798W        W34607  15.182  12.159   0.847 -0.3098 -0.3371  0.1721
18799W        W34608   9.916   7.336   2.563 -0.0966 -0.1462 -0.0780
18800W        W34609  10.236  18.252   1.730 -0.1788 -0.2134 -0.2923
18801W        W34610   8.167   4.492  13.502 -0.0752 -0.1184 -0.0811
18802W        W34611  11.947   5.879  13.942  0.1623  0.0617 -0.2631
18803W        W34612  14.812  11.198   4.567  0.3654 -0.1345  0.1239
18804W        W34613   4.814   6.502  11.983  0.1160  0.1914  0.1305
18805W        W34614  17.626  11.286   2.424  0.0478 -0.1806 -0.2825
18806W        W34615  13.550   6.965  13.939  0.2270 -0.3447  0.1384
18807W        W34616   3.667   5.936   1.522 -0.2514  0.0497 -0.0512
18808W        W34617  14.856   5.678   5.610 -0.1942  0.1432  0.0164
18809W        W34618   4.599  12.792   4.626 -0.1523  0.2638  0.0042
18810W        W34619   6.753  11.616  11.756 -0.0990 -0.0240  0.2755
18811W        W34620  16.452   1.974   3.074  0.0329  0.1679 -0.3877
18812W        W34621  16.535   9.297  11.613  0.3310 -0.1364 -0.0269
18813W        W34622  17.947   6.279   4.216  0.1823  0.0573 -0.3253
18814W        W34623  14.064  15.307   0.915  0.0613  0.2192  0.1286
18815W        W34624  14.452  16.939   2.484 -0.0305  0.0307 -0.0543
18816W        W34625  10.279   2.006   2.657  0.1144 -0.1385 -0.1831
18817W        W34626   2.374   0.051  14.989  0.0257 -0.3937  0.1273
18818W        W34627  15.049   8.115  14.453 -0.2213 -0.0850 -0.3165
18819W        W34628  11.979  14.581  11.984 -0.0334 -0.0569 -0.3891
18820W        W34629   6.691   3.725   3.162  0.1784 -0.0310  0.1404
18821W        W34630  15.918   4.464   3.244 -0.1535 -0.1323 -0.0534
18822W        W34631  14.851   3.042   2.163  0.1437  0.0689 -0.1128
18823W        W34632   9.797   8.999  14.984  0.1105 -0.2954 -0.0179
18824W        W34633   0.474   5.113  11.993 -0.1431 -0.0283  0.1254
18825W        W34634  13.246  12.325  10.622 -0.0555  0.0579 -0.0709
18826W        W34635  15.954   0.327  13.744  0.0631  0.1105  0.2721
18827W        W34636  16.991  11.683  12.043 -0.2143 -0.0015 -0.0475
18828W        W34637   0.597  16.630   3.105  0.0404 -0.0701 -0.0080
18829W        W34638   8.688   3.656  11.979  0.1232  0.0448  0.2590
18830W        W34639   0.035   6.397  15.839  0.1867  0.0428 -0.1817
18831W        W34640  14.559   0.902   3.410 -0.0706 -0.2438  0.0968
18832W        W34641   5.021  17.454   2.041  0.0988 -0.1425 -0.3174
18833W        W34642   9.943  14.337  11.224 -0.3354  0.0821  0.0160
18834W        W34643  10.013   9.275  14.662 -0.1343 -0.2284  0.2036
18835W        W34644   6.808  18.286  11.349  0.2137  0.0945  0.2528
18836W        W34645   5.488   2.154   0.059 -0.1985  0.0887  0.0571
18837W        W34646  17.792   4.346   0.018  0.0894  0.1660 -0.1151
18838W        W34647   0.757   0.478  11.878 -0.0477 -0.1513 -0.0433
18839W        W34648   4.873  14.391  12.171  0.2451  0.2827  0.4442
18840W        W34649  18.404   8.881   5.512  0.2405 -0.1268  0.2292
18841W        W34650  11.074   7.673   3.020  0.3098  0.0514 -0.0080
18842W        W34651   4.415   9.657  13.350 -0.1779 -0.1259 -0.3044
18843W        W34652   3.872   9.785   1.105  0.3508 -0.1020  0.1055
18844W        W34653   5.354   1.673  11.644 -0.1028  0.0112  0.1443
18845W        W34654  11.858   3.797  13.816  0.0891  0.0068 -0.0825
18846W        W34655  13.003  10.308  12.453 -0.1974 -0.0733 -0.1312
18847W        W34656  11.937  15.874   4.385  0.2488  0.0764  0.2738
18848W        W34657   9.902   4.253  10.208  0.2058  0.1498 -0.1725
18849W        W34658   3.763  13.481  11.859 -0.3281  0.1021 -0.3468
18850W        W34659  13.439   4.883   1.776  0.0114  0.1428  0.0535
18851W        W34660   8.506   8.728  15.442 -0.2580  0.3984 -0.0088
18852W        W34661  14.138  11.112   5.433  0.1880 -0.0631 -0.0875
18853W        W34662   6.202  16.922  10.385  0.2583  0.2505  0.3892
18854W        W34663   6.199   7.194  10.671 -0.1275  0.0322 -0.1060
18855W        W34664  13.755   8.228  15.074  0.0112  0.1137 -0.1303
18856W        W34665  13.118  15.814   4.952  0.0379  0.2657  0.2029
18857W        W34666   2.662  18.198  15.312  0.0051  0.0852  0.2059
18858W        W34667   4.757   4.521  14.308  0.3161 -0.2122 -0.0511
18859W        W34668   6.603  17.657  14.691 -0.2325 -0.0191  0.3741
18860W        W34669  10.575   5.567   0.631  0.2738  0.0711  0.0482
18861W        W34670  16.399   2.891   0.188  0.0034  0.0584  0.1470
18862W        W34671  11.868   4.476  11.466  0.0421  0.1845 -0.0475
18863W        W34672  12.666  12.397   4.570  0.1234  0.3708  0.4310
18864W        W34673   9.922   5.320   4.639  0.2127 -0.2372  0.1661
18865W        W34674   5.947   9.580  14.860  0.1901 -0.0602 -0.4081
18866W        W34675   7.989  13.268   0.274 -0.1860 -0.0533  0.2111
18867W        W34676  12.319  10.340   1.762 -0.1773 -0.0553  0.1271
18868W        W34677   2.668  16.876  13.077 -0.0030 -0.1314 -0.0700
18869W        W34678   5.920   8.386   2.645 -0.0589  0.1483  0.2721
18870W        W34679  13.814   6.554   2.341  0.2307  0.0081  0.1185
18871W        W34680   5.234   9.225  14.977 -0.1308  0.0390 -0.2779
18872W        W34681   4.549   5.464   5.209  0.2141  0.1137 -0.1779
18873W        W34682  14.637  11.564   2.683  0.3163  0.1514 -0.0191
18874W        W34683  13.540   5.826   3.934 -0.0675 -0.0563 -0.2128
18875W        W34684   4.247  12.918   3.295  0.2065  0.1198 -0.1260
18876W        W34685  18.356   3.996  13.529 -0.1322  0.1224  0.1449
18877W        W34686   8.408   1.798   1.343 -0.0616 -0.0892 -0.1904
18878W        W34687   4.232   6.907   0.916  0.0168 -0.0345 -0.1509
18879W        W34688  11.869  17.601  14.182  0.3754  0.1792 -0.0801
18880W        W34689   9.567   3.274  15.214  0.0017  0.4095  0.3583
18881W        W34690  14.790   2.291  14.671 -0.2069  0.2430  0.2294
18882W        W34691  17.552   3.040  10.242 -0.1303  0.1456  0.1584
18883W        W34692  11.534  10.665   4.450  0.0719 -0.0477 -0.1625
18884W        W34693  17.118  17.244  11.918  0.1104  0.1904  0.1909
18885W        W34694  14.963  11.668  10.383 -0.0327  0.1077 -0.2969
18886W        W34695   5.311  11.389  10.871  0.1867  0.0757 -0.1135
18887W        W34696   7.319  14.299  12.344 -0.2652 -0.1954  0.0526
18888W        W34697  11.428  12.645   6.075 -0.2241  0.1008 -0.0165
18889W        W34698   0.803   5.202   1.731 -0.2714  0.0555  0.0239
18890W        W34699  13.551   7.974   4.607  0.0732  0.2393  0.1560
18891W        W34700  14.502   5.102  13.843  0.3879 -0.0117 -0.2605
18892W        W34701  15.041   1.185  12.504 -0.0903  0.0662 -0.4740
18893W        W34702   0.676   4.575  12.310  0.1203 -0.1176 -0.1615
18894W        W34703   1.144  17.483   3.748 -0.0928  0.0914 -0.1336
18895W        W34704   2.336   9.864   0.276 -0.4356  0.0075  0.3665
18896W        W34705  16.395   3.516  14.956 -0.0140 -0.1795  0.1175
18897W        W34706  16.522   3.669   5.491  0.2494  0.1052  0.0069
18898W        W34707  16.491   5.380   5.431  0.0982  0.3183 -0.0487
18899W        W34708  10.691   2.859   0.786  0.3160 -0.2654 -0.2605
18900W        W34709   0.450  10.742   3.727  0.0740 -0.3470  0.1370
18901W        W34710   0.134  18.263  10.223 -0.1845  0.0298 -0.0896
18902W        W34711  16.064   9.979   3.561  0.1605  0.1307 -0.1225
18903W        W34712  16.861   9.534  13.958 -0.0846  0.3155 -0.0819
18904W        W34713   6.300  17.424   5.109 -0.1318  0.0775  0.0702
18905W        W34714   8.925  14.479  14.199  0.0547 -0.1505  0.1200
18906W        W34715   1.671   0.531  12.662 -0.3238  0.1463  0.0375
18907W        W34716  10.197   0.768  15.651 -0.0372 -0.0675  0.3332
18908W        W34717   5.196   5.236  14.031 -0.1231  0.1008 -0.1265
18909W        W34718  14.266  17.052   0.078 -0.0285 -0.1209 -0.3153
18910W        W34719   7.431   4.539   2.422 -0.1003 -0.0703  0.1463
18911W        W34720  16.948  18.364   3.492  0.0938  0.3932 -0.2069
18912W        W34721   3.654  15.943   2.135 -0.1862 -0.2126 -0.2412
18913W        W34722  16.383  13.592  12.152 -0.2240  0.0427 -0.2012
18914W        W34723   9.247  11.143  15.534  0.1224 -0.0700 -0.1558
18915W        W34724   8.269   9.371  15.315 -0.2284 -0.0393 -0.0635
18916W        W34725   0.999   8.214   3.602  0.0478  0.0466  0.1936
18917W        W34726  13.774  10.837  15.328  0.0201  0.0092  0.0158
18918W        W34727   9.869   6.383  14.930  0.1556 -0.0361  0.1816
18919W        W34728   2.748  15.576   0.052 -0.0051  0.0790 -0.2208
18920W        W34729  15.156   7.350  15.181  0.0920 -0.1675  0.1532
18921W        W34730  11.841   3.556   1.098  0.1223 -0.1601  0.3218
18922W        W34731   5.790  16.902   0.580  0.1116 -0.0015 -0.0892
18923W        W34732  18.200   0.233   4.187 -0.0195  0.0682 -0.1182
18924W        W34733   4.423   2.765   1.585 -0.2550  0.1012 -0.1495
18925W        W34734  12.078   0.140   4.342 -0.0100  0.0967  0.0955
18926W        W34735  12.933  16.076  12.633 -0.1490 -0.0121  0.2435
18927W        W34736  15.296   9.761   4.505  0.0440  0.0932 -0.0682
18928W        W34737   1.496   7.319   2.563 -0.0717  0.0353 -0.2954
18929W        W34738   8.086   5.125   2.412 -0.1317 -0.0078  0.1322
18930W        W34739   5.374  11.075   3.827  0.0366  0.2682 -0.0277
18931W        W34740   9.904   0.573   2.144 -0.0780  0.1103 -0.3592
18932W        W34741   1.410   9.228  14.612  0.1455 -0.0885 -0.1761
18933W        W34742   3.836   7.475   0.348  0.1247  0.0544  0.4826
18934W        W34743   4.602   4.251   2.710 -0.0960  0.2492 -0.1282
18935W        W34744  12.418   6.190  13.034 -0.0423 -0.2645 -0.3056
18936W        W34745  17.608   8.083  12.494  0.1571 -0.0856 -0.1523
18937W        W34746  15.215  10.139  13.558 -0.1851  0.0900 -0.0014
18938W        W34747  12.364   4.062  15.150 -0.3616  0.0634  0.1192
18939W        W34748  13.724  14.246   1.769  0.1423 -0.2115 -0.0643
18940W        W34749  12.739  12.167   3.065 -0.0846 -0.0994 -0.1440
18941W        W34750  15.578  11.860  11.258  0.2153 -0.0078  0.0845
18942W        W34751   1.255  15.307   4.425  0.0018  0.1256  0.1064
18943W        W34752   4.676   7.555  15.806 -0.1278  0.1699  0.1433
18944W        W34753   4.116   4.870  13.737 -0.0304  0.0672  0.0569
18945W        W34754   8.470  10.723  14.670  0.0931 -0.0934  0.0190
18946W        W34755  18.320  12.103  15.208  0.3299  0.0405  0.4259
18947W        W34756   4.908   8.830   1.538  0.0288 -0.1099 -0.0006
18948W        W34757   1.702  12.173  15.843 -0.0364  0.0360  0.1366
18949W        W34758  15.291  14.824   1.070 -0.2928 -0.3529  0.1460
18950W        W34759   9.111   9.082   6.299  0.2159 -0.0821 -0.0965
18951W        W34760   3.294   9.349   2.677  0.1054 -0.0106 -0.1179
18952W        W34761   6.159  13.567  14.869  0.2765  0.1649 -0.0265
18953W        W34762   4.523   4.525   0.737  0.2739 -0.2658 -0.1245
18954W        W34763   4.869  11.754   1.644 -0.1754 -0.2498 -0.1554
18955W        W34764   8.901   2.592   5.129  0.0800 -0.0615 -0.3059
18956W        W34765  10.974  12.374   1.737 -0.2451  0.1565  0.1097
18957W        W34766  10.785  13.855  10.902 -0.1053  0.5606 -0.0124
18958W        W34767   1.903  12.308  11.465 -0.0362 -0.2765 -0.1334
18959W        W34768  10.129  13.040   5.689 -0.2420  0.0759 -0.1911
18960W        W34769  17.042  16.478  11.781  0.0837 -0.1963 -0.0220
18961W        W34770   9.064   1.052  14.724 -0.0752  0.2782  0.1063
18962W        W34771   9.574   0.649   2.799  0.0981 -0.0541  0.0557
18963W        W34772  10.130  17.093  12.497 -0.1499 -0.0328  0.1617
18964W        W34773  10.068   0.534   2.654  0.3266  0.0216  0.0550
18965W        W34774   2.953   6.010   1.940 -0.0775  0.1823  0.3886
18966W        W34775   5.752  11.404  14.988 -0.1475 -0.1980  0.0358
18967W        W34776   0.624  12.841   2.146 -0.0363 -0.2365  0.0395
18968W        W34777   1.966  11.897   0.341  0.0454 -0.0576  0.0328
18969W        W34778  13.011  15.904   2.984 -0.1306 -0.1626 -0.0295
18970W        W34779  16.763   3.903   1.980 -0.2471 -0.2528  0.1322
18971W        W34780   8.426  14.919   4.764 -0.0835  0.0359 -0.3333
18972W        W34781  11.878   9.130   0.431  0.1053 -0.0462  0.1024
18973W        W34782   3.007   0.457  15.247  0.0136  0.3420 -0.0539
18974W        W34783  11.135   6.800   4.044  0.0240  0.4857 -0.1762
18975W        W34784   4.046   6.912  14.885 -0.0068 -0.0944  0.0596
18976W        W34785   1.113  13.511  12.728 -0.1366 -0.0783 -0.1817
18977W        W34786  15.353   3.836   2.086 -0.0774  0.2873 -0.0077
18978W        W34787  16.741   2.377  12.197  0.1809  0.1938 -0.0929
18979W        W34788  16.477   8.260   0.559 -0.1031  0.2434  0.0764
18980W        W34789   6.242   9.341  13.047 -0.1014 -0.0710  0.1383
18981W        W34790   9.737  14.703  14.481 -0.0812  0.4169 -0.2282
18982W        W34791   8.036   8.724  14.028 -0.3049  0.2178 -0.2065
18983W        W34792   0.026  11.955  12.627 -0.2076  0.3358  0.2573
18984W        W34793  13.425   0.780   2.026  0.0362 -0.0422 -0.2926
18985W        W34794   5.276  13.206   5.003  0.3352 -0.2578  0.3217
18986W        W34795   7.449  14.778   4.777 -0.0663 -0.0050  0.1208
18987W        W34796  14.344   6.466  11.417  0.5023  0.2188  0.0158
18988W        W34797   7.152   8.298   2.107 -0.1803  0.1378 -0.1893
18989W        W34798   9.515   8.554  12.467  0.1711 -0.3083  0.0099
18990W        W34799  11.441  16.845  13.792  0.0250  0.1830 -0.2718
18991W        W34800   0.075   8.741  12.536  0.2136 -0.0468  0.5040
18992W        W34801   2.795  14.789   5.374 -0.0482  0.1036 -0.0869
18993W        W34802  15.494  14.020   0.290 -0.0604 -0.0201  0.0009
18994W        W34803   6.647   6.523   0.289  0.0111  0.1110  0.0812
18995W        W34804  16.782   1.216  10.497 -0.0212  0.1851 -0.0563
18996W        W34805   1.346  12.592  12.640  0.1063  0.1021 -0.1220
18997W        W34806   8.869   9.556   3.331  0.0954  0.1555  0.0183
18998W        W34807   3.451   6.987   5.007 -0.0836 -0.4368  0.3338
18999W        W34808  11.659   0.709   1.055 -0.0422  0.1075  0.1856
19000W        W34809   2.583  17.650  15.261 -0.0323 -0.2893 -0.1034
19001W        W34810   2.329   9.815   5.664 -0.2632 -0.2292  0.3939
19002W        W34811  12.263  12.567   0.461 -0.1976 -0.0554  0.0856
19003W        W34812   9.473  16.031  15.723  0.3828  0.0168 -0.1509
19004W        W34813   6.204   2.938   4.024  0.2151 -0.0160 -0.0451
19005W        W34814  12.828  12.817   4.323  0.0487 -0.1345 -0.0452
19006W        W34815   0.421   6.205  15.018  0.1499 -0.3040 -0.0625
19007W        W34816  13.304  13.164   3.682  0.0814  0.0033 -0.0780
19008W        W34817  13.436   5.805   1.300 -0.0078 -0.0019 -0.0256
19009W        W34818   8.057  15.668   3.671 -0.0649 -0.2815 -0.1569
19010W        W34819   8.210  12.386  14.300 -0.0368 -0.0904 -0.0661
19011W        W34820  16.939  16.839  15.617  0.7339  0.1237  0.1166
19012W        W34821  12.533   2.366  14.518  0.0700 -0.0692  0.0273
19013W        W34822   2.886  14.350   4.993  0.0069  0.0315 -0.1077
19014W        W34823   1.988  14.432  12.842 -0.1289  0.1682 -0.2307
19015W        W34824  14.140   2.339   2.340  0.0347 -0.2941  0.1877
19016W        W34825   6.774   9.372   3.166  0.3264 -0.0562 -0.0579
19017W        W34826   8.592   7.305  15.678  0.2976 -0.2589 -0.0211
19018W        W34827   8.904   4.774   5.509  0.0272  0.0546 -0.3055
19019W        W34828  11.097  13.102  14.673  0.1672 -0.0171  0.1436
19020W        W34829   8.942   7.747   4.809  0.1534  0.0081 -0.4143
19021W        W34830  15.492  16.889  12.053  0.0308 -0.2222 -0.1424
19022W        W34831  15.709  14.255  15.029 -0.0335  0.0078  0.2060
19023W        W34832   1.535  14.627   0.252  0.1758  0.0958 -0.1095
19024W        W34833   1.661  15.706  14.478  0.1974 -0.2314 -0.1770
19025W        W34834   5.766   6.731  14.487  0.1191 -0.0121  0.0348
19026W        W34835  17.360   8.422   2.701 -0.2034  0.0647  0.1642
19027W        W34836  10.812   7.719  14.085  0.2241  0.0619  0.0252
19028W        W34837   3.760   8.457  10.690  0.1141  0.2879  0.0754
19029W        W34838   5.396   0.695   1.237 -0.0498  0.1924 -0.0195
19030W        W34839  10.130   2.285  12.821  0.0780 -0.3181 -0.1510
19031W        W34840   5.888  13.233  12.227 -0.0467 -0.2389 -0.1470
19032W        W34841   8.762   9.991   5.905  0.0323 -0.2881  0.1967
19033W        W34842   7.515  12.937   0.193 -0.0544 -0.0346 -0.1194
19034W        W34843  11.352   0.409   3.110 -0.0191 -0.0092  0.1710
19035W        W34844   6.709  15.024   1.803  0.1295 -0.0615  0.3150
19036W        W34845  15.140   1.674  11.275  0.2208 -0.1671  0.1319
19037W        W34846  13.940   6.351  13.244  0.1798  0.0215  0.0560
19038W        W34847  14.487  18.331  15.442  0.2075  0.0196  0.0356
19039W        W34848  13.721  13.687   1.985 -0.1446  0.0693 -0.2110
19040W        W34849  10.856  15.569  14.074 -0.0282 -0.3546 -0.2290
19041W        W34850   9.958  10.385   1.626 -0.1111  0.0951  0.0139
19042W        W34851  16.110  12.396   2.319 -0.0500 -0.0742  0.0447
19043W        W34852   3.251   2.678   4.075  0.1276 -0.1107  0.0363
19044W        W34853  12.295  11.624   3.077 -0.1256 -0.0736 -0.0952
19045W        W34854  17.007  16.221   2.072  0.3876  0.0727  0.3681
19046W        W34855  13.851   5.308  11.145 -0.1213  0.1815 -0.2116
19047W        W34856   2.269  10.615  14.833 -0.0180 -0.1963 -0.1693
19048W        W34857   8.103  10.842  11.411  0.1956 -0.1073 -0.0121
19049W        W34858   3.186   1.649   0.319  0.1138 -0.0158 -0.0949
19050W        W34859   1.202   6.023  13.756 -0.2268 -0.2276  0.0362
19051W        W34860  10.678   6.496  10.444  0.1671 -0.2173  0.1522
19052W        W34861  11.290  14.805  13.651  0.0645  0.3400 -0.2146
19053W        W34862  14.841   9.899  15.617 -0.1063 -0.2035 -0.3638
19054W        W34863   4.216  11.779   4.895  0.2374 -0.0261  0.0579
19055W        W34864  14.646  14.915  14.728 -0.4345 -0.1180 -0.0434
19056W        W34865  15.814  12.522  14.106  0.2233  0.0797 -0.0362
19057W        W34866   2.518  18.132   4.461 -0.1490  0.0320 -0.2524
19058W        W34867   2.729   9.895  13.116  0.1883 -0.2082 -0.1521
19059W        W34868  14.979   8.852  14.917 -0.0130 -0.2285 -0.2484
19060W        W34869  16.233  12.703   2.718  0.2248  0.0826 -0.1543
19061W        W34870  15.894   2.213  15.744  0.0753  0.1028  0.0625
19062W        W34871   0.685  16.064   4.628  0.2869 -0.1270 -0.0650
19063W        W34872   9.620  15.027   5.983 -0.2024 -0.1963  0.1396
19064W        W34873   3.171  15.333   4.014  0.0870  0.0206 -0.1737
19065W        W34874   0.788   5.630   3.777  0.0832 -0.0455 -0.1970
19066W        W34875   7.652   8.482  13.110 -0.2827 -0.1281 -0.0526
19067W        W34876   8.284   0.819  15.036 -0.0272  0.0450 -0.3678
19068W        W34877  11.246  14.279  13.433  0.2016 -0.1212  0.0298
19069W        W34878  17.047   2.975   3.699  0.2084  0.0085  0.1931
19070W        W34879  16.302   4.423  15.462 -0.0589 -0.2074 -0.3847
19071W        W34880   7.211  14.491  13.716 -0.2842 -0.2888 -0.0278
19072W        W34881   0.830  11.511  12.256 -0.0930  0.0924 -0.0809
19073W        W34882   5.059  13.452  12.256 -0.0608  0.2190 -0.2135
19074W        W34883   9.726   7.090   0.647 -0.2688 -0.0840 -0.0707
19075W        W34884  12.192  10.313  15.433  0.0217  0.1137 -0.2312
19076W        W34885   7.522   3.431  12.286 -0.2195 -0.0400  0.0455
19077W        W34886   4.014  11.133  15.677  0.3128 -0.1684  0.2386
19078W        W34887  18.270   5.189  14.939  0.0484 -0.2539 -0.0931
19079W        W34888  18.053   2.975   3.637  0.0440 -0.0558  0.3263
19080W        W34889  16.294   7.780  15.237  0.0669 -0.0801 -0.1701
19081W        W34890  17.326  12.546   1.998  0.3663 -0.0069 -0.0191
19082W        W34891   7.214  13.224  13.496  0.1559 -0.1258 -0.0757
19083W        W34892   5.740   5.879   3.028  0.0485  0.1628 -0.0752
19084W        W34893   8.686   5.357   3.050 -0.1451 -0.2701  0.2375
19085W        W34894   1.456   9.247  14.070 -0.0904 -0.1263 -0.4681
19086W        W34895   8.588  10.388   2.515  0.0857  0.2346  0.2403
19087W        W34896   9.531   9.047  12.350  0.0121 -0.1384  0.0508
19088W        W34897  11.147  10.405   5.303 -0.1152 -0.0608  0.0843
19089W        W34898  17.336   9.587  13.921 -0.1612  0.0572 -0.1434
19090W        W34899  13.299   2.433  10.646 -0.0897  0.4442  0.2071
19091W        W34900  12.407   9.339   4.256  0.0028  0.0174 -0.0413
19092W        W34901   6.915   9.616   1.539  0.0221 -0.0987  0.2228
19093W        W34902   1.442   8.779   4.496 -0.1535  0.0782 -0.1257
19094W        W34903  17.866   7.915   4.235  0.0301  0.2499 -0.0552
19095W        W34904  16.284  17.103   5.513 -0.3980 -0.0683  0.0760
19096W        W34905   6.897  10.250   3.271  0.0986  0.0216  0.0219
19097W        W34906  12.263   8.449  11.307 -0.0628 -0.2978  0.1543
19098W        W34907   9.993  10.574   5.927 -0.1972  0.2528  0.0439
19099W        W34908  10.270  17.001  14.553  0.2633 -0.0523 -0.3125
19100W        W34909   3.442   3.741  10.033  0.1384 -0.0640 -0.0285
19101W        W34910   0.386   0.142   0.660 -0.0116  0.0035  0.0013
19102W        W34911  10.204  13.960   9.993  0.2657  0.2550 -0.1646
19103W        W34912  17.663  12.696   2.385 -0.0633  0.2101 -0.1440
19104W        W34913  16.261  10.601   4.699 -0.0523  0.1052 -0.0254
19105W        W34914  16.455  15.818  12.208 -0.2209  0.2269 -0.0775
19106W        W34915  15.145   5.362   4.806  0.2140  0.0361 -0.2344
19107W        W34916  10.796   7.510   1.689  0.0501  0.1374  0.2511
19108W        W34917   6.615   3.192  15.542  0.2869  0.2616  0.1362
19109W        W34918   9.292   1.519  11.694  0.3392  0.1860 -0.1188
19110W        W34919  17.689  10.862  14.474 -0.0226  0.2575  0.1090
19111W        W34920  15.906  15.067   4.491  0.1560  0.1411 -0.1521
19112W        W34921   7.668  18.075  12.750 -0.0372  0.1120  0.1781
19113W        W34922   2.388  13.486  11.972  0.2860  0.0509  0.2929
19114W        W34923  18.168  10.177   2.133 -0.1235  0.3946 -0.0246
19115W        W34924   0.760   0.737   4.834 -0.1122 -0.4265  0.2294
19116W        W34925   2.608   2.337  11.897  0.0755  0.3294  0.3672
19117W        W34926  18.044   4.433  14.426  0.0757  0.0740  0.2876
19118W        W34927  10.200   2.102  15.099  0.1367  0.0995 -0.2666
19119W        W34928  17.602  11.852  14.900 -0.0523 -0.0620 -0.0373
19120W        W34929   5.117   0.288   2.029 -0.1348 -0.3263  0.0167
19121W        W34930   0.182  14.067   2.141  0.1503 -0.0809 -0.3401
19122W        W34931  13.214   2.297   0.170 -0.0244 -0.0161  0.2598
19123W        W34932  16.850  13.733  12.015  0.0701 -0.1195 -0.2438
19124W        W34933   0.304   3.212   0.829 -0.0020  0.3105  0.5042
19125W        W34934   5.517   7.154  14.318  0.0361 -0.0128  0.0110
19126W        W34935   6.920   5.659  11.471 -0.1618  0.0746 -0.1816
19127W        W34936  12.468  13.691   1.404 -0.0972 -0.2464  0.2514
19128W        W34937   2.561   0.323  15.356 -0.2056  0.0124  0.0296
19129W        W34938   7.032   9.034   3.626  0.1874  0.0151 -0.2871
19130W        W34939   8.185  13.742   3.302 -0.0771 -0.0404 -0.0932
19131W        W34940  12.795  16.992  11.977  0.2043 -0.0002  0.0703
19132W        W34941   9.330  11.615   0.386 -0.1456 -0.1078  0.1911
19133W        W34942  10.532   0.457   4.535 -0.1484  0.1155 -0.0718
19134W        W34943  18.221  18.396   4.589  0.1336 -0.0541 -0.3511
19135W        W34944   0.080   0.921  12.936 -0.0300  0.0709 -0.1279
19136W        W34945  17.893   8.777   2.473  0.1864 -0.1435 -0.0906
19137W        W34946   9.954  11.361   3.233 -0.0271  0.2181 -0.0614
19138W        W34947  17.599   5.949   4.529 -0.3528 -0.1112  0.1169
19139W        W34948  10.485   6.416   1.651 -0.1137 -0.2994  0.0826
19140W        W34949  17.284   9.390   6.212  0.1508  0.1898  0.0144
19141W        W34950   1.381  12.113   5.829  0.1480  0.2034  0.2958
19142W        W34951  12.422  12.928  11.020 -0.3460 -0.1104  0.0241
19143W        W34952  18.376  13.999   4.564  0.0202  0.0881  0.1658
19144W        W34953  10.657  14.566   5.166 -0.2278 -0.1289  0.0744
19145W        W34954   0.397   8.674  15.459  0.0404 -0.1301  0.1655
19146W        W34955  15.346  12.203   0.333  0.2064  0.1172  0.0060
19147W        W34956   7.363   4.730  15.249 -0.0732 -0.0899 -0.1057
19148W        W34957   0.254  15.935  10.860 -0.0405  0.2235  0.2361
19149W        W34958  11.933  13.045   2.530  0.1164 -0.1825  0.1564
19150W        W34959   7.346   2.475   9.822 -0.1459  0.1272 -0.1529
19151W        W34960  14.210  12.718   2.027 -0.0775 -0.3453  0.1918
19152W        W34961   1.608  17.450   1.238 -0.0350  0.0412  0.0556
19153W        W34962  11.025  12.816  11.874  0.0010 -0.1748  0.0861
19154W        W34963   1.305  11.550  12.407  0.1525 -0.0164  0.0447
19155W        W34964   4.249  13.040  13.089 -0.2574  0.1469  0.0584
19156W        W34965   0.034  14.676   0.634  0.2132 -0.0583  0.1915
19157W        W34966   1.142   9.467   5.329 -0.3175 -0.0395 -0.2526
19158W        W34967  10.877   8.743   1.756  0.0992  0.1733  0.0971
19159W        W34968   8.904   8.224   5.039 -0.1643  0.0944  0.0421
19160W        W34969  18.086  16.169  12.019  0.1351 -0.2403  0.1922
19161W        W34970  10.693   9.171   0.726 -0.0297 -0.0498 -0.0165
19162W        W34971   0.066  17.365  11.836  0.0652  0.2779  0.0248
19163W        W34972   6.807  15.618   3.748  0.1645 -0.0683 -0.0026
19164W        W34973   7.538  13.621   4.652  0.1300  0.1496 -0.1062
19165W        W34974  14.939   9.093  12.903  0.1122 -0.0018  0.0109
19166W        W34975  12.264   8.516   3.987  0.3206 -0.1119 -0.1517
19167W        W34976   3.323  10.675  13.562 -0.3220 -0.2690 -0.0474
19168W        W34977   1.393  11.944   2.343 -0.1644 -0.1503  0.0118
19169W        W34978   2.762  11.727  13.238  0.1240 -0.2162  0.2798
19170W        W34979  11.797  17.886   1.239 -0.0109 -0.2126  0.2119
19171W        W34980   6.927   5.680   1.954 -0.1022  0.4075 -0.5257
19172W        W34981  10.540  12.586  15.091 -0.0399  0.0990  0.0149
19173W        W34982  14.579   6.584   3.802  0.0186  0.1567  0.0826
19174W        W34983   3.057  10.371   0.255  0.0236  0.1348 -0.1403
19175W        W34984  12.730   8.003   2.811  0.0274 -0.0345  0.1375
19176W        W34985   7.603   9.576   3.514 -0.0355  0.2781  0.0042
19177W        W34986  15.928   3.823  13.769  0.0661 -0.1646  0.1092
19178W        W34987   0.748   0.017  11.775  0.0038 -0.1888  0.2221
19179W        W34988   2.411  11.172  15.727  0.0254  0.0784  0.0126
19180W        W34989  17.113   2.866  12.700  0.0630 -0.0366 -0.0830
19181W        W34990  11.385  10.118  12.140 -0.0321 -0.0859 -0.1066
19182W        W34991   6.122  15.985   3.162 -0.0806  0.0970  0.2453
19183W        W34992   3.907   6.944   0.145  0.2269 -0.0532 -0.1218
19184W        W34993  16.930  18.222  15.186 -0.3468  0.1801  0.0867
19185W        W34994   5.755  17.821  13.279  0.0032  0.2496  0.0858
19186W        W34995  14.684   5.739  11.475 -0.2372 -0.2729  0.0619
19187W        W34996  15.703   9.246  15.273  0.1421 -0.0474  0.2300
19188W        W34997   5.954  17.698   1.164  0.0438  0.1604  0.3266
19189W        W34998  16.251   8.822   0.152  0.0988 -0.0443  0.1679
19190W        W34999   9.253  18.166   0.488  0.1242  0.0229 -0.0216
19191W        W35000  18.290  15.706  15.004 -0.0101 -0.1525  0.0998
19192W        W35001  11.352   8.269  13.416  0.0961  0.1863 -0.2203
19193W        W35002   8.492   0.975   3.309  0.1107 -0.0932 -0.3976
19194W        W35003   3.758   4.763  11.492 -0.0131 -0.0881  0.0355
19195W        W35004   4.702   9.258   1.815  0.0609  0.0718 -0.0637
19196W        W35005   9.193  17.160   4.994  0.2202  0.1158  0.1585
19197W        W35006   2.233  11.600   1.332 -0.4121  0.1535  0.0953
19198W        W35007  13.389   2.622   1.895  0.3223 -0.2932 -0.1848
19199W        W35008  16.957   8.678   2.727  0.2325 -0.1360 -0.4053
19200W        W35009  14.979   3.126   3.781 -0.1179  0.0666  0.1476
19201W        W35010  15.400  18.300   2.740 -0.1011  0.1389  0.0532
19202W        W35011   0.398  11.345   1.725  0.2799  0.1888 -0.1728
19203W        W35012   1.182  17.214   1.360 -0.3565 -0.0850 -0.0380
19204W        W35013  15.376  17.009   1.572 -0.1818  0.0656 -0.1330
19205W        W35014   0.263   6.711   3.048 -0.1599 -0.1130  0.0488
19206W        W35015   1.217  15.773   0.394 -0.1212  0.0475  0.0142
19207W        W35016  16.564   5.795   2.264 -0.2105 -0.2349  0.1868
19208W        W35017   2.022  11.211  12.790 -0.1008  0.2554  0.2532
19209W        W35018  14.127   5.392  11.585 -0.1840 -0.3181  0.0019
19210W        W35019   4.352  17.000   3.389 -0.2816 -0.1573 -0.0731
19211W        W35020   6.366  15.978  14.834  0.0166 -0.0180  0.2557
19212W        W35021  16.677  16.764   4.261 -0.1399 -0.2901 -0.0178
19213W        W35022  15.309  13.661   4.813  0.0412  0.0465  0.0641
19214W        W35023  15.500  17.834  12.002  0.1161  0.1074  0.0437
19215W        W35024   7.399   0.805   4.163  0.3064 -0.1915 -0.3318
19216W        W35025   7.012   3.172   4.828 -0.1821 -0.0053  0.0826
19217W        W35026   3.211  13.565   4.734  0.1368 -0.3821  0.2571
19218W        W35027   2.133  13.591  13.826 -0.0497  0.0497 -0.1646
19219W        W35028  15.233  10.142  12.953 -0.0172 -0.0077 -0.0911
19220W        W35029   5.833  13.448   2.557 -0.1339  0.2092 -0.1463
19221W        W35030   6.394   0.178   0.176 -0.1820  0.1082  0.2587
19222W        W35031  18.120  13.238   5.563 -0.0728  0.0865  0.0675
19223W        W35032   2.295   3.209  13.622 -0.1381 -0.0467 -0.2000
19224W        W35033  16.249   2.217   3.869  0.1999  0.2358 -0.1544
19225W        W35034  10.089  18.403  15.004  0.1275 -0.2069 -0.1454
19226W        W35035  11.708   4.732   5.736  0.1188  0.0787  0.2844
19227W        W35036  15.697   9.456   1.640 -0.3229 -0.1120  0.3395
19228W        W35037   0.784   9.139   4.956  0.1547 -0.3409  0.0085
19229W        W35038   5.128   4.054   1.805  0.1839  0.1038 -0.1421
19230W        W35039  16.069  10.762  15.736  0.1952 -0.1091 -0.1008
19231W        W35040  16.164  11.686  11.208 -0.0430  0.2199  0.1484
19232W        W35041   6.635   8.440   4.205 -0.2256 -0.0916 -0.0393
19233W        W35042  12.299   0.031  11.236  0.0493 -0.3462  0.0024
19234W        W35043  17.139  15.220  11.309  0.0018 -0.0445  0.1890
19235W        W35044  17.461   8.951   4.214  0.1576 -0.0430  0.0385
19236W        W35045  15.665   7.058   9.834 -0.0788  0.0930  0.1288
19237W        W35046  15.434   4.804  13.209  0.0061  0.2985  0.3566
19238W        W35047   3.651   0.981   2.323 -0.0601  0.1580  0.0350
19239W        W35048   3.801   0.963   3.506 -0.0120 -0.2117 -0.0411
19240W        W35049   0.140   2.595   2.513  0.0936 -0.1353  0.0313
19241W        W35050  14.008  10.088  15.051  0.0792 -0.2511  0.1874
19242W        W35051   8.727  10.151   0.165 -0.0510 -0.1828 -0.1943
19243W        W35052  17.646  15.033  15.267 -0.0947  0.3057  0.2322
19244W        W35053   1.662   6.282   5.606 -0.2370 -0.0183  0.1073
19245W        W35054   9.308  13.377  11.169 -0.3671  0.2601 -0.0294
19246W        W35055   4.698   4.084  14.514  0.3121 -0.1141 -0.5209
19247W        W35056   0.943  14.915   1.838  0.3078 -0.0391  0.0363
19248W        W35057   5.753  16.023  13.319  0.3166 -0.0505  0.0269
19249W        W35058  10.166   5.715   2.044  0.2434 -0.0579  0.0893
19250W        W35059   5.899   3.037   0.350 -0.2434  0.2360 -0.0452
19251W        W35060   2.542  11.865  12.720  0.0319 -0.4345 -0.2256
19252W        W35061   1.756   5.871   0.711  0.0133  0.1453  0.0914
19253W        W35062   1.203   7.776   0.198 -0.1484  0.0777 -0.0260
19254W        W35063  13.766   8.512   5.294  0.2155 -0.3853  0.0241
19255W        W35064   1.593  14.520   4.627  0.1782  0.1803  0.1459
19256W        W35065  15.528   9.639  14.993 -0.0500 -0.2275 -0.4677
19257W        W35066  16.508   8.168  13.189 -0.1585 -0.1616  0.2621
19258W        W35067   1.505  15.440  11.197  0.0222 -0.2150 -0.2023
19259W        W35068   4.785  17.782   4.577  0.0046  0.1741 -0.1406
19260W        W35069   5.439  17.910  12.034 -0.0955 -0.1884 -0.1733
19261W        W35070   4.448  18.111   4.659 -0.1963  0.0575  0.3498
19262W        W35071  13.006   4.302  12.473 -0.1531 -0.2180  0.0830
19263W        W35072  15.105  14.589  11.717 -0.1222  0.0126  0.1021
19264W        W35073   8.228   3.355  15.796  0.0091  0.2929  0.0273
19265W        W35074   1.928   9.931   3.725  0.2502  0.0923 -0.0105
19266W        W35075   4.255  12.760   0.997  0.1546 -0.0268 -0.0421
19267W        W35076  14.742   0.039   3.356  0.1845 -0.0813 -0.2130
19268W        W35077  10.497  10.493  13.300  0.0273  0.0018 -0.2670
19269W        W35078   3.585  15.354  12.236  0.2192 -0.0573 -0.3357
19270W        W35079   1.981  15.001  14.242  0.0777  0.2317  0.0845
19271W        W35080   2.979   3.131  12.494 -0.0194  0.4211  0.2162
19272W        W35081  12.292   4.445  13.195  0.2356 -0.0949 -0.0413
19273W        W35082   1.224  17.743  13.718  0.2521 -0.1943  0.0577
19274W        W35083  13.783   9.101  13.724  0.0777  0.0110  0.0370
19275W        W35084   8.263   9.550  11.188 -0.0592  0.0549  0.1197
19276W        W35085  11.582  17.211   1.475  0.0878 -0.1242 -0.0865
19277W        W35086   4.695  16.464  10.295 -0.1675 -0.0838  0.2583
19278W        W35087   6.032  17.691   2.290  0.1176 -0.0066 -0.0627
19279W        W35088   2.442   0.814  15.176 -0.1294 -0.1335  0.3056
19280W        W35089  11.972   0.702   5.487  0.0606 -0.1107 -0.1567
19281W        W35090  12.219  16.766   2.275 -0.2573  0.1445 -0.2561
19282W        W35091  15.661  14.985   1.924  0.0378 -0.3033  0.3922
19283W        W35092   8.718  10.492   0.574  0.2531  0.0489 -0.1448
19284W        W35093  14.831  13.948   5.124 -0.0547  0.1548 -0.1519
19285W        W35094  13.821  16.810   0.786 -0.2130  0.1774  0.0752
19286W        W35095   0.179   2.131   2.089 -0.5118  0.0187  0.1456
19287W        W35096  15.683   6.944   0.824 -0.2968  0.1575 -0.0229
19288W        W35097  15.145   2.744  13.668 -0.0268 -0.0748  0.2098
19289W        W35098   8.802  16.255   4.705  0.2002 -0.1848  0.1479
19290W        W35099  14.921   8.828  12.438  0.3211 -0.3066  0.0816
19291W        W35100  16.863   8.699  11.170 -0.0855 -0.0160 -0.1672
19292W        W35101  11.153   4.543  10.739  0.1523  0.1302 -0.1012
19293W        W35102  14.548  12.198  15.241 -0.3287  0.0048 -0.2977
19294W        W35103   6.577  15.922   1.219  0.2996  0.3092 -0.3446
19295W        W35104  16.753  12.223   4.966  0.1726 -0.0757 -0.1020
19296W        W35105  17.308  17.352   2.758 -0.0764  0.1164  0.0747
19297W        W35106  13.265  11.819   0.115  0.0397 -0.2110  0.1721
19298W        W35107   7.699  17.969  11.886 -0.2419 -0.0779 -0.1520
19299W        W35108   2.097  15.078   1.117 -0.1524 -0.2923  0.1334
19300W        W35109  16.011  14.412   5.327  0.3773  0.4469  0.0843
19301W        W35110  17.894   9.203  14.881  0.0248 -0.0157  0.2188
19302W        W35111   2.990   1.419   4.959 -0.1620 -0.0063 -0.3536
19303W        W35112   1.856   9.148  15.544 -0.0291  0.1831 -0.2836
19304W        W35113  18.320   8.778   3.455  0.0673  0.2860  0.2526
19305W        W35114  16.885  15.066  14.712  0.0533  0.0679  0.1064
19306W        W35115   8.738   4.106   1.262 -0.0644 -0.0298 -0.0666
19307W        W35116   3.098  11.372   1.692  0.1110 -0.2004  0.2768
19308W        W35117  16.200  16.191  12.252  0.1978  0.0086  0.2090
19309W        W35118   8.904   1.869   2.021  0.1700 -0.2383  0.3031
19310W        W35119  13.579   3.613   2.303  0.0842 -0.0946  0.3884
19311W        W35120   4.057   5.971  15.524 -0.1305 -0.0224 -0.0780
19312W        W35121   1.326  15.782  14.023  0.0056  0.0135  0.0002
19313W        W35122   7.521  12.448  12.534  0.0581 -0.1771  0.2541
19314W        W35123   3.393  15.372   2.585 -0.2670 -0.2528  0.0972
19315W        W35124  16.706   1.184  11.917  0.4831 -0.0542 -0.0125
19316W        W35125   6.142  14.312   2.320  0.2136  0.3035 -0.1389
19317W        W35126  11.749  17.244   5.216  0.2161 -0.3654  0.0210
19318W        W35127  14.461  16.835   5.309 -0.2733 -0.0201  0.1491
19319W        W35128   6.262  14.901   2.891 -0.1031 -0.1977  0.0892
19320W        W35129   8.563  14.409   3.997  0.1739 -0.4087  0.2166
19321W        W35130   6.318   9.359   4.182  0.2421  0.0021  0.1343
19322W        W35131   1.700  11.633   3.956 -0.0180 -0.1073  0.1528
19323W        W35132  10.553  11.926  14.142 -0.1564  0.1952 -0.3080
19324W        W35133  16.761   3.203   1.312 -0.0615  0.2594 -0.1812
19325W        W35134   2.901  12.874  10.153  0.2315 -0.0712 -0.1497
19326W        W35135  14.740  18.427   1.064 -0.2566 -0.0136 -0.2744
19327W        W35136  15.918   0.443   3.751 -0.1219 -0.1560 -0.1768
19328W        W35137  14.785  17.399  14.090  0.2135  0.0126 -0.2830
19329W        W35138  11.207   8.345   3.862 -0.1021 -0.1075  0.1333
19330W        W35139  16.532   6.344   1.435 -0.3312  0.0627  0.0953
19331W        W35140  12.532   0.509   5.530 -0.1927  0.2356 -0.1308
19332W        W35141  14.730   7.886  15.733 -0.0330  0.1690  0.0954
19333W        W35142  16.796   2.115   0.209  0.0877 -0.0655 -0.2053
19334W        W35143  16.828  14.765   5.421 -0.4120 -0.2756 -0.1290
19335W        W35144  13.352   3.677   1.831 -0.0940  0.1441  0.0936
19336W        W35145  12.875  18.248  14.564 -0.2455 -0.0154 -0.1056
19337W        W35146   0.082  15.511  14.142  0.2182  0.3753 -0.0603
19338W        W35147  14.514   2.616   2.114 -0.0441  0.0144 -0.1129
19339W        W35148   8.241   4.599  12.924 -0.2968  0.2027 -0.1169
19340W        W35149   6.411   3.911   3.541  0.0471  0.1180 -0.0391
19341W        W35150   4.497  15.774   1.196  0.1291 -0.2689  0.1040
19342W        W35151  18.410   8.878   4.498 -0.1343 -0.0091 -0.5786
19343W        W35152   9.585   7.467  14.184 -0.2283  0.0593  0.0715
19344W        W35153  14.070   5.159   3.422 -0.0135  0.0505  0.2353
19345W        W35154   4.446  10.821  11.904  0.2455 -0.2906  0.0858
19346W        W35155   0.534   8.819   0.431 -0.1045 -0.1002  0.1048
19347W        W35156   5.908   5.273   5.606 -0.1828  0.0221  0.0327
19348W        W35157  17.321   0.648  14.275 -0.0204  0.0425  0.2058
19349W        W35158   2.823  12.892   1.683 -0.2127  0.0491 -0.4714
19350W        W35159   0.153  16.325  14.510 -0.3653 -0.1665 -0.3841
19351W        W35160  16.101   1.731   2.211  0.1698  0.3125 -0.0957
19352W        W35161   7.082   1.204   2.222  0.0664 -0.2779 -0.2394
19353W        W35162   6.410   1.954  14.726  0.0025  0.0345  0.2155
19354W        W35163   4.216  15.511   4.522  0.0982 -0.0799  0.1001
19355W        W35164  16.151   2.702  15.649 -0.1333  0.1562  0.1087
19356W        W35165   4.262  11.391  12.969  0.1484 -0.0203  0.2597
19357W        W35166  10.771  12.013  14.686  0.2909  0.1256 -0.1015
19358W        W35167   2.729   6.890   4.326  0.0742  0.0028  0.3198
19359W        W35168   9.637   4.852  13.755  0.1239 -0.1290 -0.2702
19360W        W35169   2.764   7.226  14.578  0.0181  0.2436  0.0361
19361W        W35170   2.342   8.423   2.576  0.2311 -0.3466 -0.4308
19362W        W35171  16.666  17.949   2.086 -0.2761 -0.1532 -0.4390
19363W        W35172  18.431   2.188  13.550 -0.0373  0.4052 -0.2499
19364W        W35173  12.511   4.596  12.817 -0.2640  0.3852 -0.2282
19365W        W35174  17.352   3.341   5.428 -0.1489 -0.1117  0.0325
19366W        W35175   7.899  12.290   0.460  0.4292 -0.1950  0.1170
19367W        W35176   5.085   4.139  11.608  0.0942  0.0416  0.0505
19368W        W35177   6.078   0.417   1.726 -0.0267  0.0748  0.2005
19369W        W35178   2.973  17.967  15.602  0.2869 -0.0287 -0.1508
19370W        W35179   3.491  18.066  14.238 -0.1578  0.3399  0.2634
19371W        W35180   3.918   4.534  14.341 -0.0871 -0.0785  0.0000
19372W        W35181   4.236  15.215   4.948  0.1036 -0.0376 -0.2102
19373W        W35182   7.372   7.451   2.893  0.3263 -0.0217  0.0426
19374W        W35183   4.556   1.167   2.334 -0.0981 -0.0174  0.0344
19375W        W35184  12.993   3.139  15.109  0.1261  0.1685 -0.0870
19376W        W35185   4.439  18.086  15.404 -0.0324 -0.1854 -0.2971
19377W        W35186   1.625  15.190  13.287  0.0496 -0.2776  0.0560
19378W        W35187  12.392  10.427  14.911 -0.3339  0.0867  0.1088
19379W        W35188  17.042   0.651  11.319 -0.1235  0.1508 -0.1518
19380W        W35189   3.140  17.400   1.833 -0.3370  0.1494  0.1802
19381W        W35190  12.108  14.980   2.741  0.1240  0.1146 -0.0161
19382W        W35191  12.470   3.695   1.773 -0.1832  0.2416 -0.0065
19383W        W35192   0.163  18.025   0.414  0.0798 -0.2421 -0.0904
19384W        W35193  13.465  11.268   3.802 -0.0179  0.2469  0.1146
19385W        W35194  15.616   9.163   0.835  0.2177 -0.3761 -0.0318
19386W        W35195  17.556   3.583   1.063 -0.1721  0.2716 -0.0842
19387W        W35196  14.249  14.563   4.364  0.0608  0.0402 -0.0129
19388W        W35197   5.682   1.143  13.294 -0.0527  0.2845  0.2777
19389W        W35198   4.200   8.239   0.166  0.0560  0.1571 -0.4143
19390W        W35199  11.489   8.966  10.720 -0.2152 -0.0981 -0.2189
19391W        W35200  12.399   2.808  11.074  0.2924  0.0286 -0.2419
19392W        W35201   4.445   4.974  14.686  0.2446  0.2081  0.2206
19393W        W35202  13.733  17.692  14.621 -0.0503 -0.1258  0.0896
19394W        W35203  11.433  13.896   2.573  0.1074 -0.3569 -0.1259
19395W        W35204  16.598   8.251  15.388 -0.4961 -0.0095 -0.2158
19396W        W35205  14.509   1.785  14.646 -0.0000  0.0766  0.1400
19397W        W35206  14.881  11.829  11.776  0.3056 -0.0234 -0.1231
19398W        W35207   1.224   3.096  15.440 -0.0030  0.0110 -0.2400
19399W        W35208  10.762   4.847  12.601 -0.3974  0.1406 -0.0867
19400W        W35209   0.126  12.593   3.090 -0.0707  0.0866  0.3711
19401W        W35210  17.606  12.274   0.674  0.0133 -0.1906  0.1661
19402W        W35211  17.385   0.771   2.910  0.2356 -0.1290 -0.0074
19403W        W35212   2.185  18.426   4.770 -0.0773 -0.2526  0.2640
19404W        W35213  18.359  17.628   2.103  0.1966  0.1473 -0.2309
19405W        W35214   6.492  15.288  10.965  0.2743 -0.1702 -0.0450
19406W        W35215   9.563   6.722  13.259  0.0026 -0.2480  0.1699
19407W        W35216   2.740   6.140   1.434 -0.0922 -0.2988 -0.0336
19408W        W35217   6.749   1.697  15.523  0.2287 -0.0574  0.4850
19409W        W35218  15.640  16.368  14.005 -0.0209 -0.0548 -0.2891
19410W        W35219   1.872  17.699   1.644  0.1127 -0.4672 -0.0369
19411W        W35220   9.038   9.411   2.537  0.1704  0.0497  0.2177
19412W        W35221   7.425   5.644  11.513  0.1558 -0.0469  0.0650
19413W        W35222  12.096  15.547  13.574 -0.2093  0.0475 -0.0181
19414W        W35223  10.255   2.696  13.659 -0.0233  0.2865 -0.1651
19415W        W35224  12.144  13.811  14.062  0.0907 -0.0658 -0.1161
19416W        W35225  15.225   0.115   0.778 -0.0640 -0.1718 -0.1635
19417W        W35226   9.279   2.581  11.764 -0.0408  0.2642 -0.0694
19418W        W35227   8.479  13.413  12.583 -0.4401 -0.5172  0.1412
19419W        W35228  15.459   3.680  11.595  0.0893  0.0821 -0.0714
19420W        W35229  18.005  11.868  12.446  0.3318 -0.0099  0.0093
19421W        W35230  13.746   3.437  14.249  0.1043 -0.1047 -0.1017
19422W        W35231  15.960  16.780  14.584 -0.0927  0.1021  0.3551
19423W        W35232   7.582   1.180   4.408  0.0214 -0.0620 -0.3657
19424W        W35233   5.214   7.975   5.213  0.0081  0.1379 -0.0490
19425W        W35234   6.147   1.221   3.389 -0.3010  0.0528 -0.0084
19426W        W35235  12.110  10.382   0.879 -0.0419 -0.0774  0.1966
19427W        W35236   1.722  17.445  11.075  0.0214 -0.0357  0.0077
19428W        W35237   9.404  16.649  12.128 -0.2178 -0.0076  0.2319
19429W        W35238  12.721  13.844   2.461  0.0159 -0.2614 -0.0010
19430W        W35239  16.122  13.596  12.657  0.0613 -0.1717 -0.0435
19431W        W35240   0.999   4.052   0.904  0.0791  0.0709  0.0780
19432W        W35241   8.814  13.046   4.138 -0.0820 -0.2611  0.0079
19433W        W35242  11.552   2.845   3.953 -0.0517 -0.3526  0.2298
19434W        W35243   9.150   6.611   0.118 -0.0366  0.2655 -0.0023
19435W        W35244   4.178   6.086   1.586  0.1730 -0.0414  0.0084
19436W        W35245  17.900   1.985   0.894  0.0726  0.0953 -0.1047
19437W        W35246  18.373   2.221  11.679 -0.0411  0.0183  0.3201
19438W        W35247  10.946  11.397  13.982  0.0057  0.1591  0.2159
19439W        W35248   9.802   2.068  13.189  0.1982  0.3596  0.2981
19440W        W35249  16.574   6.624  12.549  0.1726 -0.0360 -0.1880
19441W        W35250   8.971  17.421  11.545 -0.0616 -0.1422 -0.1777
19442W        W35251   4.501  17.804   5.050 -0.1417  0.0272  0.0060
19443W        W35252   1.852  15.542   2.809 -0.1483 -0.1547  0.2127
19444W        W35253  13.060  18.247  15.524  0.1161 -0.1076  0.0268
19445W        W35254   2.320  15.833  12.444  0.0626  0.0497  0.0888
19446W        W35255  18.039  15.494   0.952 -0.0878 -0.1180 -0.1627
19447W        W35256   0.901   1.396  15.203 -0.0373 -0.0659  0.0976
19448W        W35257   6.744  10.234  15.117  0.0223  0.0751  0.0556
19449W        W35258   9.544  16.761   4.879 -0.0130 -0.1478  0.0906
19450W        W35259  13.598  14.217   5.811 -0.0341  0.0051 -0.0139
19451W        W35260   6.890   8.153  15.759 -0.3814 -0.4148 -0.0797
19452W        W35261   9.415   0.697   2.311  0.2354  0.3032  0.1543
19453W        W35262   2.358   4.373   4.256 -0.1262 -0.0392 -0.3777
19454W        W35263   8.408  15.765   0.032  0.2672 -0.0696  0.0997
19455W        W35264  16.857  13.792  12.566 -0.1367  0.0114  0.0421
19456W        W35265   1.192   7.007  15.266  0.1575  0.2936  0.0725
19457W        W35266   7.300  11.131   5.514  0.0544 -0.3813  0.0736
19458W        W35267  15.980  11.919  14.408 -0.1715  0.0905 -0.0896
19459W        W35268   0.984   9.573   4.021  0.0350  0.2378 -0.0252
19460W        W35269   2.464  13.820   0.770  0.0145 -0.0853 -0.2142
19461W        W35270  18.125   1.965  12.039  0.1078 -0.1246 -0.0527
19462W        W35271   4.662  14.800  11.488  0.1587 -0.1226  0.0615
19463W        W35272  17.567  15.944  12.119  0.2656  0.0494  0.1206
19464W        W35273   9.652   1.989  15.159  0.1535  0.2646  0.1469
19465W        W35274   7.865   2.693   2.830 -0.3554  0.1976 -0.1066
19466W        W35275  15.090  17.521   4.949 -0.1476 -0.1249  0.0207
19467W        W35276   3.217  11.722  11.005  0.0673 -0.3416 -0.1932
19468W        W35277  12.017   5.955   0.196  0.1238 -0.0811 -0.0310
19469W        W35278  16.050   5.409   9.727 -0.0006  0.1027 -0.0949
19470W        W35279   9.079   4.144  12.402  0.2269  0.0280  0.2282
19471W        W35280  12.156  16.305   2.460 -0.2184 -0.3058 -0.0917
19472W        W35281  14.648   6.797  12.595  0.2022  0.0520 -0.1228
19473W        W35282  12.973   0.178  12.313 -0.4029  0.0647 -0.0578
19474W        W35283  11.486   6.632  13.131 -0.0286 -0.4247 -0.2568
19475W        W35284  14.504  18.106  11.733 -0.1577 -0.1367 -0.1081
19476W        W35285   6.897  15.400  13.953  0.2222 -0.1032 -0.3647
19477W        W35286  15.762   7.332  12.762 -0.2419  0.1649 -0.3955
19478W        W35287   5.562   4.010   3.798 -0.0268 -0.1192  0.0988
19479W        W35288  15.658   5.327   0.008 -0.1625 -0.1873  0.0110
19480W        W35289  10.285  10.596  14.157  0.2509 -0.1966  0.1636
19481W        W35290  18.351   9.291   5.191  0.0292 -0.3064  0.2370
19482W        W35291   7.680   4.457   3.964 -0.2509 -0.0889  0.1088
19483W        W35292  17.889   5.486   1.926  0.1943  0.1032 -0.0635
19484W        W35293   8.440   5.807   1.561  0.1134  0.1905  0.0384
19485W        W35294  14.054   4.817   4.675  0.1333  0.1153 -0.1679
19486W        W35295  10.423   0.604  11.852  0.1590  0.0130  0.3898
19487W        W35296  16.372   2.714   4.681 -0.0434  0.1301  0.0181
19488W        W35297   4.640   0.070  13.758  0.0452 -0.2052 -0.0481
19489W        W35298  15.557  13.117  13.184  0.0304 -0.0693 -0.2037
19490W        W35299  10.702   0.962   1.161 -0.2178 -0.1079 -0.0041
19491W        W35300  13.900  11.144   4.125 -0.1908  0.2175 -0.0460
19492W        W35301   1.062   3.445   5.196  0.1466 -0.1530  0.1189
19493W        W35302   2.137   4.812  14.196  0.2127 -0.1027  0.3729
19494W        W35303   9.026  17.114  13.378  0.0177  0.1203  0.1770
19495W        W35304  17.474  12.346   0.188  0.1467  0.0667 -0.1713
19496W        W35305   7.854  18.081  11.074  0.3175 -0.0862 -0.0091
19497W        W35306   5.094   9.584  10.699  0.1136  0.0426  0.0077
19498W        W35307  14.355  15.034   2.131 -0.0946 -0.2213 -0.0624
19499W        W35308  16.205   2.243   1.959  0.1841  0.0948 -0.1223
19500W        W35309  12.605   1.653   3.350 -0.2106  0.0051 -0.3224
19501W        W35310  16.168  13.985  14.429  0.0769  0.0254  0.0565
19502W        W35311   7.054  16.182  12.914 -0.3078 -0.1332 -0.0491
19503W        W35312  11.721   6.851  11.199  0.4249 -0.1066 -0.1240
19504W        W35313   9.067  11.003  12.653 -0.0473 -0.2599 -0.0202
19505W        W35314  10.415   1.134  14.372  0.0740 -0.2769  0.3010
19506W        W35315  15.184  11.631   0.791 -0.1473 -0.1774  0.0363
19507W        W35316  15.521   6.730   1.768  0.3256  0.2441 -0.3282
19508W        W35317  14.829   2.416   0.163  0.0739  0.1269 -0.1270
19509W        W35318   7.343  15.008  15.436  0.0316  0.6234 -0.1931
19510W        W35319  17.827  14.080  13.419 -0.0877 -0.0906 -0.1460
19511W        W35320  10.814  14.483   0.245  0.0525  0.2084  0.1235
19512W        W35321   8.407  16.620   2.670 -0.2494  0.1826 -0.0346
19513W        W35322   2.053  12.633  14.060 -0.2155  0.0431 -0.1308
19514W        W35323   9.739  17.329   2.598  0.0289 -0.1025 -0.4507
19515W        W35324   6.518  14.179  14.210  0.0997  0.3054 -0.2676
19516W        W35325  16.551  10.640   0.005 -0.0505 -0.0783 -0.0049
19517W        W35326   0.237   4.035   5.385 -0.2462 -0.2736  0.1977
19518W        W35327   0.079   7.752  10.988  0.0911  0.0488  0.1165
19519W        W35328   4.085  15.796  10.748  0.0916 -0.0834 -0.2498
19520W        W35329   0.928   5.910  12.859  0.2201 -0.0184  0.1501
19521W        W35330   7.570   0.700  14.108 -0.0325 -0.2816  0.1896
19522W        W35331   7.216  14.549  15.258 -0.3233 -0.1232  0.1788
19523W        W35332  14.194  16.716   2.985  0.0139  0.2813  0.0487
19524W        W35333   7.592  17.459  11.976  0.2267 -0.1129  0.0363
19525W        W35334  10.013  10.138  11.497  0.0291 -0.3773  0.0251
19526W        W35335  13.567   7.885  13.294 -0.1557 -0.0662  0.3123
19527W        W35336   1.417  17.004   2.979 -0.0604 -0.3939 -0.1756
19528W        W35337  10.741  17.957  15.507  0.1219  0.0757 -0.0816
19529W        W35338   1.509  13.562  15.382 -0.1390 -0.1572  0.0754
19530W        W35339  14.476  16.963  14.015 -0.0551 -0.0057 -0.0522
19531W        W35340   8.815   8.116  11.944 -0.1706 -0.0115 -0.1127
19532W        W35341   7.983   3.948  14.885 -0.3634  0.1598 -0.3995
19533W        W35342   6.396   7.009  15.190  0.0927  0.3067 -0.0362
19534W        W35343   2.185  11.941  14.555 -0.4362  0.1763 -0.0665
19535W        W35344   3.053  12.234   4.565  0.1250 -0.0315 -0.1089
19536W        W35345  17.440  14.585  14.116 -0.0649  0.0771 -0.0842
19537W        W35346  15.143   4.908   4.096  0.0016  0.2239 -0.0254
19538W        W35347   3.984   6.713  10.943 -0.1211  0.0457  0.2357
19539W        W35348  14.990  15.292   0.778 -0.3005  0.1341  0.0503
19540W        W35349  11.309   3.299  14.574  0.2070  0.4032  0.0164
19541W        W35350   3.809   1.354   4.748  0.4424  0.0478 -0.1635
19542W        W35351   0.728  10.364   0.861 -0.2809  0.1348 -0.0217
19543W        W35352  11.353  13.208  11.443  0.0286  0.2209 -0.0961
19544W        W35353   8.990   9.604  15.059  0.1453  0.1899  0.0604
19545W        W35354   4.122   3.029  15.259  0.2989  0.0216  0.3295
19546W        W35355   5.332  10.971  11.109  0.0770  0.1133  0.0316
19547W        W35356  16.921  10.720  15.383  0.0239 -0.0959 -0.0997
19548W        W35357  16.303  13.687  13.342  0.1113 -0.5012  0.3963
19549W        W35358   5.278   2.126  11.366 -0.0021 -0.2744 -0.0765
19550W        W35359   0.289   6.944  14.161 -0.3091  0.0857 -0.1445
19551W        W35360   6.418  16.034   2.152  0.3871 -0.1218 -0.0479
19552W        W35361  16.096   6.995   2.536  0.2478 -0.2180  0.2499
19553W        W35362   8.081  13.390  11.330  0.3527 -0.1158 -0.1575
19554W        W35363  16.517   9.412   2.699  0.0464  0.1733 -0.0123
19555W        W35364   4.406   5.877   1.066  0.0048 -0.0029  0.6367
19556W        W35365   8.552   5.576   5.446  0.0081  0.1414  0.0967
19557W        W35366  12.376  10.715  15.706  0.0576 -0.0902  0.2581
19558W        W35367  10.212   1.805   2.188 -0.0913  0.2829  0.3748
19559W        W35368  15.900   3.548   2.114  0.0845  0.1939 -0.0681
19560W        W35369  16.395  17.448  15.691  0.1366  0.2223  0.0807
19561W        W35370   2.418   4.813   2.772  0.2572 -0.0281  0.2045
19562W        W35371  11.970  17.064  10.184  0.3093 -0.0720 -0.0261
19563W        W35372   8.552  14.842  14.258  0.3637 -0.0871 -0.2670
19564W        W35373   3.816   1.651  10.739 -0.1313 -0.1816  0.0641
19565W        W35374  14.740   3.923  15.134  0.1756  0.1957 -0.0937
19566W        W35375  15.209   4.361   1.584  0.0181  0.0564  0.0705
19567W        W35376   5.257  12.632  14.604 -0.0015  0.1267  0.1243
19568W        W35377   3.742   6.025  12.116  0.0264 -0.3270  0.3372
19569W        W35378  12.453   6.469  13.615 -0.0962 -0.0605 -0.1544
19570W        W35379  17.126   1.326   1.362  0.1126 -0.2449  0.1850
19571W        W35380   0.462   5.429   3.462 -0.0393 -0.2835 -0.1452
19572W        W35381   2.061  13.415   5.273 -0.0103  0.2820  0.0887
19573W        W35382  11.329   9.905   5.338  0.0896 -0.0762 -0.0104
19574W        W35383  15.799   3.098  12.414 -0.0294  0.3347  0.2309
19575W        W35384   2.089   7.287  13.547 -0.2145  0.0330  0.2397
19576W        W35385   9.957   4.741   2.964 -0.3178  0.0081  0.0530
19577W        W35386  18.099  17.262  11.483  0.0332 -0.1586 -0.0521
19578W        W35387  12.267   9.421   1.695 -0.0754  0.2208 -0.0638
19579W        W35388   7.646  12.681  10.923  0.1924  0.1134  0.0107
19580W        W35389  12.948  11.483   1.815 -0.1968  0.0963  0.0896
19581W        W35390   9.832  12.474  13.460 -0.0623  0.1028 -0.0938
19582W        W35391   0.232   9.072   3.402 -0.1358 -0.2666  0.0707
19583W        W35392   4.002  18.197   3.146  0.1619  0.0985 -0.0137
19584W        W35393   9.003  18.052   2.307  0.2050 -0.1268 -0.0871
19585W        W35394   8.811  11.729   3.751 -0.2524 -0.0762  0.1023
19586W        W35395  13.373  15.451  15.463  0.2998 -0.5077  0.2490
19587W        W35396   1.797   9.318  11.593 -0.0779 -0.2645 -0.2098
19588W        W35397   5.337   8.283   0.968 -0.0724 -0.0138  0.2834
19589W        W35398   9.780  11.868   0.278  0.0716 -0.1928  0.0833
19590W        W35399   1.161  18.238   2.373 -0.0862  0.2466  0.1261
19591W        W35400   4.701  12.104   5.840 -0.0287  0.2816 -0.0081
19592W        W35401   2.233   9.821   2.072 -0.4219  0.0464 -0.0502
19593W        W35402  13.584   9.326  14.615  0.0856 -0.4242  0.2428
19594W        W35403   4.916  17.000   4.193  0.1640  0.1988  0.0415
19595W        W35404  16.266   4.914  14.091 -0.3520  0.1137 -0.2572
19596W        W35405   1.976   6.422  15.031 -0.0039  0.1441 -0.0668
19597W        W35406   0.751  14.936   9.909 -0.0387 -0.1741  0.0417
19598W        W35407  13.634  14.689   1.619  0.2424  0.2700  0.2514
19599W        W35408   5.453   7.768   0.889  0.0618  0.0493  0.2456
19600W        W35409   7.784   8.070  14.720 -0.1345  0.0681 -0.0863
19601W        W35410  14.747  17.951  11.346  0.2385 -0.1451  0.1144
19602W        W35411  14.761   3.565  10.592  0.2120 -0.0281  0.2109
19603W        W35412  16.257  10.796  12.978 -0.1508  0.0803 -0.0842
19604W        W35413   4.380  14.123   5.098  0.1178 -0.1141 -0.2504
19605W        W35414   0.381  16.286   5.066  0.0722 -0.0512 -0.0975
19606W        W35415  16.633  11.791   1.283  0.3333  0.3197  0.1594
19607W        W35416  12.509   4.070  14.413 -0.0919  0.1978 -0.1205
19608W        W35417   1.406   7.849   1.900 -0.1045 -0.1087 -0.1974
19609W        W35418   6.223  14.939   1.735 -0.0986 -0.1655  0.2097
19610W        W35419   8.217  14.756   5.277  0.0528 -0.0132 -0.1471
19611W        W35420   2.220  16.108  14.281 -0.1660 -0.1618  0.1427
19612W        W35421   6.140   8.272  12.179  0.1339 -0.1770  0.1961
19613W        W35422  13.348   1.372   3.851 -0.2147  0.2916 -0.1248
19614W        W35423  17.658  12.495  15.575  0.1083 -0.2985 -0.1306
19615W        W35424   6.326  17.092  13.797 -0.0667 -0.2091 -0.3518
19616W        W35425   1.383  10.966   3.644 -0.2817 -0.1168  0.0039
19617W        W35426   1.316   2.042   4.718 -0.0834 -0.0167 -0.0592
19618W        W35427   4.249   6.213  14.339  0.3149  0.1050  0.0751
19619W        W35428   0.883  11.205  14.971 -0.1408 -0.1923  0.1053
19620W        W35429   2.291   6.315  13.604  0.0448  0.0730 -0.1264
19621W        W35430   1.512  17.358  15.251 -0.1319  0.0267  0.2720
19622W        W35431  10.025   3.074   3.645  0.0090  0.0309 -0.0436
19623W        W35432  12.008   0.406  11.509  0.1708 -0.1365 -0.4090
19624W        W35433   4.959  13.111  13.696 -0.2332  0.4332  0.2091
19625W        W35434   1.396  13.906   0.867 -0.1797 -0.0078  0.2787
19626W        W35435  17.902   0.841  13.675 -0.2690 -0.2019  0.1743
19627W        W35436  10.132  16.876   2.034  0.2043 -0.1081 -0.3886
19628W        W35437   8.265  17.719   1.464  0.0318  0.1937  0.0062
19629W        W35438   1.478  15.687   0.837 -0.0791 -0.1357  0.1578
19630W        W35439  12.086  10.200   2.743  0.1345 -0.0843 -0.0254
19631W        W35440  12.812  16.284   3.274 -0.0533  0.1762  0.1262
19632W        W35441   5.940   7.138  13.706 -0.4157 -0.0964  0.0141
19633W        W35442  10.562   5.600  11.240  0.2879 -0.2610 -0.0077
19634W        W35443  13.947  16.962  15.539 -0.1300 -0.2997 -0.2006
19635W        W35444   9.653  14.366   0.336 -0.1601 -0.1243 -0.1046
19636W        W35445   5.987   5.368  11.931 -0.0517  0.0910 -0.1739
19637W        W35446   7.717  11.212  13.320 -0.0303  0.0769 -0.1173
19638W        W35447   6.848  11.284  13.010 -0.2336 -0.0142 -0.0336
19639W        W35448   4.214  18.339   4.099 -0.0428  0.1182  0.1780
19640W        W35449   1.324   7.498  15.027 -0.1223 -0.1757 -0.2887
19641W        W35450  15.804   2.697  13.213 -0.3992 -0.0119  0.2768
19642W        W35451   2.077  13.860  11.722  0.3266 -0.2555  0.0903
19643W        W35452  16.125   6.330   4.739 -0.1606 -0.2785 -0.0926
19644W        W35453  15.830  12.165   1.917 -0.0083  0.0334  0.3127
19645W        W35454  16.654  17.377   2.212 -0.2613 -0.2095 -0.1940
19646W        W35455   0.530   3.635   3.673 -0.2851  0.0127  0.3277
19647W        W35456   8.923  12.707  11.580 -0.0458 -0.2586  0.2958
19648W        W35457  11.779   6.305  12.881  0.0107 -0.2417  0.1665
19649W        W35458  13.719  14.139   3.344 -0.1730  0.0516 -0.0501
19650W        W35459  18.179   7.683   1.145 -0.2367  0.1265 -0.1903
19651W        W35460   8.271   9.737   2.381  0.1248  0.0844  0.0059
19652W        W35461  15.867  13.129  12.816  0.0251 -0.0480  0.0629
19653W        W35462  16.639   9.998   5.673 -0.0182 -0.2262 -0.1581
19654W        W35463  11.041   5.008   2.689 -0.2246 -0.2120  0.2187
19655W        W35464  17.480   5.481   4.699  0.1975 -0.1993  0.0589
19656W        W35465  12.622  14.965   1.858 -0.2294 -0.0502 -0.1261
19657W        W35466  12.583   3.563   2.547  0.2281  0.1450 -0.0377
19658W        W35467   4.507  18.344   2.224  0.0952  0.3718  0.1424
19659W        W35468  12.444  13.761  12.290 -0.1242 -0.1716 -0.1646
19660W        W35469  10.429   3.787   2.687  0.0889  0.0467 -0.3739
19661W        W35470  11.053   4.331   1.947 -0.2798  0.2102 -0.1790
19662W        W35471   3.503  15.799  12.089  0.1621 -0.1207  0.1207
19663W        W35472   2.424   1.522  15.464 -0.0934  0.0330  0.1426
19664W        W35473   5.672  10.084  11.116  0.1332 -0.1056 -0.3218
19665W        W35474  11.798   1.530   1.767 -0.3084 -0.0706  0.0770
19666W        W35475   1.474   5.726  12.873  0.3904  0.1230 -0.1827
19667W        W35476   3.714   3.978   3.961  0.0785  0.4036 -0.0200
19668W        W35477  17.753  10.720  12.116  0.0376  0.0810  0.1170
19669W        W35478   0.223  17.627  15.355 -0.4201 -0.1240  0.0556
19670W        W35479   0.848   5.767   0.821  0.0267  0.2042  0.1787
19671W        W35480  11.057   1.804  12.779  0.0470  0.0460  0.2598
19672W        W35481  10.091  12.307  12.285  0.1710  0.1568  0.0784
19673W        W35482  16.178   4.387  13.909  0.0321  0.3089  0.1123
19674W        W35483  12.650  11.377  14.958  0.0432  0.2033  0.0927
19675W        W35484  16.458  13.756   4.847 -0.1967 -0.1091  0.2125
19676W        W35485   1.121  11.127   0.003  0.0660 -0.0381 -0.1877
19677W        W35486   3.442  12.970   2.776 -0.1458 -0.1468 -0.2002
19678W        W35487  11.710   0.728   2.780  0.0215 -0.1640 -0.0087
19679W        W35488  16.535  11.578  15.732 -0.0854  0.0714  0.5840
19680W        W35489  16.098   0.089  14.165  0.0446 -0.1303  0.1261
19681W        W35490   9.408   9.569   5.168  0.2587 -0.2626  0.3490
19682W        W35491  17.566   8.028   2.929 -0.0629 -0.2840 -0.0515
19683W        W35492  13.377  11.645  13.444  0.0690 -0.0508 -0.3812
19684W        W35493   9.880  17.519  13.752 -0.0683 -0.1073  0.1797
19685W        W35494  14.473  14.716   1.617 -0.1674  0.0781  0.4992
19686W        W35495  15.911  15.861  11.419 -0.3575  0.0397  0.4395
19687W        W35496   4.944   9.391  14.624  0.1123 -0.2591  0.0371
19688W        W35497   0.206   3.388  13.025  0.0168  0.1282  0.0347
19689W        W35498   6.308  12.939  12.788 -0.2069 -0.1032  0.1882
19690W        W35499  11.241  11.874   1.386 -0.1877  0.2055 -0.1963
19691W        W35500   0.944   1.102  14.769  0.0834  0.1954  0.3056
19692W        W35501   7.971  13.914  15.644  0.1432 -0.1024  0.1247
19693W        W35502  15.531   2.332   2.242 -0.0273 -0.1386  0.2326
19694W        W35503  18.147   3.941  10.828 -0.0003  0.2747  0.0369
19695W        W35504  14.494   1.862   2.011  0.0179  0.2021  0.4015
19696W        W35505  16.748  18.320   2.589 -0.3765 -0.0101 -0.0083
19697W        W35506   4.722   8.161   1.975  0.2434  0.1139 -0.2985
19698W        W35507  13.324   7.851   3.487 -0.1237 -0.0884  0.1660
19699W        W35508   2.257  15.171  12.332 -0.4758 -0.0782  0.0994
19700W        W35509   1.419  10.941   4.584 -0.0471 -0.4597  0.0938
19701W        W35510   5.044   6.967  13.101  0.0510 -0.0155 -0.2851
19702W        W35511  15.548  13.093   1.830  0.1425  0.0327 -0.3230
19703W        W35512  11.566  14.529  12.552 -0.0077 -0.4439 -0.1194
19704W        W35513  15.329  12.030   3.254  0.1039  0.0818 -0.0522
19705W        W35514   1.357   3.818   5.010 -0.1212 -0.1878  0.2684
19706W        W35515   7.284   4.550   4.311  0.1083 -0.2106 -0.1028
19707W        W35516   0.944   0.103   0.887 -0.1321  0.2904  0.0515
19708W        W35517   8.132  15.605   4.149 -0.0975  0.4381  0.0798
19709W        W35518  13.292  14.422   3.534 -0.0508 -0.0646  0.2623
19710W        W35519   6.984   3.536  13.358  0.0744 -0.1138  0.0011
19711W        W35520   2.705  13.225  10.939  0.0741 -0.0225  0.4142
19712W        W35521   1.001   6.072  15.839  0.0365  0.3221  0.1824
19713W        W35522   7.006  16.104   0.938  0.0352 -0.0625 -0.1869
19714W        W35523   3.047   7.234   0.914 -0.0871 -0.0155  0.1194
19715W        W35524   9.628  16.023   0.492 -0.0456 -0.0896  0.2324
19716W        W35525   6.564   1.315   2.573  0.0790 -0.0649 -0.1581
19717W        W35526   7.018   8.243   5.166 -0.2035  0.1106  0.3732
19718W        W35527   7.907   2.429   1.160 -0.1903 -0.2352 -0.0128
19719W        W35528  18.052  17.295   6.119  0.3236 -0.0970 -0.1976
19720W        W35529   5.931   8.501  14.036 -0.0948  0.0991 -0.0114
19721W        W35530  11.218   9.651   4.742  0.1094 -0.2271 -0.1295
19722W        W35531  17.569  12.615   1.507 -0.1447 -0.2949 -0.2597
19723W        W35532   6.573   2.791   4.327 -0.2421  0.1947  0.2551
19724W        W35533   1.280  10.268   2.850  0.0212  0.0631  0.2029
19725W        W35534   3.007  13.031  15.416  0.1666 -0.1088  0.1173
19726W        W35535  12.491   0.007   1.355 -0.1421 -0.1671  0.2134
19727W        W35536  17.467  11.846   0.393  0.0817 -0.1149  0.2055
19728W        W35537   2.486   0.091   0.856 -0.2224  0.0269 -0.1711
19729W        W35538   9.567   2.731  14.031 -0.0325  0.0721 -0.0362
19730W        W35539  10.771  17.032  15.433  0.1919 -0.1476 -0.0965
19731W        W35540  10.267  14.659  12.357 -0.1220  0.3024  0.0274
19732W        W35541   5.227   9.956   3.100 -0.1756 -0.0545 -0.0967
19733W        W35542   8.656   5.078  12.346  0.1948  0.1798  0.0497
19734W        W35543   4.135  12.444  12.876 -0.0058 -0.0550 -0.2828
19735W        W35544  10.206  16.354   5.820  0.1989 -0.0148 -0.0132
19736W        W35545  11.054   9.680  14.581 -0.0677  0.5451 -0.1360
19737W        W35546   0.154  12.884   0.008  0.1841 -0.1537 -0.0419
19738W        W35547   4.043  10.477  11.969  0.1132 -0.2398 -0.3224
19739W        W35548   4.527   5.343  14.329  0.4121 -0.1520 -0.1753
19740W        W35549   1.223  17.475   0.378  0.0904  0.4172  0.2188
19741W        W35550   5.594  10.123  11.615 -0.4414  0.0554  0.1944
19742W        W35551   2.425  15.447  15.558 -0.3561  0.0959  0.0818
19743W        W35552  12.882   5.396  11.964  0.2067  0.0120 -0.2489
19744W        W35553   6.533   6.276   3.153 -0.0652 -0.0179 -0.2901
19745W        W35554   5.703  17.203  14.851  0.0031  0.0385  0.0244
19746W        W35555   9.172   6.692   2.793  0.3262 -0.1957 -0.0542
19747W        W35556   5.874  16.880  14.549  0.0221 -0.0374 -0.0504
19748W        W35557   3.351  11.988   5.018 -0.1368  0.1157 -0.0836
19749W        W35558   1.644  12.575  10.093  0.0869 -0.1111  0.0330
19750W        W35559   8.969  15.406  15.746  0.0878  0.2386  0.0590
19751W        W35560  14.991   4.185   2.024  0.2179 -0.1715 -0.1425
19752W        W35561  17.760  13.971  14.382 -0.1061 -0.1455  0.0124
19753W        W35562   9.714   8.419  14.302 -0.0320  0.1664 -0.0341
19754W        W35563   4.426   1.572  13.845 -0.0546 -0.0211  0.1352
19755W        W35564  11.409  10.496  13.894 -0.0460 -0.1294 -0.0178
19756W        W35565   2.148  15.383   3.312  0.1874  0.0595  0.0257
19757W        W35566  10.263   4.651  11.856 -0.1149 -0.1406  0.0578
19758W        W35567  16.666  16.094   0.789 -0.1614 -0.1788  0.1429
19759W        W35568  16.804   8.741  12.675  0.3637 -0.3207  0.0549
19760W        W35569   8.250   2.349   0.306  0.1108 -0.1346 -0.0460
19761W        W35570  12.324   9.132  13.719 -0.0124 -0.0926 -0.1461
19762W        W35571   9.433  18.450   5.152 -0.1847 -0.0306  0.1504
19763W        W35572   1.628   4.761  14.285  0.2052  0.1373 -0.0006
19764W        W35573  14.151   2.412  15.486  0.0943  0.2738  0.0344
19765W        W35574   7.741  18.284   2.837 -0.2681 -0.0631  0.1287
19766W        W35575   2.258  17.193  13.164 -0.0521  0.0663  0.1527
19767W        W35576  10.182  17.319   3.533 -0.0222  0.1269  0.0601
19768W        W35577   2.978  15.774  13.875  0.0901  0.0873 -0.1341
19769W        W35578  17.324  12.018  13.579  0.1546  0.3525  0.1851
19770W        W35579   4.772  13.166   2.365  0.0309  0.2248  0.1547
19771W        W35580   8.339  16.144   2.553  0.0618  0.2762 -0.3434
19772W        W35581   4.375   2.497  14.508  0.1919  0.0306 -0.0335
19773W        W35582   4.644  17.229   3.760  0.1003  0.0106  0.1922
19774W        W35583  18.315  14.950   1.606  0.0005  0.2788 -0.5766
19775W        W35584   8.243   2.442  15.590 -0.2568 -0.2322 -0.1572
19776W        W35585   5.852  13.179  15.324 -0.1608 -0.0206 -0.2765
19777W        W35586   5.417  12.486  15.069 -0.1117 -0.2152 -0.1388
19778W        W35587   8.066  16.159   3.754 -0.0061  0.1703 -0.0874
19779W        W35588   3.842  12.037   3.360  0.1303 -0.0983 -0.1088
19780W        W35589  17.900   8.021  12.923  0.1016  0.0009 -0.1134
19781W        W35590  16.412   8.233  14.429  0.0381 -0.1457 -0.1826
19782W        W35591  10.992   6.814  11.951 -0.3673  0.1289  0.0091
19783W        W35592  12.699  14.287   6.283 -0.0830 -0.0286  0.0461
19784W        W35593  13.261  15.641   0.934  0.1241  0.0532 -0.0853
19785W        W35594   4.083  13.331   0.272 -0.3680  0.3481 -0.0180
19786W        W35595   0.204   4.865   2.786 -0.0062  0.2714  0.1683
19787W        W35596   7.383  17.254   1.670  0.2020 -0.1186  0.2826
19788W        W35597   9.302  11.388   4.487 -0.1662 -0.0964 -0.3135
19789W        W35598  16.043  14.875  11.887 -0.1012  0.0247 -0.2450
19790W        W35599  14.728  17.966  15.770 -0.0431 -0.1521 -0.3105
19791W        W35600   8.155   7.771   3.601 -0.2927  0.1740 -0.0630
19792W        W35601  12.319   6.762   3.916  0.1641 -0.1065 -0.1637
19793W        W35602   6.250   7.457  13.459  0.1529  0.1646 -0.0054
19794W        W35603   0.835   2.780  15.593 -0.1561 -0.1671  0.3000
19795W        W35604   4.068  14.643   1.656  0.0471  0.3734 -0.1092
19796W        W35605   4.065   4.145  15.462  0.0531 -0.1500 -0.1063
19797W        W35606  12.640   9.979  13.111  0.0870 -0.0138  0.2912
19798W        W35607  11.089   3.180   5.372  0.2671  0.1474  0.0836
19799W        W35608   8.510   4.133  12.782 -0.2526  0.0014  0.0197
19800W        W35609   8.978   3.929  12.840  0.0652 -0.1143 -0.0320
19801W        W35610  13.954   9.743  12.686 -0.0210  0.0045 -0.0419
19802W        W35611   9.445   5.097  15.151  0.1194  0.0015 -0.0573
19803W        W35612  16.644   1.388   5.598  0.1488 -0.2007 -0.0811
19804W        W35613  12.771   3.854  11.763 -0.1690  0.4237  0.3217
19805W        W35614  13.782   3.069  13.283  0.0826 -0.1290  0.0870
19806W        W35615  10.376   5.989   3.979 -0.1850  0.1206  0.0069
19807W        W35616   9.252  17.036   1.503 -0.1559  0.2147  0.3543
19808W        W35617   4.820   7.716   4.448 -0.0245  0.1946 -0.3114
19809W        W35618   9.461  15.125   2.245 -0.2021 -0.0789 -0.1782
19810W        W35619  17.664  14.340   1.178  0.0422  0.3227 -0.1923
19811W        W35620   3.936   7.129   9.780  0.0126 -0.1434  0.2943
19812W        W35621   5.491   3.961  14.765  0.0543  0.1380 -0.1706
19813W        W35622   7.705  11.584   1.801 -0.3013  0.3187  0.1555
19814W        W35623   3.289  18.378  14.597  0.0401 -0.1518 -0.0946
19815W        W35624   9.138  16.809  13.907 -0.2316 -0.1616  0.3214
19816W        W35625   7.652   0.443  13.048 -0.1552  0.6414 -0.1357
19817W        W35626  17.785   8.998  13.628  0.0490  0.2769 -0.1663
19818W        W35627   6.480   2.306  11.012  0.2525  0.0782 -0.2543
19819W        W35628   0.693  17.165   4.875 -0.1391 -0.0071  0.1306
19820W        W35629  11.698  13.554   5.382  0.3229  0.1011  0.1877
19821W        W35630   4.561  10.179  13.241 -0.2316 -0.3996  0.3198
19822W        W35631   7.039   8.531   3.826 -0.0648 -0.1814  0.4139
19823W        W35632   7.653  12.292   1.311  0.0591 -0.0506 -0.4531
19824W        W35633   8.070   7.560  10.981  0.0082  0.2201  0.1502
19825W        W35634  15.642   6.908   6.027  0.2048  0.0738  0.1463
19826W        W35635   9.354   3.736  15.072 -0.0850 -0.1344 -0.2155
19827W        W35636  11.894  10.757  11.780  0.1411 -0.1554  0.2638
19828W        W35637   2.348  11.449   4.744  0.1515 -0.0994 -0.2613
19829W        W35638  10.313   4.231  13.077  0.1645  0.0802 -0.0404
19830W        W35639   9.037   5.529  11.757 -0.1288  0.2193 -0.0104
19831W        W35640   0.050  14.869  14.887 -0.1140 -0.0319 -0.0373
19832W        W35641   9.941  11.872  13.632  0.0187  0.0196 -0.1128
19833W        W35642  14.513   9.148   1.272 -0.0904  0.1828 -0.2035
19834W        W35643  16.924   3.323   3.274 -0.0282  0.0433  0.1745
19835W        W35644   2.507   1.787  12.515 -0.1219 -0.0117  0.1226
19836W        W35645   0.207   9.536  15.130  0.1338 -0.1650 -0.0956
19837W        W35646   8.122   0.154  15.401 -0.0047  0.0634 -0.1180
19838W        W35647  15.840  18.195  15.464  0.3261  0.3673 -0.0505
19839W        W35648  14.784  14.086  12.440 -0.0003 -0.1008 -0.2050
19840W        W35649  11.854  15.380   4.165  0.1353  0.1627  0.0771
19841W        W35650   5.933   4.068   3.447 -0.0156 -0.0901  0.1787
19842W        W35651  13.363   8.290   5.066  0.0686 -0.2880  0.0075
19843W        W35652  14.180  13.060  14.463 -0.3269 -0.0187  0.2573
19844W        W35653   6.744   3.714   1.829 -0.2379  0.3901 -0.0355
19845W        W35654  16.607   9.308   0.560 -0.0809 -0.2309  0.3313
19846W        W35655   0.930  17.025  12.939  0.0213  0.1339  0.1832
19847W        W35656  12.957   6.385  13.541  0.0677  0.0431 -0.2990
19848W        W35657  11.009  12.252  10.585 -0.2809  0.2037 -0.0152
19849W        W35658   2.554   4.458   0.551 -0.1611  0.0003  0.1590
19850W        W35659   4.880   9.909  10.313  0.3025  0.1805 -0.3133
19851W        W35660   3.362   0.549   2.247  0.0415 -0.0192  0.0289
19852W        W35661  14.056   1.711  14.460 -0.3343 -0.1557  0.1199
19853W        W35662   6.294   5.686  14.494  0.2617  0.1220  0.0307
19854W        W35663   2.840  16.194  11.745  0.3853 -0.1574  0.2085
19855W        W35664   9.038  10.740  11.228  0.2315  0.0966  0.1342
19856W        W35665   0.723   3.784   4.172  0.1020 -0.0818 -0.3450
19857W        W35666  16.255   8.059   3.889 -0.2047  0.0510 -0.1702
19858W        W35667  12.487  16.387  12.659  0.2674  0.0664  0.1082
19859W        W35668  11.493  11.764   2.974  0.1452  0.0959  0.0207
19860W        W35669   8.071  17.581  11.172  0.0502 -0.1790  0.1514
19861W        W35670   9.008  12.726   2.513 -0.1524  0.0686  0.2240
19862W        W35671   5.300  18.002  15.010  0.1787 -0.2480  0.0785
19863W        W35672  11.919  11.578   2.741  0.1967  0.3188  0.3430
19864W        W35673  16.209  18.385  13.721 -0.1810 -0.1704  0.2320
19865W        W35674   2.417   6.851   2.457 -0.2285 -0.1734  0.2290
19866W        W35675   6.383   6.508  15.229 -0.0715  0.0051 -0.0641
19867W        W35676  18.280  15.475   5.269 -0.0785 -0.0370 -0.0147
19868W        W35677  10.068   0.886  12.740 -0.0218  0.2212  0.3808
19869W        W35678   9.552  16.452  13.885 -0.1984  0.1796  0.3026
19870W        W35679   8.969  11.874   4.574 -0.0927 -0.1510 -0.0546
19871W        W35680  10.396   7.671   2.001 -0.2193 -0.1017 -0.1902
19872W        W35681   3.197   3.933  15.372  0.1653 -0.2781 -0.0316
19873W        W35682  16.717  15.901  14.512  0.5553 -0.0284  0.0414
19874W        W35683   8.166  12.433  12.188 -0.0220 -0.2540  0.4113
19875W        W35684  12.010   5.379   3.602 -0.0314 -0.0297  0.2904
19876W        W35685  11.460  14.673   4.509 -0.0666 -0.3028  0.4582
19877W        W35686  12.956  18.284   3.075 -0.1554 -0.2098  0.0586
19878W        W35687  15.917   6.951   4.498  0.1801 -0.1040 -0.0305
19879W        W35688   0.622  10.830   5.687  0.0484 -0.1400  0.2760
19880W        W35689   2.850   6.323  14.904 -0.0377  0.1130 -0.3846
19881W        W35690   3.753   7.578  12.101  0.0307  0.0758  0.4163
19882W        W35691  10.305  10.125  14.899 -0.1865  0.1471  0.1553
19883W        W35692  17.214  13.693  11.211 -0.0715  0.0521  0.1198
19884W        W35693   4.743   9.635   2.398  0.2274  0.2620 -0.0672
19885W        W35694   2.896  16.099   3.501  0.2221 -0.0678  0.2781
19886W        W35695  17.917   5.630   3.790 -0.0833 -0.1832  0.0888
19887W        W35696  16.736  11.946  11.273 -0.1112 -0.0267 -0.1620
19888W        W35697   8.568  11.044  11.184 -0.0137  0.0282  0.0218
19889W        W35698   5.604   8.948  12.482 -0.1015  0.2562  0.1177
19890W        W35699   3.583   9.574   2.302  0.2096 -0.3748 -0.2902
19891W        W35700   1.294  11.554   1.374  0.2757 -0.2302  0.0432
19892W        W35701  14.150  11.052  12.654 -0.0968  0.1523 -0.1312
19893W        W35702   9.105  14.862  13.389 -0.1181  0.3405 -0.0216
19894W        W35703   8.481  11.162   1.271 -0.0869 -0.2359  0.0444
19895W        W35704  13.122   8.187  15.271 -0.2403  0.0614  0.3925
19896W        W35705  11.941  11.171  12.957 -0.2744 -0.1428 -0.1468
19897W        W35706   8.284   1.634  10.583  0.0037  0.0795 -0.0820
19898W        W35707   8.792   3.182  14.142 -0.2353  0.0787 -0.2355
19899W        W35708  10.724   7.269   2.090 -0.0884  0.1193  0.0494
19900W        W35709  13.247  14.303  14.796 -0.0440  0.2227 -0.1764
19901W        W35710   8.857   3.136   2.171 -0.1261  0.0943 -0.1277
19902W        W35711   5.207  16.956  12.947 -0.2068 -0.0848 -0.0040
19903W        W35712  17.560  15.915   1.008  0.0727  0.0399 -0.1731
19904W        W35713   7.787   5.575  15.159 -0.0264  0.0905  0.0134
19905W        W35714   8.437   8.518  14.945 -0.2348 -0.0752 -0.2499
19906W        W35715   6.216   6.626   4.853 -0.1000 -0.1596  0.1036
19907W        W35716   4.191  13.367  11.170 -0.1983  0.0356 -0.1508
19908W        W35717   0.326   3.230  10.715 -0.1002 -0.1968 -0.1570
19909W        W35718   9.123   1.286  13.782 -0.2597  0.0281  0.1030
19910W        W35719  10.185  13.634  14.414 -0.1077  0.1368 -0.0493
19911W        W35720   2.908  13.743   1.971 -0.1350 -0.2471  0.3121
19912W        W35721  17.095  15.985  15.377  0.1107 -0.0717 -0.1878
19913W        W35722   8.385   7.361   4.747 -0.2435  0.1997 -0.2581
19914W        W35723  11.675   8.868  14.574 -0.1901 -0.0670 -0.4119
19915W        W35724  15.316  12.010  12.217  0.3288  0.0102 -0.0252
19916W        W35725  14.295   3.222  14.361 -0.0247  0.1247  0.1268
19917W        W35726   6.126   5.190  13.798 -0.2014 -0.0898  0.0020
19918W        W35727  11.254   8.658   5.061  0.2326 -0.0223 -0.1232
19919W        W35728   8.965   8.022   4.038 -0.1168 -0.3428  0.0122
19920W        W35729  10.084   8.614  15.120 -0.3008 -0.0348 -0.0594
19921W        W35730  15.435   9.943  11.031 -0.0069 -0.4099 -0.1614
19922W        W35731   0.432  17.323  13.663 -0.3135  0.2775  0.3080
19923W        W35732  17.736   9.677  14.969  0.2578  0.0393  0.1477
19924W        W35733   1.447  17.974   4.409 -0.0410 -0.0853 -0.0243
19925W        W35734   3.356  10.820   0.345  0.5586  0.2615 -0.0208
19926W        W35735   0.966  11.482   5.039  0.0853  0.1906  0.1024
19927W        W35736   1.868   2.590   3.401 -0.2963 -0.1293 -0.1260
19928W        W35737   5.880  10.206  13.358  0.0722 -0.1111 -0.0914
19929W        W35738  17.045   2.812   0.675  0.0385  0.1170 -0.1673
19930W        W35739  10.614   1.853  11.103 -0.0960 -0.0512 -0.1898
19931W        W35740   3.123  10.190  12.325 -0.0569  0.0513 -0.0197
19932W        W35741   0.064   0.289  13.051  0.2655 -0.2578 -0.3152
19933W        W35742  13.773  10.534   1.476  0.0365  0.2223  0.0096
19934W        W35743  17.253  17.865   2.716  0.0367 -0.3142 -0.2062
19935W        W35744   4.875  11.795  11.696  0.1174 -0.1334  0.0044
19936W        W35745   3.383   6.590   4.777 -0.2291  0.2710  0.1340
19937W        W35746  16.932   7.158   0.424  0.1447  0.0226  0.1197
19938W        W35747  10.774   3.120  11.167 -0.0005  0.0583  0.0005
19939W        W35748   2.128   3.441  11.241  0.0709 -0.1121 -0.1259
19940W        W35749  11.361  12.448   0.508  0.1164  0.0764  0.1176
19941W        W35750   0.334   9.486   1.660  0.1461 -0.3752  0.0581
19942W        W35751   6.181   6.758  13.838 -0.2396  0.3928  0.2108
19943W        W35752  11.257  14.066   9.446 -0.0195 -0.1396  0.0786
19944W        W35753  10.979   6.143   0.322  0.2647 -0.1774 -0.1658
19945W        W35754   0.345  15.699   1.493  0.3480 -0.1995 -0.1454
19946W        W35755  17.212   2.597   0.154  0.0928  0.0215  0.2632
19947W        W35756   7.952  16.760  10.708 -0.0818  0.1069  0.2594
19948W        W35757  18.158  12.334   5.021  0.0418  0.0178 -0.0548
19949W        W35758  12.933  12.314  12.219 -0.3281 -0.1449 -0.2435
19950W        W35759   5.790   8.084   1.051 -0.2420 -0.1250 -0.1000
19951W        W35760  18.170   8.578   0.124  0.0340  0.0464  0.1104
19952W        W35761   8.785   3.998  15.833  0.1034 -0.0937  0.0561
19953W        W35762  12.242  11.961   2.344 -0.1744 -0.3126  0.2266
19954W        W35763   0.182   4.546   0.214  0.2774 -0.4955  0.1065
19955W        W35764   0.530   8.694   2.234 -0.0435 -0.1533 -0.2082
19956W        W35765  16.625  17.061   0.173 -0.3378 -0.1896  0.0689
19957W        W35766  18.281   5.028   1.772  0.1042  0.0494  0.0126
19958W        W35767  18.234   3.690   4.364  0.3241 -0.2093  0.0617
19959W        W35768   4.436  16.791   3.974  0.0396  0.1470  0.1167
19960W        W35769  10.145  16.837   3.730 -0.0293 -0.1283 -0.0972
19961W        W35770  18.150  12.862   2.318 -0.2614 -0.0906  0.1202
19962W        W35771   0.478   1.101   1.994  0.1357 -0.0740 -0.1150
19963W        W35772   6.427   9.802  11.249 -0.0334 -0.0131  0.0724
19964W        W35773  12.778  16.340  13.793 -0.1782  0.0708 -0.3057
19965W        W35774  17.221  11.408   3.554  0.2128  0.2969  0.2670
19966W        W35775  15.358   5.024   5.192  0.0685 -0.0091  0.1805
19967W        W35776   7.196  17.918   6.146  0.0859 -0.1466  0.1427
19968W        W35777  10.364   4.798   5.773 -0.3076  0.0028 -0.0642
19969W        W35778  18.395  17.644  11.439  0.1914  0.0637 -0.1827
19970W        W35779   0.996   9.373  14.327 -0.2283  0.1859 -0.1062
19971W        W35780  17.295   4.693  14.721  0.1523  0.0086  0.2970
19972W        W35781   6.039   3.751  10.444  0.1842 -0.1130  0.4448
19973W        W35782   2.913  11.158  14.423 -0.1387 -0.1878 -0.1923
19974W        W35783   3.413  17.669   1.523  0.0671 -0.3338 -0.0124
19975W        W35784   3.191   1.188  11.991 -0.0368  0.1638  0.1282
19976W        W35785  13.634  12.404  14.998 -0.0355  0.0595  0.0781
19977W        W35786   9.086  12.537  13.823 -0.2079  0.1383 -0.0933
19978W        W35787   9.995   8.155  11.279 -0.1455  0.1385  0.1732
19979W        W35788  18.245   2.341   2.251  0.1267 -0.0484 -0.0281
19980W        W35789   9.037  12.907   2.989 -0.1579 -0.0665 -0.0052
19981W        W35790  14.394   3.968   4.777 -0.0361  0.1745  0.0973
19982W        W35791   2.446   3.200   0.915 -0.1262 -0.0132 -0.0882
19983W        W35792   9.303  10.088  14.970  0.0961  0.0799  0.0470
19984W        W35793  17.810   5.847  15.506  0.1003  0.0349 -0.0404
19985W        W35794   9.580   2.869   2.734  0.0733  0.0406 -0.0392
19986W        W35795   1.029  10.510   2.439  0.1020 -0.0384  0.2234
19987W        W35796   2.176   4.287  15.304  0.0475 -0.3594 -0.0903
19988W        W35797  10.921   7.290   1.241  0.0989 -0.1531  0.3139
19989W        W35798  10.738   9.518   3.225 -0.1311  0.0408 -0.1189
19990W        W35799  15.323   8.598  12.256 -0.1054  0.0907 -0.0176
19991W        W35800  11.622   4.356  11.961  0.0031  0.1155 -0.0461
19992W        W35801  17.896  18.233  12.949 -0.1259  0.1880 -0.0597
19993W        W35802   5.175   6.919   4.895 -0.0644  0.0442 -0.1768
19994W        W35803   6.759  17.378  14.276 -0.1922  0.2691  0.1551
19995W        W35804  10.215  18.416  13.992  0.2968  0.0862  0.2262
19996W        W35805  14.990  14.278  14.863 -0.4288  0.1107 -0.1478
19997W        W35806   4.661  18.027   5.951 -0.0732 -0.0248 -0.0873
19998W        W35807   6.814  18.025   3.873  0.3135  0.1575 -0.0157
19999W        W35808   9.524   1.260  10.419  0.2578 -0.1610 -0.3196
20000W        W35809   8.719  14.110   0.641  0.0626 -0.1045  0.0232
20001W        W35810  10.732   2.855  15.323  0.0183  0.1881  0.0276
20002W        W35811  16.911   8.967  13.290 -0.1073 -0.0050 -0.0704
20003W        W35812  13.209   2.983   1.100  0.0308 -0.0038  0.3085
20004W        W35813  17.932  16.206   4.766  0.0170  0.2184 -0.0003
20005W        W35814  17.795  17.890   3.424  0.1348  0.0111 -0.0297
20006W        W35815  15.181   5.677  14.812  0.0408 -0.0751  0.2235
20007W        W35816   7.698  11.819  14.148 -0.1597 -0.1561  0.0542
20008W        W35817   5.271   2.179  11.903 -0.0238  0.0243  0.1760
20009W        W35818  12.035   8.704  13.571  0.0996 -0.2912 -0.2871
20010W        W35819  10.596   9.595   0.461 -0.4060 -0.2032 -0.1742
20011W        W35820  18.051   9.194   3.348  0.1688  0.2820 -0.2134
20012W        W35821   6.102  11.221  13.627 -0.0637 -0.3240 -0.1400
20013W        W35822  10.453   3.975  12.099  0.0808 -0.0421  0.1905
20014W        W35823   9.759  13.313   4.189 -0.0924 -0.1434  0.1974
20015W        W35824   8.629  11.076  12.442  0.0474  0.1023  0.1281
20016W        W35825   7.652  14.385  13.259  0.0452  0.0104  0.1364
20017W        W35826  12.453   6.762   4.823  0.6324 -0.0253 -0.2090
20018W        W35827  10.668  13.645   1.689 -0.0352 -0.2710  0.0682
20019W        W35828  15.566   6.920   5.441 -0.1295 -0.0929  0.1980
20020W        W35829  12.716  11.429  15.574 -0.0258  0.0347 -0.1785
20021W        W35830   4.994   3.403   3.804 -0.2074 -0.1819  0.1651
20022W        W35831  17.891   2.224  15.604 -0.2318  0.1256  0.0976
20023W        W35832   6.535  11.392   4.177 -0.1168 -0.0867 -0.0114
20024W        W35833  12.241   8.475   3.017 -0.0949  0.1078 -0.0331
20025W        W35834  11.137  15.019  15.141 -0.1041  0.0723 -0.1910
20026W        W35835  12.613   3.237  12.899  0.1154 -0.0950  0.3031
20027W        W35836   0.763  16.958   1.359 -0.1545  0.2239 -0.0954
20028W        W35837   2.699   4.969   1.922  0.0796 -0.1958 -0.1281
20029W        W35838   7.027  17.503   3.755  0.1918  0.2181  0.1247
20030W        W35839   3.023  16.555   1.521 -0.1644 -0.3080  0.0993
20031W        W35840  14.239   1.071  15.091 -0.1137 -0.1342  0.0706
20032W        W35841   4.955  12.780   4.982 -0.0221  0.1305  0.0125
20033W        W35842  18.434  16.794   1.111 -0.1200 -0.0495  0.0449
20034W        W35843  12.798  14.146  12.395 -0.2014 -0.3867 -0.0439
20035W        W35844   5.290  11.857   0.091 -0.0107 -0.1076  0.1494
20036W        W35845   7.332   6.118   0.305  0.0654  0.4610 -0.0209
20037W        W35846   9.567   0.625  14.793  0.1236  0.0282  0.0139
20038W        W35847  11.035   6.787  15.598  0.2148  0.0221 -0.0480
20039W        W35848  11.064   7.843  14.603 -0.0042 -0.0702  0.1072
20040W        W35849   3.891  12.349  15.654 -0.1115 -0.1693 -0.0799
20041W        W35850   3.954  17.467  15.617 -0.0851  0.0225  0.1566
20042W        W35851  12.758  14.190  10.586  0.0353  0.2405 -0.0072
20043W        W35852  12.842   4.381  15.028 -0.0734 -0.1240  0.2076
20044W        W35853   5.176  12.762   2.528  0.0552 -0.1754 -0.1735
20045W        W35854   5.086   3.925   3.940  0.1922  0.1285  0.0179
20046W        W35855   6.633   9.843  14.785  0.1069  0.3556 -0.0646
20047W        W35856  12.098  17.492   1.031  0.1751  0.2333 -0.1086
20048W        W35857   6.697  16.248   4.448  0.1289 -0.3273 -0.0545
20049W        W35858  11.191   0.732   3.535 -0.2196 -0.0138 -0.1469
20050W        W35859  16.811  11.521   0.874  0.1579 -0.0254 -0.2660
20051W        W35860   5.265   9.335  12.356 -0.3624 -0.0253  0.1747
20052W        W35861   4.837  13.454  15.411  0.0973 -0.0130 -0.2860
20053W        W35862  15.589   8.199   1.001  0.0517 -0.1168 -0.2346
20054W        W35863  16.438   8.243  11.400  0.0432  0.0784 -0.0183
20055W        W35864  10.069   7.274   2.007  0.1320  0.0722 -0.1974
20056W        W35865  17.827   6.128  12.165  0.1411 -0.0916 -0.1026
20057W        W35866   7.496   7.638  12.294 -0.2607  0.0102 -0.4139
20058W        W35867   2.668   4.876  14.469  0.0224 -0.1494  0.0090
20059W        W35868   2.635   2.721   1.623 -0.1161  0.1042 -0.3251
20060W        W35869   2.869   0.555   4.052  0.1414  0.0925  0.1462
20061W        W35870  17.097  17.237   0.127  0.0086  0.1355  0.3495
20062W        W35871   2.407   5.546   2.664 -0.3369  0.1326  0.1125
20063W        W35872  16.607   0.995  13.186  0.0573  0.0040  0.0130
20064W        W35873   5.711   2.064   1.423  0.0666 -0.1827 -0.0205
20065W        W35874  18.084  16.013   1.097 -0.1730  0.0877  0.0339
20066W        W35875   8.585  15.570  13.627  0.1641  0.1755 -0.0707
20067W        W35876  16.686   9.840  11.521 -0.0463  0.1065  0.0345
20068W        W35877  11.741   4.291  13.145  0.2293 -0.1978  0.0303
20069W        W35878   4.264   7.044  11.470 -0.2808 -0.1787  0.2578
20070W        W35879  12.574   9.505  13.475 -0.2901  0.3094 -0.2756
20071W        W35880  10.328  10.729  11.331  0.1313 -0.0456  0.1482
20072W        W35881   5.669  14.137  11.052 -0.1357  0.6242 -0.1270
20073W        W35882  12.331  11.240  15.838 -0.1958 -0.0296 -0.1554
20074W        W35883  12.562  13.831   4.001 -0.0287  0.0268  0.0590
20075W        W35884  12.755   2.660   4.818 -0.2251  0.1414  0.0610
20076W        W35885   4.650  10.412  11.756 -0.2254  0.5234  0.3401
20077W        W35886   9.435  12.529   1.200 -0.1739 -0.0282  0.1708
20078W        W35887   3.754  11.019   2.303  0.0536 -0.1047 -0.0209
20079W        W35888  18.242  11.865  14.326  0.0283 -0.2927 -0.0071
20080W        W35889  17.758   7.649   5.393  0.4763 -0.2347  0.2192
20081W        W35890   5.072   4.093   3.000 -0.0612 -0.1231 -0.3474
20082W        W35891   5.518  10.855   2.950 -0.2477 -0.0468 -0.1560
20083W        W35892   2.516   4.513  12.719 -0.1923 -0.4998  0.1544
20084W        W35893  13.791  18.318  13.213  0.1928 -0.0959 -0.0359
20085W        W35894  15.120   4.940   3.186  0.0713  0.2530  0.3009
20086W        W35895   7.066  13.159   2.370  0.0577  0.0426 -0.0979
20087W        W35896  18.228   6.443  12.224 -0.0697  0.1318 -0.0811
20088W        W35897  13.979  16.313   0.717 -0.0797 -0.1248 -0.1360
20089W        W35898  11.434   2.022  14.028 -0.0198 -0.1939 -0.1362
20090W        W35899   2.359   9.948  15.153  0.0348  0.2723 -0.0376
20091W        W35900  18.354   4.186   0.996 -0.1924  0.0207  0.1819
20092W        W35901   8.941   1.273   1.402  0.3149 -0.1713 -0.0949
20093W        W35902   6.757   5.021  12.420 -0.0634  0.1599 -0.0178
20094W        W35903   9.727  12.041   3.888  0.0317  0.1204 -0.1562
20095W        W35904   7.924  10.399  13.825  0.0576 -0.2765 -0.1060
20096W        W35905  10.922   0.399  12.016  0.0242 -0.0510  0.1461
20097W        W35906  15.710   9.775  11.742 -0.0959  0.0976 -0.2178
20098W        W35907   4.692   9.518  13.893 -0.1648  0.1352  0.0306
20099W        W35908  11.062   9.299  11.930  0.0436 -0.4960 -0.2442
20100W        W35909   8.880  14.943  14.934  0.0454 -0.1005  0.1848
20101W        W35910   8.400   9.938   4.225  0.0224 -0.0827 -0.1501
20102W        W35911   6.357  12.847   2.901  0.2059  0.5049  0.0334
20103W        W35912   0.804   8.348  15.556 -0.2246 -0.0405  0.0306
20104W        W35913  14.219  15.172  13.070 -0.0953 -0.1113  0.0012
20105W        W35914  14.400   5.881   2.296  0.1540  0.0567  0.1132
20106W        W35915   2.413   6.030   3.634  0.1473 -0.2754 -0.0425
20107W        W35916  15.209  18.236   4.176 -0.0012  0.3651  0.1007
20108W        W35917  18.278   5.208   0.052 -0.2267 -0.2060 -0.1325
20109W        W35918   3.973  15.728  15.148  0.2115 -0.1824  0.1868
20110W        W35919   3.458  17.498  13.156  0.0844  0.0549 -0.1557
20111W        W35920  12.070   8.370   3.496 -0.0363 -0.0887  0.1237
20112W        W35921   6.836   1.329  13.118 -0.0643  0.1229 -0.4219
20113W        W35922  18.200   6.415  13.550  0.0775 -0.3760 -0.1283
20114W        W35923  11.420   8.916   2.685  0.2137  0.0234 -0.1260
20115W        W35924   8.331  13.299  14.465 -0.0723  0.5240 -0.0497
20116W        W35925  11.767  12.366  15.568 -0.2656 -0.2900  0.1558
20117W        W35926   2.089  17.565   3.363  0.5132  0.0021 -0.0482
20118W        W35927   9.327  16.683  14.919 -0.3002  0.1521 -0.0740
20119W        W35928  14.479   9.346   4.642 -0.3346  0.3096 -0.0258
20120W        W35929   1.601  11.226  15.682  0.0818  0.0702 -0.1240
20121W        W35930   0.324  16.794  11.497 -0.0112  0.1283 -0.2387
20122W        W35931  13.219  15.508  12.029 -0.2350  0.1932 -0.2501
20123W        W35932   6.264   7.644   0.323  0.1511  0.5965 -0.1579
20124W        W35933   0.420   7.678   3.259  0.1418 -0.0130  0.1295
20125W        W35934  17.479  11.709  13.993  0.2291 -0.0869  0.0452
20126W        W35935  11.120   6.856   3.070  0.0523 -0.3096  0.4238
20127W        W35936  18.362   0.667  15.008 -0.3479 -0.2192 -0.0852
20128W        W35937  16.763   2.132   1.131  0.2058  0.3300  0.0197
20129W        W35938   5.759   5.373  14.756  0.0229  0.0630  0.0376
20130W        W35939   9.981   5.599   3.181  0.0632 -0.3188 -0.1060
20131W        W35940  13.291  10.658   5.428 -0.2328  0.0446 -0.1589
20132W        W35941  13.495   5.992   4.853 -0.0208 -0.0638  0.1716
20133W        W35942  11.827   8.144  13.472  0.1851  0.1182  0.0077
20134W        W35943   0.011  15.264   3.083  0.2884 -0.1965  0.2118
20135W        W35944  11.813   6.774   3.734 -0.2133  0.0525 -0.0123
20136W        W35945  17.020   5.441  15.155  0.2536 -0.0594 -0.1150
20137W        W35946   9.720   7.967   1.546 -0.0167  0.1766 -0.4091
20138W        W35947  15.464  10.488  14.545  0.0658  0.0942 -0.3930
20139W        W35948   0.257  14.711   0.007 -0.0122 -0.1966  0.3523
20140W        W35949   3.482  12.146  11.051 -0.3348  0.0564 -0.2990
20141W        W35950   7.076   7.823   2.932 -0.1919 -0.2977 -0.0775
20142W        W35951  10.254   6.808   3.295  0.2300  0.1792 -0.0983
20143W        W35952   9.473  12.435   2.497 -0.0680 -0.0905  0.0767
20144W        W35953  16.124   3.131   1.818 -0.1511 -0.1349 -0.1566
20145W        W35954   9.731  14.586  15.327  0.2429  0.2325 -0.1649
20146W        W35955   9.766   2.549  13.548 -0.0759  0.2656 -0.4593
20147W        W35956  15.286   2.473  12.001 -0.1887 -0.2153  0.0473
20148W        W35957  14.382   3.448  12.551  0.0071  0.0620  0.1800
20149W        W35958   3.890  10.457   4.658 -0.0519  0.1515 -0.1497
20150W        W35959  15.982   8.359  11.834  0.1553 -0.2771 -0.3239
20151W        W35960  11.172  16.455  14.007  0.2862  0.2132 -0.0546
20152W        W35961   7.571   9.382   0.816  0.0957  0.1975 -0.1431
20153W        W35962   5.064   2.034   5.832 -0.1333  0.0540  0.1701
20154W        W35963   8.947   9.308  12.333  0.2145  0.3934 -0.1384
20155W        W35964   1.158   0.491  15.140 -0.2117 -0.0451  0.2239
20156W        W35965  14.707  15.817   4.526 -0.2104  0.4488  0.0315
20157W        W35966   2.098   1.202   5.689  0.0586  0.0745 -0.1255
20158W        W35967   3.353  13.772  14.887  0.2988  0.0287  0.0577
20159W        W35968  16.681   3.948  15.581 -0.1433 -0.0239  0.1878
20160W        W35969  17.585   4.532   1.091  0.0122  0.2571  0.1107
20161W        W35970   7.658   9.474  12.850  0.2606 -0.1699  0.0180
20162W        W35971  17.259   2.627   4.016 -0.0714 -0.0985  0.0592
20163W        W35972  16.272   7.713   1.335 -0.0384 -0.0218 -0.3281
20164W        W35973  11.393  17.350   3.561 -0.0115 -0.0370  0.4248
20165W        W35974  13.647   5.911  13.217 -0.1728  0.0451  0.0521
20166W        W35975   7.551  10.111   3.788 -0.0551  0.0395 -0.0953
20167W        W35976   9.613  17.731   3.861  0.0007 -0.0099 -0.1194
20168W        W35977   3.044  10.019  11.501  0.1418  0.0653  0.0664
20169W        W35978  13.873  17.379   3.782 -0.0081 -0.0437  0.3521
20170W        W35979   8.916   4.805  15.142  0.0832 -0.3584 -0.0494
20171W        W35980   6.522  12.299   5.497 -0.3803  0.1390  0.1364
20172W        W35981  10.558  11.535  13.009  0.0305  0.2525 -0.2052
20173W        W35982   3.914  12.664   4.164  0.0301 -0.1728  0.0259
20174W        W35983  12.796   1.621   1.122  0.0060  0.3354 -0.3141
20175W        W35984   5.544   9.333  11.621  0.0799 -0.2374 -0.2235
20176W        W35985   5.131   7.937  12.048 -0.0491  0.0458 -0.3732
20177W        W35986   4.317   7.276  15.044 -0.3337  0.1691  0.0017
20178W        W35987  17.063  14.185  14.797 -0.0629 -0.1483 -0.4319
20179W        W35988   5.024  16.020   0.892 -0.1086 -0.3358  0.0031
20180W        W35989  11.521  10.838   5.376 -0.0227  0.0395  0.0852
20181W        W35990  17.704  13.066  14.575 -0.4480  0.1745 -0.0179
20182W        W35991  10.057  13.679   4.619 -0.0969  0.0484 -0.2043
20183W        W35992   3.641  13.630   2.981 -0.0082 -0.1406 -0.1099
20184W        W35993   1.554  16.244   2.405  0.0093  0.1233 -0.1960
20185W        W35994   7.495   1.882  13.891 -0.1290  0.0791 -0.2699
20186W        W35995  12.767   4.987   0.464  0.1003  0.1712 -0.1651
20187W        W35996   5.521   2.477  12.857 -0.0739 -0.0218 -0.1076
20188W        W35997  14.394   3.310   1.097 -0.0411 -0.1364  0.1337
20189W        W35998   4.899   4.927   4.008 -0.1730  0.2316 -0.0986
20190W        W35999  12.074  11.691  15.784 -0.3670  0.1963  0.2847
20191W        W36000   4.605  11.559   2.236 -0.0473 -0.0587 -0.2154
20192W        W36001  11.564   0.216   3.564 -0.0893 -0.1744 -0.0915
20193W        W36002  15.038  17.778  12.365  0.3165 -0.2371 -0.0424
20194W        W36003  10.484  17.797   1.786  0.1667 -0.1597  0.0665
20195W        W36004   8.949  16.921  12.899  0.2580 -0.0464  0.0049
20196W        W36005  17.561   8.117   2.050  0.0295  0.2094  0.1951
20197W        W36006  11.583   7.131  15.112 -0.0843 -0.0756 -0.1591
20198W        W36007  13.188  14.636  11.783 -0.2756 -0.1714  0.4451
20199W        W36008   1.456  10.052   6.057 -0.0719 -0.3407 -0.0033
20200W        W36009  11.605  16.163  14.015  0.2207  0.0213  0.2270
20201W        W36010   3.796  13.701  12.683 -0.3784 -0.1448  0.1703
20202W        W36011   2.125   6.455   4.882  0.3971 -0.3304  0.2638
20203W        W36012   6.081   8.729  12.268 -0.0634 -0.1059 -0.1850
20204W        W36013   7.433  17.815   4.924  0.3120  0.3949  0.2342
20205W        W36014   3.415  14.610  11.084 -0.1314 -0.1111 -0.1209
20206W        W36015   8.466  15.955   5.010  0.1030  0.1902  0.2115
20207W        W36016  10.965  17.145  10.451 -0.0228  0.1753  0.1997
20208W        W36017  14.442   2.986   4.719 -0.0741  0.1983 -0.1721
20209W        W36018   1.240   9.179   3.791  0.1139  0.0671 -0.0301
20210W        W36019   4.946   9.187   1.153  0.0660  0.1353 -0.0267
20211W        W36020  16.274   3.396   5.943  0.1284  0.0554  0.0347
20212W        W36021   4.773  17.889   1.752 -0.0801 -0.1212 -0.1990
20213W        W36022   6.552  11.723   2.438  0.0655  0.1571  0.0892
20214W        W36023  13.547  18.333  15.680 -0.0108  0.1467  0.0685
20215W        W36024  17.750   2.614  14.601  0.1970 -0.2334 -0.1196
20216W        W36025   8.214   3.757   3.795 -0.1766  0.1281 -0.0269
20217W        W36026  12.114   9.725   5.271 -0.2725 -0.1761  0.2031
20218W        W36027   0.621  15.056   2.229  0.0313 -0.1667  0.2533
20219W        W36028  10.388   1.593   3.878 -0.1948 -0.1688 -0.0531
20220W        W36029  10.720   8.035  14.911 -0.2100  0.3631 -0.2889
20221W        W36030  12.582   5.075  11.129  0.1613  0.1268  0.1977
20222W        W36031   3.555  14.569  12.730  0.0551 -0.2372  0.0609
20223W        W36032  11.025   7.959  13.697 -0.1353 -0.0244  0.1130
20224W        W36033   7.588   2.883  11.002 -0.0621  0.0668 -0.0658
20225W        W36034  15.563   2.540   1.760  0.0985 -0.0334 -0.2727
20226W        W36035  11.544   2.996   0.875  0.0906  0.0217  0.0197
20227W        W36036   3.799  17.973  14.589 -0.1213  0.1539 -0.0042
20228W        W36037   5.498   6.885   1.254  0.0719 -0.0154  0.0176
20229W        W36038  15.446   5.085   2.748 -0.0770  0.1408 -0.1573
20230W        W36039   5.708  18.313   2.817  0.2034  0.1535 -0.1671
20231W        W36040   8.996  14.128  15.020 -0.0552  0.0433 -0.1548
20232W        W36041   2.685  15.298   3.230 -0.2483 -0.0877  0.3006
20233W        W36042  17.225   2.476  12.246  0.0900  0.3313 -0.1045
20234W        W36043   9.182   5.953  12.452  0.0780  0.0861 -0.0374
20235W        W36044   1.203   7.750   3.688 -0.3584  0.1899  0.2732
20236W        W36045   7.050   9.812   2.967 -0.1927 -0.1370 -0.0398
20237W        W36046   7.945   9.111  14.398 -0.1214  0.0392 -0.1563
20238W        W36047  13.644   4.436  15.432 -0.3005  0.0319  0.3204
20239W        W36048   6.389  18.292  15.132 -0.3807 -0.1182  0.1660
20240W        W36049   3.018  12.061  12.541 -0.1770 -0.0843 -0.0470
20241W        W36050   9.693   3.093  13.365 -0.0887 -0.0598  0.2169
20242W        W36051  10.471   1.453  13.443  0.1522 -0.3161  0.1471
20243W        W36052  10.440   9.267  13.345  0.1118  0.1149 -0.2148
20244W        W36053   5.375   6.281  15.495  0.0784  0.1679  0.0532
20245W        W36054   8.771   0.935  13.189 -0.1114  0.0239 -0.2390
20246W        W36055   7.425   4.411   0.707  0.0121  0.1523 -0.2474
20247W        W36056  11.568   6.225  10.459 -0.0585 -0.0191 -0.2017
20248W        W36057  13.800   3.244  15.646  0.0382  0.0194 -0.0356
20249W        W36058  10.373  14.448   0.640 -0.0575 -0.5229  0.1798
20250W        W36059   0.124  14.312   0.263 -0.1672 -0.0832  0.1313
20251W        W36060  14.894  14.353   1.973  0.1876  0.0608 -0.1143
20252W        W36061   2.558   7.260   1.143 -0.1807  0.1181  0.2289
20253W        W36062  17.543   5.440   3.007 -0.1775 -0.2072  0.0831
20254W        W36063  10.786   6.636   0.694  0.2760  0.0450  0.1563
20255W        W36064   6.995   6.063   4.037  0.2702  0.0011  0.3433
20256W        W36065   4.540  10.477   4.118  0.3099  0.2214 -0.2214
20257W        W36066   0.544  10.836  11.516 -0.2060  0.3660 -0.3024
20258W        W36067   2.238   3.542   2.698 -0.0545  0.1210 -0.1112
20259W        W36068  10.182   5.876  10.950  0.1199  0.1296 -0.0162
20260W        W36069  12.257   7.258   5.508  0.2183 -0.2083 -0.0337
20261W        W36070  14.943   8.299  15.080  0.1063  0.0751  0.1060
20262W        W36071   7.564   1.167   2.097 -0.2810 -0.1212  0.0258
20263W        W36072   3.380  14.699   5.646  0.5179 -0.2468 -0.2440
20264W        W36073   8.951  18.171   5.857 -0.0269 -0.2351 -0.2152
20265W        W36074  12.322   4.563  11.194  0.0274 -0.2918  0.3992
20266W        W36075   8.466   1.591  14.591  0.2349  0.1060  0.0490
20267W        W36076  15.554  17.490   3.405 -0.0729 -0.0184  0.1370
20268W        W36077   4.805   2.745  14.358  0.0334  0.2087 -0.0473
20269W        W36078   9.854  11.458   4.468  0.0823 -0.0596  0.0696
20270W        W36079   7.382   7.445  11.270  0.4114  0.2678  0.3824
20271W        W36080   0.503   2.424  14.318  0.1856  0.2087 -0.1752
20272W        W36081   2.321  16.280   0.801  0.1931 -0.0016  0.0013
20273W        W36082   9.109  14.599   1.521  0.2619 -0.1446 -0.0414
20274W        W36083  15.426   4.997  14.242 -0.1053 -0.1659 -0.0821
20275W        W36084   2.925   5.558   5.330 -0.0608  0.0310  0.0061
20276W        W36085   0.536  15.455   1.023  0.1267 -0.0090  0.2094
20277W        W36086   2.161   4.289  13.838  0.1450 -0.0748  0.1950
20278W        W36087  11.369   4.016   3.885 -0.2772 -0.1073  0.1912
20279W        W36088   5.390   8.711   5.531  0.3024  0.2253 -0.0473
20280W        W36089   4.441   0.060  14.212  0.0070 -0.1629 -0.0740
20281W        W36090  14.904  10.143   5.327 -0.1011 -0.0392 -0.0893
20282W        W36091  16.992  16.718  11.247  0.0300  0.0159 -0.0311
20283W        W36092  14.862   9.194  13.568  0.2503  0.0630 -0.3231
20284W        W36093  17.739   6.037   2.337 -0.0944  0.0104  0.1784
20285W        W36094   8.689  13.704   0.312 -0.2614 -0.0738  0.2430
20286W        W36095  14.020  14.887   2.401  0.1157  0.0700 -0.0749
20287W        W36096   0.682   4.469   1.091 -0.0146 -0.1778  0.0982
20288W        W36097  13.882   7.916   3.242 -0.1115 -0.0388  0.1955
20289W        W36098   6.098   8.954  14.015  0.1038 -0.0723  0.0697
20290W        W36099  14.954   8.100   4.471 -0.1638 -0.0078 -0.0197
20291W        W36100  17.225  10.821   0.610  0.2732  0.1975  0.2717
20292W        W36101   7.529  10.322  13.345  0.0979  0.1337 -0.0382
20293W        W36102   0.962   4.352   2.725  0.2935  0.1510  0.1062
20294W        W36103  10.574  16.232   5.321  0.3940 -0.3818 -0.2043
20295W        W36104   3.921  17.307  13.953  0.0764 -0.4065 -0.0872
20296W        W36105  16.426   2.264   1.528  0.2539  0.0048 -0.0068
20297W        W36106  16.440  14.884   0.227 -0.0121 -0.1666  0.2725
20298W        W36107  11.822  16.083  14.707 -0.0875  0.2785 -0.3271
20299W        W36108  11.564  15.165   4.579 -0.0628  0.0334  0.0791
20300W        W36109   4.319  12.423  14.262  0.0967  0.0034  0.0351
20301W        W36110  13.934  13.054   1.214 -0.0700  0.1581 -0.0940
20302W        W36111  15.176  15.070   2.267 -0.0983  0.3306  0.1164
20303W        W36112   2.045   0.638   3.022  0.2665  0.2473  0.3311
20304W        W36113   1.280   8.207   5.530 -0.1265 -0.0129  0.1148
20305W        W36114  18.435   8.049  14.983 -0.1807 -0.2560 -0.1855
20306W        W36115  11.524   0.616   0.570  0.1782  0.0672  0.0434
20307W        W36116   0.957   4.703   1.714 -0.2651 -0.1097 -0.1075
20308W        W36117   4.358  10.249  10.762 -0.0925  0.2803  0.2733
20309W        W36118   3.567  14.815   1.561  0.1118 -0.0173 -0.0078
20310W        W36119  17.847  14.063   3.366  0.0613 -0.1596 -0.0541
20311W        W36120  17.914  15.943   0.623  0.0296  0.0115  0.1415
20312W        W36121   5.281  12.373  12.025  0.0475  0.1340  0.1355
20313W        W36122  11.945  12.458   3.183  0.2111 -0.2615  0.0299
20314W        W36123   9.567  17.202  12.656  0.1716  0.1996  0.2347
20315W        W36124   3.943   5.396  14.736 -0.2725  0.0421  0.0614
20316W        W36125  12.297  16.065   0.824  0.1748  0.0022  0.0942
20317W        W36126  16.227  18.171   4.804  0.0664 -0.1788 -0.2740
20318W        W36127   0.718  12.808   1.466  0.0799 -0.2374 -0.0120
20319W        W36128   1.675   1.441  12.413  0.2033 -0.3704 -0.0518
20320W        W36129   9.456   2.712  11.322  0.2462  0.3092  0.2079
20321W        W36130  13.982  16.130  14.355  0.1295  0.0962  0.0805
20322W        W36131  17.993   1.461  15.094  0.1226 -0.2503  0.0644
20323W        W36132   1.663   7.903   5.504 -0.3403 -0.1861 -0.1152
20324W        W36133   7.060   5.796   2.425  0.0121 -0.2446 -0.0977
20325W        W36134  15.109  10.571  11.561  0.0801 -0.1753  0.1887
20326W        W36135  10.052  13.517   0.538 -0.0275  0.2786  0.3753
20327W        W36136   2.918  13.195   2.915 -0.1992  0.2858  0.4501
20328W        W36137   8.540   1.836  13.078  0.0317  0.4076 -0.1714
20329W        W36138   6.434  13.678   0.433 -0.2912  0.1805 -0.1495
20330W        W36139   1.592   9.859  11.576  0.0220 -0.2455  0.1178
20331W        W36140   3.794  15.752   4.627 -0.1155 -0.1516  0.2203
20332W        W36141   4.511  14.627   2.477 -0.3192 -0.0684  0.0774
20333W        W36142   9.282  11.169   2.808  0.1823 -0.1902 -0.1812
20334W        W36143  15.390   0.522   5.017 -0.0551 -0.4886 -0.0441
20335W        W36144   1.367   1.091  15.228 -0.0009 -0.1546 -0.1824
20336W        W36145   2.266   0.950  12.080  0.2945  0.0772 -0.1949
20337W        W36146   4.676  15.552  11.176  0.0717  0.1415 -0.1163
20338W        W36147  18.199   8.518  12.048 -0.3781  0.0091  0.3250
20339W        W36148  12.324   6.306  15.101 -0.1030 -0.1880  0.2374
20340W        W36149  15.387   4.738   1.344 -0.0358  0.1003 -0.0059
20341W        W36150   8.608  10.014   1.591 -0.2519 -0.0992 -0.3010
20342W        W36151  14.963  17.617   1.301  0.0312  0.0149 -0.2877
20343W        W36152  17.097  17.513  14.043  0.1309  0.0394  0.0206
20344W        W36153   1.683  16.157  14.167  0.2226  0.2597  0.1239
20345W        W36154   8.892   4.559   1.578  0.2359  0.0771 -0.0929
20346W        W36155  10.340   5.232  14.933  0.1833 -0.0272  0.1310
20347W        W36156  16.835   7.761   5.705  0.0858 -0.0845  0.3332
20348W        W36157   8.932   2.198  15.589 -0.0838  0.0706 -0.2247
20349W        W36158  18.051  14.377   0.518 -0.0116  0.0161  0.1468
20350W        W36159   3.653   8.791  11.173  0.2276  0.0434  0.0868
20351W        W36160   7.204   4.206  12.685 -0.0755  0.2455  0.0152
20352W        W36161   8.938   2.864   1.677  0.0709  0.1747  0.3082
20353W        W36162   9.968   2.687   5.442 -0.1538  0.2423 -0.3206
20354W        W36163   1.562  12.260   4.677 -0.2393 -0.0063  0.0435
20355W        W36164  10.435  15.821  12.892 -0.1198  0.0088 -0.0233
20356W        W36165   0.969   1.228  11.628 -0.0223  0.1110  0.0596
20357W        W36166   8.680   1.678  15.488  0.1470  0.1825 -0.2248
20358W        W36167   8.789  15.592  11.581  0.2052  0.0814  0.1345
20359W        W36168  13.254  10.652  11.022 -0.5085 -0.0605 -0.0735
20360W        W36169  17.049   0.317  13.978 -0.0047 -0.0114 -0.0435
20361W        W36170   5.301  11.423   5.493 -0.0749 -0.4320  0.2118
20362W        W36171  13.093   8.757   3.428  0.0951 -0.1880 -0.1109
20363W        W36172  14.650  15.100  11.275  0.0495  0.2685  0.0109
20364W        W36173   0.268  14.522  11.001  0.1412 -0.3549 -0.0524
20365W        W36174   1.422   2.017  11.523  0.0121  0.0226 -0.0613
20366W        W36175  16.351   0.198  13.372  0.0010 -0.1652  0.0708
20367W        W36176   5.450   2.938   2.703  0.1883 -0.1219  0.0888
20368W        W36177   2.345   2.684   2.188 -0.2150  0.1693 -0.0237
20369W        W36178  15.918   2.903  14.254  0.1808  0.0471  0.1142
20370W        W36179   3.116   5.532  15.343  0.2482  0.0708  0.1604
20371W        W36180  10.294   1.084  11.645  0.2869 -0.0675  0.0297
20372W        W36181   3.977   9.113  11.177  0.1574 -0.0388 -0.2055
20373W        W36182   5.259   2.151  10.875  0.1321  0.0700  0.2186
20374W        W36183  17.426  17.590   0.103 -0.0890 -0.0956 -0.0489
20375W        W36184  12.952   9.623  11.281  0.0535  0.0864  0.2487
20376W        W36185   1.838   3.838   4.153 -0.2377  0.5350 -0.0544
20377W        W36186  16.488   7.512   0.673 -0.2284  0.0550  0.2964
20378W        W36187  13.436  13.750  11.107 -0.0785  0.0977 -0.2382
20379W        W36188  17.388  17.799  15.452 -0.3545  0.2018 -0.0192
20380W        W36189  17.740   3.330  10.601 -0.1474  0.1474 -0.1962
20381W        W36190  10.738  10.006   1.156 -0.0546  0.0155  0.1307
20382W        W36191   1.290  17.805  15.470  0.0870 -0.0858 -0.0744
20383W        W36192  16.190  14.174  13.462 -0.0821 -0.0820  0.1529
20384W        W36193   8.438   9.054  11.381 -0.0164  0.1278  0.1029
20385W        W36194   3.342  11.088   3.122  0.0994 -0.1372 -0.0685
20386W        W36195  15.545  18.269  11.197  0.0082 -0.1942 -0.0679
20387W        W36196   3.094  15.108   3.466 -0.1193  0.1868  0.0395
20388W        W36197  17.014   6.553  10.861 -0.1366  0.2603 -0.0907
20389W        W36198  13.353   8.968  12.427  0.2209  0.0876 -0.0048
20390W        W36199   3.755  13.485  10.992 -0.0185 -0.0428  0.0083
20391W        W36200  16.594  16.761   5.283 -0.0127  0.3401 -0.0627
20392W        W36201   6.809   4.574   4.172  0.0099  0.0241 -0.2329
20393W        W36202   1.627   6.934   0.720  0.2819  0.4854  0.0415
20394W        W36203  12.578  14.450  11.059  0.0004  0.0557 -0.0143
20395W        W36204   4.823   5.136   4.949 -0.2238 -0.1498 -0.2114
20396W        W36205  10.067  13.084   0.308 -0.0954  0.1034  0.0409
20397W        W36206   3.578  14.970   3.620 -0.1349 -0.0418  0.0573
20398W        W36207   0.173   0.263   3.183  0.3807  0.1623  0.0599
20399W        W36208  11.168   0.645  14.746 -0.0345 -0.0754 -0.1240
20400W        W36209  14.977   0.056  15.003 -0.1188  0.0513 -0.0813
20401W        W36210   2.713  18.135  11.690  0.0655  0.1100  0.0320
20402W        W36211   4.049  16.990  14.355 -0.2893  0.3921  0.1283
20403W        W36212  10.019   5.732  12.242  0.2280 -0.0201  0.1659
20404W        W36213  14.221   2.005   5.144 -0.3444  0.0979  0.2803
20405W        W36214   2.227  13.847   1.899  0.0285  0.2839  0.0682
20406W        W36215   4.657  13.771   1.002  0.0886 -0.4688  0.1288
20407W        W36216   8.598  13.109   1.612  0.1591 -0.0369 -0.0861
20408W        W36217  13.345   9.586  11.744 -0.0128  0.1069 -0.0405
20409W        W36218   3.583  12.104  15.362  0.2225 -0.1493 -0.0363
20410W        W36219   4.288  12.712   3.815 -0.1737  0.2289  0.0063
20411W        W36220   6.297   0.398  11.921 -0.2142 -0.0977 -0.3022
20412W        W36221   0.535   6.955   0.104  0.0641  0.3059 -0.0630
20413W        W36222  10.932  11.238  12.960  0.0137 -0.1005 -0.4051
20414W        W36223   2.762   4.034   3.258 -0.2667  0.1647 -0.2186
20415W        W36224  15.690   6.639   4.884 -0.0759  0.1683  0.1695
20416W        W36225   9.171  17.012   3.455 -0.1576 -0.1312 -0.0456
20417W        W36226   6.191   3.156  15.167  0.0466 -0.0286  0.0369
20418W        W36227  17.993   6.816   6.406 -0.0885 -0.0228  0.0316
20419W        W36228   1.186   9.003  15.708 -0.2103 -0.2379 -0.1417
20420W        W36229   5.477   8.104  13.371 -0.1667  0.2215  0.1387
20421W        W36230   1.950  15.298  11.596 -0.3080 -0.0458  0.1730
20422W        W36231  16.283  16.307   0.471  0.1592  0.0673  0.1405
20423W        W36232   0.935  13.752   5.236  0.2304 -0.1897 -0.1555
20424W        W36233   1.845  12.472   6.042 -0.0067 -0.1970 -0.1776
20425W        W36234   8.654   0.966   1.877 -0.3631 -0.2621  0.0330
20426W        W36235   7.394  17.662   5.436 -0.0830 -0.2968  0.1524
20427W        W36236  17.208   7.515   6.092 -0.0162  0.2557  0.1524
20428W        W36237   4.973  11.280  12.581  0.0318 -0.0782 -0.2180
20429W        W36238   9.125   8.587   0.487 -0.0923 -0.0189 -0.0571
20430W        W36239  14.572   0.327  13.480 -0.1149 -0.3126 -0.1280
20431W        W36240   7.251   3.123  11.895 -0.1299  0.0980 -0.3646
20432W        W36241   1.335  13.441  13.195  0.1744  0.2391  0.3540
20433W        W36242   0.304   5.808   2.105  0.0424 -0.2735  0.1850
20434W        W36243   8.580  14.693  12.741  0.2692 -0.0678  0.0163
20435W        W36244  16.581  12.308   3.814  0.1861  0.4608 -0.0082
20436W        W36245   7.813  12.389  15.391 -0.1081 -0.0853 -0.0325
20437W        W36246  14.752   5.233  12.454  0.0819 -0.2684 -0.0375
20438W        W36247  13.159   2.294  11.143 -0.1187 -0.0961  0.0615
20439W        W36248   8.425  15.361   2.924 -0.1825  0.1246 -0.1186
20440W        W36249  14.123   8.798   4.129  0.1673 -0.0479 -0.0512
20441W        W36250  14.965   8.406  13.598  0.0161 -0.2689 -0.2163
20442W        W36251   0.208   1.200   1.557 -0.0941 -0.0688 -0.2933
20443W        W36252   9.747  14.953   1.082 -0.1951 -0.0315 -0.1664
20444W        W36253   8.715  10.710  12.108  0.0704 -0.1740 -0.0046
20445W        W36254  16.349  17.446   2.754 -0.2228  0.1447 -0.0625
20446W        W36255  18.187  16.391  12.977  0.0409  0.2472 -0.1597
20447W        W36256  13.170  18.333   2.628  0.0328  0.2295  0.1167
20448W        W36257  16.283   2.666   4.176  0.1571  0.4572 -0.1789
20449W        W36258  13.273   6.552   2.083  0.1444  0.7169 -0.1470
20450W        W36259   4.658   4.468   9.783  0.1752 -0.0349 -0.0774
20451W        W36260   9.363   4.766  11.701 -0.2055 -0.3027  0.1516
20452W        W36261   9.853  15.290  15.581  0.0988 -0.1249  0.0715
20453W        W36262   0.708   7.222  15.549  0.0458  0.1013  0.0899
20454W        W36263   6.194  12.490  12.555  0.1347 -0.1111 -0.2309
20455W        W36264  16.658   1.956  13.870 -0.0936  0.0654  0.0032
20456W        W36265  15.457   5.390  11.897 -0.0416 -0.1510  0.0558
20457W        W36266   7.559   8.777   0.763 -0.3640  0.1666  0.0164
20458W        W36267   2.641  16.430  10.592 -0.2870 -0.3018  0.0908
20459W        W36268   9.669   4.278  14.260 -0.3770  0.2438  0.0341
20460W        W36269  17.559  14.925  12.863 -0.1758 -0.0229 -0.0872
20461W        W36270  13.688   0.725   4.144  0.0302 -0.3999 -0.0539
20462W        W36271  12.654  13.698   1.974 -0.2039 -0.0090  0.2399
20463W        W36272   0.907  13.930   3.302  0.1879 -0.1719  0.2219
20464W        W36273   6.500   0.491   4.317 -0.1615  0.1782 -0.2087
20465W        W36274   9.978  15.426  11.570 -0.0569  0.0356 -0.1895
20466W        W36275   0.224   4.457  11.456  0.2294 -0.1988  0.2654
20467W        W36276   0.798  12.416   0.214  0.0686 -0.0847  0.0493
20468W        W36277  18.064   2.126  11.246  0.0445 -0.0107 -0.2273
20469W        W36278   2.488  18.065  13.288 -0.3069 -0.4833  0.1128
20470W        W36279  13.773   8.047   0.521  0.0553 -0.1202  0.1714
20471W        W36280   0.040  13.802  10.066  0.3240 -0.0601 -0.0647
20472W        W36281   8.367   2.449  14.270  0.1318  0.2049 -0.3830
20473W        W36282   8.443  11.774  13.150  0.1391  0.3021  0.0616
20474W        W36283   4.678  16.395  10.801  0.3887  0.1295 -0.2287
20475W        W36284   2.593   5.331   0.881  0.1427  0.1616  0.1065
20476W        W36285  14.670   7.611   1.584  0.2347 -0.0082  0.0585
20477W        W36286  12.375   0.095  13.478 -0.2224  0.4419  0.0826
20478W        W36287  15.853  15.455   0.105  0.0060 -0.0412  0.4871
20479W        W36288  10.674   4.449  11.700  0.0202  0.0271  0.0952
20480W        W36289   8.608   2.106   3.246 -0.0325  0.0740 -0.0992
20481W        W36290  10.726   6.837   4.806  0.0132  0.2299 -0.1230
20482W        W36291   9.684  15.003  11.783  0.1144 -0.4036  0.3656
20483W        W36292  13.273   1.147  14.635  0.2038 -0.0238 -0.3623
20484W        W36293   6.222   4.498  11.362 -0.2952  0.0402 -0.0987
20485W        W36294   4.000  16.281  13.839  0.2374 -0.1652 -0.0761
20486W        W36295  10.362   5.277  15.459 -0.1914  0.0522  0.2169
20487W        W36296   1.137   6.429  10.301 -0.4323 -0.0153  0.2155
20488W        W36297  16.997  17.102   4.497 -0.1514  0.0266 -0.2268
20489W        W36298  14.402  17.386   1.359 -0.1421 -0.1620 -0.2755
20490W        W36299  16.633  14.092   3.979  0.0754  0.1207 -0.4054
20491W        W36300   0.975  13.213   4.479  0.0278 -0.1006 -0.3702
20492W        W36301   2.767  15.753   1.091  0.1135 -0.2209 -0.1301
20493W        W36302   4.525  16.144   3.801  0.0304 -0.1178 -0.1911
20494W        W36303   5.131  13.080   1.488 -0.1824 -0.2978  0.0976
20495W        W36304  10.132   8.546   0.760  0.0823  0.0244  0.1766
20496W        W36305  17.417  12.719   4.762 -0.2041  0.0106  0.1082
20497W        W36306  12.099  15.201  15.320 -0.1816 -0.1440 -0.3839
20498W        W36307  10.420   9.414   1.912 -0.0061  0.2613 -0.0006
20499W        W36308   4.926  15.955   1.437  0.0027  0.0485  0.2269
20500W        W36309   5.699  12.277  11.787  0.1024 -0.0805  0.0922
20501W        W36310  12.267  14.617   4.892  0.2729  0.2235 -0.0210
20502W        W36311   9.835   6.816  10.037 -0.1462 -0.1621 -0.0101
20503W        W36312   5.486  13.255   1.169  0.3239  0.1805 -0.1334
20504W        W36313   8.547   0.133  11.169  0.3168 -0.0721  0.0370
20505W        W36314   3.759  16.671  11.555  0.3813  0.0814  0.2433
20506W        W36315   6.944  12.618   5.710 -0.0583  0.0034 -0.0482
20507W        W36316   2.390   0.009   1.380  0.0530  0.0562  0.0896
20508W        W36317  12.910   7.566   2.519 -0.1846 -0.2400  0.0897
20509W        W36318  15.804  11.176   3.195 -0.0389  0.0103 -0.2012
20510W        W36319  14.307  11.887  13.664 -0.1912 -0.0985 -0.1772
20511W        W36320   1.348   4.397  14.456 -0.0296 -0.0856  0.3523
20512W        W36321  17.292   9.335   2.768 -0.1930 -0.1883 -0.2700
20513W        W36322   0.982   0.545   2.027  0.0700 -0.0779  0.0090
20514W        W36323   9.800   9.311  12.638  0.0899  0.0357  0.1369
20515W        W36324  10.478   8.260   0.403 -0.2576 -0.0429  0.0217
20516W        W36325   4.391  13.507   2.431  0.0315  0.3127 -0.0960
20517W        W36326  12.903   9.815   5.062  0.3315  0.0110 -0.2260
20518W        W36327   1.785   1.274   4.829  0.0183 -0.2752 -0.0300
20519W        W36328  15.069  14.010  12.884 -0.0445 -0.1656  0.3255
20520W        W36329   0.947   1.184  11.114  0.0333  0.0658 -0.3338
20521W        W36330   1.622   9.073   4.119 -0.0378  0.0255  0.2342
20522W        W36331   7.871   1.377  10.724 -0.5387  0.3232 -0.1641
20523W        W36332  15.181   1.574   2.513  0.0210 -0.0758 -0.1878
20524W        W36333  17.429  10.965   3.398 -0.0932 -0.0612 -0.0332
20525W        W36334   5.289  13.646  12.655 -0.2464 -0.2706  0.0007
20526W        W36335   9.564   9.907  11.354 -0.1211 -0.1606 -0.2318
20527W        W36336   4.505  12.074   4.558  0.0116  0.0619 -0.2470
20528W        W36337  14.217   0.971   2.112 -0.3612  0.1506 -0.0564
20529W        W36338  10.444  11.120   5.279 -0.3119  0.0407  0.2175
20530W        W36339  17.770  10.819  13.916  0.0340  0.2398 -0.0406
20531W        W36340   7.102  16.685  11.631  0.1986  0.3229  0.1019
20532W        W36341   4.796  11.408  12.085 -0.0539  0.0076  0.0776
20533W        W36342   4.912   4.988  14.386 -0.1628  0.0099 -0.0244
20534W        W36343   3.139  10.936  12.105  0.0179  0.0972  0.4480
20535W        W36344  15.486   1.329  12.718  0.1737 -0.0103  0.0540
20536W        W36345   4.260   6.428  11.341 -0.3640 -0.0978 -0.2765
20537W        W36346  16.713   7.128   2.702 -0.0915  0.2227 -0.2301
20538W        W36347   2.205   5.665   0.910  0.3567  0.0610 -0.1942
20539W        W36348   9.260   9.719   0.887  0.3427  0.2654  0.1546
20540W        W36349   3.866  15.169   4.528  0.0802  0.2889  0.0479
20541W        W36350   8.959   6.638  13.164  0.1889 -0.1260 -0.0193
20542W        W36351  13.883  11.349  15.302 -0.1145  0.1298  0.0161
20543W        W36352  11.569   9.954   2.920  0.2273 -0.0982  0.0418
20544W        W36353  12.190  16.883  15.713  0.1452  0.1657  0.1991
20545W        W36354   1.016  14.369  12.677 -0.1243  0.1044  0.1830
20546W        W36355  12.968   7.991  14.802  0.0864  0.1662  0.3642
20547W        W36356   7.641   5.862   4.167  0.0813  0.2226  0.0852
20548W        W36357   9.893   9.740  12.946 -0.3671  0.0130  0.1257
20549W        W36358  17.630   2.655   2.974  0.1767  0.0617 -0.1051
20550W        W36359   4.515   6.184  15.614 -0.0288  0.0447  0.0978
20551W        W36360  16.151   5.756  12.561  0.0844  0.2264  0.2603
20552W        W36361   5.560  17.019   2.879  0.4103 -0.1492 -0.3538
20553W        W36362   1.642   2.944  10.902  0.1072  0.2441  0.0427
20554W        W36363  10.127   1.682  14.463 -0.1989  0.2237 -0.3472
20555W        W36364  11.991  15.299   6.255  0.1163  0.2150 -0.0841
20556W        W36365   2.143   4.906   5.300 -0.1843 -0.3037 -0.0064
20557W        W36366  17.479   9.441   5.417 -0.3573 -0.1694  0.0197
20558W        W36367   7.889   5.704   1.616  0.0973  0.5837 -0.1534
20559W        W36368   6.323   4.256  10.355  0.2964 -0.1608  0.1040
20560W        W36369   5.434   8.584  14.070 -0.1281 -0.2467 -0.0199
20561W        W36370   3.696   1.314  11.908 -0.1668  0.2801  0.0119
20562W        W36371  15.538   8.337   1.921  0.0815  0.2087  0.1730
20563W        W36372  14.200   2.753   2.567 -0.2101 -0.0336  0.1943
20564W        W36373   1.056   9.113  13.816 -0.0485  0.2539  0.0212
20565W        W36374   4.000   9.371   3.184 -0.3313  0.1334 -0.4328
20566W        W36375  14.623   3.246   3.461  0.0547  0.2516 -0.0599
20567W        W36376   4.857  11.637  14.665 -0.0559  0.0135  0.2274
20568W        W36377   9.155  15.667  11.265  0.0179 -0.0103  0.2243
20569W        W36378  17.468   2.384   1.651 -0.4400 -0.0326 -0.3648
20570W        W36379   3.231   8.309  11.656 -0.2474  0.1790  0.0206
20571W        W36380   2.134  17.772  14.017 -0.1611  0.0512  0.0662
20572W        W36381   8.866   3.579   3.782  0.0689 -0.0711 -0.0602
20573W        W36382  11.152  16.133  11.807 -0.1992  0.3671  0.1588
20574W        W36383   2.072  14.314   1.698  0.1635  0.1039  0.2539
20575W        W36384  14.262   4.447  12.604 -0.1823 -0.1475  0.3557
20576W        W36385   3.982  17.104  11.647  0.0001 -0.0427 -0.2736
20577W        W36386  12.976  17.798  11.474 -0.1418  0.0725 -0.0180
20578W        W36387  17.830   9.259   2.054  0.2334  0.0563 -0.1398
20579W        W36388  11.863  13.561   0.050  0.0152 -0.3672  0.1827
20580W        W36389  18.088  14.422   2.633 -0.2387  0.0171 -0.0327
20581W        W36390   3.491  10.190   4.715 -0.1973  0.0751 -0.2822
20582W        W36391   0.508  15.299  11.319  0.1602  0.0638  0.1728
20583W        W36392   9.125   6.438   1.319  0.0404  0.2423  0.1370
20584W        W36393  16.420  13.527   2.010 -0.0257  0.0553 -0.0566
20585W        W36394   0.952   9.387   0.907  0.0671  0.1720  0.0631
20586W        W36395   9.310  10.325   4.603 -0.0183  0.2182  0.0800
20587W        W36396   4.223   6.711  14.446  0.0443  0.2808 -0.3652
20588W        W36397  11.524   3.358  15.543  0.0095 -0.1546  0.0749
20589W        W36398   6.801   7.067   5.749  0.0590  0.1245 -0.3306
20590W        W36399   7.333   9.475  12.332 -0.2424  0.1644 -0.0456
20591W        W36400   6.519   8.255   5.898 -0.2387 -0.2297 -0.3636
20592W        W36401  14.453   3.602   1.862  0.0096  0.0256  0.1018
20593W        W36402  13.038  18.343  12.716 -0.1273 -0.3550  0.0228
20594W        W36403  14.935  15.383  15.659  0.2372 -0.0302  0.0953
20595W        W36404  15.248   5.302  13.497 -0.1492  0.1623  0.0342
20596W        W36405   4.192  17.754  10.651  0.1030  0.2366 -0.0992
20597W        W36406   9.520   3.823  14.062 -0.1001 -0.0692 -0.0547
20598W        W36407   0.756   7.270   5.145 -0.0002  0.1238  0.1038
20599W        W36408   0.878  16.244   1.825  0.0022 -0.1870  0.0559
20600W        W36409   5.779  15.783   1.729 -0.1576 -0.1168 -0.1368
20601W        W36410  17.377   6.836   5.452  0.2717  0.0947  0.1639
20602W        W36411   8.173  12.346  13.812  0.0172 -0.3765 -0.2530
20603W        W36412  17.237  17.436   5.023  0.1906  0.1538  0.0968
20604W        W36413   0.631   6.001   1.836 -0.0246  0.0194  0.0497
20605W        W36414  11.542  17.404  15.617  0.0274  0.1377  0.1740
20606W        W36415  10.685   0.478   0.802  0.1607  0.1240 -0.0791
20607W        W36416   3.579   7.056  12.333 -0.1332 -0.0362  0.3905
20608W        W36417  12.624   9.577  12.261 -0.0323 -0.2490  0.1614
20609W        W36418   4.115   2.964   3.616  0.2503  0.2943 -0.0053
20610W        W36419  12.083  13.523   4.003  0.0769  0.0891 -0.0955
20611W        W36420   8.031  12.395   1.733 -0.3505 -0.1187  0.0841
20612W        W36421  11.639   3.080   0.373  0.1622 -0.1206  0.0479
20613W        W36422   6.791   2.907   2.552  0.0119  0.1977 -0.3976
20614W        W36423   9.604  12.178   5.281 -0.0881  0.3154  0.2487
20615W        W36424  13.912   0.939   1.243 -0.0650  0.0437  0.0611
20616W        W36425   8.972  17.616   3.209 -0.0651  0.0903  0.4275
20617W        W36426   3.057   5.415   4.469 -0.2282 -0.1383 -0.0224
20618W        W36427  17.560   1.748  12.067  0.1611 -0.1048  0.0896
20619W        W36428   9.936  17.639  15.038 -0.1369  0.0093 -0.2377
20620W        W36429  10.483  15.224  13.795 -0.0278 -0.3983  0.0191
20621W        W36430  14.105  17.532   4.827 -0.0752  0.1463  0.0467
20622W        W36431  12.338  17.759  13.986  0.1112 -0.0850  0.2104
20623W        W36432   9.345  14.181  12.225  0.3989  0.1564 -0.0147
20624W        W36433  16.543   3.117  13.151  0.1254  0.0149  0.0713
20625W        W36434  15.739   7.727   5.658 -0.0028 -0.1876  0.0883
20626W        W36435  16.989   1.278  15.010 -0.0610  0.2479  0.1387
20627W        W36436  12.261  14.197  15.304  0.0726 -0.1395 -0.0499
20628W        W36437   6.122  17.228   3.588  0.1278 -0.0675  0.4078
20629W        W36438   2.678   4.000   5.037  0.5581  0.0121  0.0816
20630W        W36439  17.935  11.178   5.364 -0.0960 -0.0014 -0.0183
20631W        W36440   7.710   3.833   3.112 -0.0871  0.0196 -0.2482
20632W        W36441   8.658   6.090   2.563  0.3123  0.1214  0.2427
20633W        W36442  10.724   8.700  14.280  0.1352 -0.3471  0.0508
20634W        W36443  10.349   3.712   0.777 -0.0815  0.0838 -0.4116
20635W        W36444   0.981   7.776  11.545  0.1199  0.2864 -0.0766
20636W        W36445   8.953  17.627  13.362 -0.0363  0.0579  0.1987
20637W        W36446   1.163   2.228   0.020  0.1992 -0.1537 -0.2276
20638W        W36447   9.298   4.713  14.366 -0.0064  0.2752  0.0525
20639W        W36448   1.375   4.923   3.627 -0.1142 -0.1735 -0.3069
20640W        W36449   1.299   0.783   5.764  0.0582  0.3065  0.1841
20641W        W36450   5.081  12.640  11.615 -0.0305  0.0511  0.1199
20642W        W36451  10.222   3.196   0.965  0.0123  0.1473  0.3576
20643W        W36452  11.985  10.134   3.742  0.0677 -0.2007  0.0332
20644W        W36453  13.283  14.289   1.619  0.1130 -0.1569  0.0201
20645W        W36454  18.047   6.224   0.098 -0.0357  0.4669  0.0080
20646W        W36455   7.911  10.702   1.932  0.1735  0.1244 -0.0631
20647W        W36456   1.321   7.958  14.776  0.3349  0.0297 -0.0874
20648W        W36457   5.256  15.277  15.410 -0.2264 -0.0129 -0.0955
20649W        W36458  15.581   4.137  11.880  0.2131 -0.1042 -0.1110
20650W        W36459   5.341  14.943   1.935 -0.1717  0.0591 -0.0210
20651W        W36460   7.206   6.618   0.272  0.4355 -0.0544 -0.0812
20652W        W36461  13.925   7.959  12.515 -0.2231  0.1784  0.4664
20653W        W36462  14.584  15.637   0.201 -0.0651 -0.0113  0.0632
20654W        W36463  17.532   7.512   3.628  0.2582  0.1311 -0.0544
20655W        W36464   7.437   2.620   4.874 -0.0166  0.1095 -0.0653
20656W        W36465  14.373   1.953  14.103 -0.0814  0.3451  0.0772
20657W        W36466   2.449   6.284   1.811  0.1595  0.0824 -0.0167
20658W        W36467   7.051  15.449   4.535  0.2893 -0.0322  0.1238
20659W        W36468   7.017  18.326  13.319  0.1618  0.1000  0.0505
20660W        W36469  17.588   7.191  12.976  0.2148  0.0562  0.1071
20661W        W36470   6.951   5.970   3.101  0.1570  0.0889  0.0890
20662W        W36471   5.754  12.688   1.027 -0.2279  0.1174 -0.0782
20663W        W36472   9.867  10.942   3.639 -0.0474  0.2778  0.0115
20664W        W36473   5.939  15.050   5.621 -0.0432 -0.0580 -0.0512
20665W        W36474   4.937  16.616   0.988 -0.0652  0.2678  0.0647
20666W        W36475   7.434   3.057   4.598  0.0737  0.5351  0.0360
20667W        W36476   9.988   6.144   4.355  0.0775 -0.0863  0.0156
20668W        W36477   7.983   3.250  14.646  0.0064  0.1132  0.1912
20669W        W36478  11.497   1.190   2.033  0.1589 -0.1731  0.1453
20670W        W36479  18.245   2.843   2.241 -0.3237  0.0063  0.0202
20671W        W36480  18.357  15.417  11.684 -0.1420 -0.0743  0.0928
20672W        W36481   6.532   3.617  15.853 -0.0942 -0.1348 -0.3887
20673W        W36482  14.760   3.214  11.232 -0.0671  0.2847  0.0305
20674W        W36483   1.062  12.526   3.462  0.4161  0.3487  0.0883
20675W        W36484  13.052   4.318   0.885 -0.1650  0.0777  0.1225
20676W        W36485  10.838  12.727  10.690  0.2335 -0.0340  0.2236
20677W        W36486  11.632   2.918  12.797  0.1736  0.1958  0.1344
20678W        W36487   5.391  10.955  13.372  0.3773  0.2207 -0.1976
20679W        W36488   3.969   7.620  12.705 -0.1456  0.0457  0.0243
20680W        W36489   7.542   2.905  13.829  0.3352 -0.1863 -0.1062
20681W        W36490   9.572  10.310  11.591  0.2261 -0.1262  0.2769
20682W        W36491  12.486   2.863  15.824  0.3429  0.2172 -0.0843
20683W        W36492   2.713  11.012  14.838  0.0158  0.1455  0.1496
20684W        W36493  17.783   6.478   1.969 -0.0684 -0.0085 -0.0921
20685W        W36494   5.936   3.247  14.663 -0.3599 -0.0060 -0.0284
20686W        W36495   1.466  13.691   2.477 -0.0844  0.2265  0.0327
20687W        W36496   7.340   2.025   0.105 -0.1651 -0.2776 -0.3192
20688W        W36497  18.152   3.753   1.242 -0.0252 -0.2243 -0.0921
20689W        W36498   8.924   8.517  14.077  0.2893 -0.2787  0.0324
20690W        W36499  16.806   1.723  15.687 -0.0182  0.1723  0.2117
20691W        W36500   2.475   2.844   4.328  0.1359 -0.0008 -0.1497
20692W        W36501  11.941  16.793   4.637  0.0950 -0.0925  0.0034
20693W        W36502   5.369  14.867  14.745 -0.0403  0.0427  0.0948
20694W        W36503   7.652  14.377   5.018  0.0846  0.0084  0.2274
20695W        W36504  13.778  11.918  13.725  0.0434  0.0511 -0.1620
20696W        W36505  15.826   1.459  13.564 -0.1125  0.3484  0.0025
20697W        W36506  11.643  10.737   0.267 -0.2126  0.1122  0.0958
20698W        W36507   7.449  13.961  15.766  0.1466 -0.0095  0.0535
20699W        W36508  13.623  16.030   0.973 -0.2439 -0.1275  0.0731
20700W        W36509  14.589   8.619   0.256  0.1309 -0.2435  0.2161
20701W        W36510   0.028  16.959  12.411  0.1556 -0.0412 -0.2080
20702W        W36511   2.657  15.440  13.629 -0.0343 -0.3719 -0.1599
20703W        W36512  12.877  10.289  14.936  0.0678  0.2374 -0.0257
20704W        W36513   1.827   4.081   3.222  0.0043 -0.1581 -0.1707
20705W        W36514   5.920  10.558  11.645 -0.1139 -0.3781 -0.1304
20706W        W36515   0.366   7.831   1.779 -0.1224 -0.2293  0.1662
20707W        W36516   1.707  11.265  14.738 -0.0676 -0.2997  0.2287
20708W        W36517   6.537   5.157  12.970 -0.0339  0.0085  0.0651
20709W        W36518   4.755  15.169   5.026  0.2669 -0.2603 -0.0297
20710W        W36519   4.505   5.409   0.539  0.0711 -0.1740 -0.1286
20711W        W36520   0.098  12.087   2.184  0.1582 -0.4565  0.1214
20712W        W36521   0.959  13.950   4.745 -0.1524  0.2257  0.1671
20713W        W36522   5.986  15.768  10.162  0.1703  0.2709  0.0358
20714W        W36523  15.640  10.486   2.264 -0.0864  0.2590 -0.0007
20715W        W36524  12.685  15.633   2.672 -0.1254  0.0912  0.2918
20716W        W36525   5.498  12.154   2.427  0.0337 -0.0548  0.0124
20717W        W36526   3.618   7.879  14.896  0.0051  0.1721  0.2139
20718W        W36527  11.107   1.674   5.480  0.0439 -0.0684  0.2826
20719W        W36528  15.284   0.805  15.134 -0.0632 -0.1508  0.1806
20720W        W36529   1.768   8.501  13.953  0.1935 -0.4076 -0.0243
20721W        W36530   0.367   3.627   2.407 -0.1057  0.0961  0.1560
20722W        W36531  17.311  16.880  15.269  0.0757 -0.1430 -0.0237
20723W        W36532   9.961  16.952  10.929 -0.0349  0.0428 -0.0022
20724W        W36533   8.839   5.050   5.024  0.1248 -0.1437 -0.4568
20725W        W36534   2.217  17.296  13.678  0.0376  0.3321  0.2868
20726W        W36535  13.564  11.557   3.350  0.0167 -0.2886 -0.0067
20727W        W36536   5.141  14.427   2.307  0.0231 -0.2136 -0.0312
20728W        W36537  16.940  17.018   0.606 -0.0587 -0.1598 -0.0161
20729W        W36538  15.247   2.832  10.869 -0.2001  0.0436  0.1248
20730W        W36539   2.814  12.940  11.364 -0.3167  0.0537  0.0765
20731W        W36540   9.139   7.800  11.045 -0.2027  0.1534 -0.0458
20732W        W36541   4.312   4.109  12.756 -0.3611 -0.2463 -0.0469
20733W        W36542   4.017  13.501   2.023  0.3247  0.1794 -0.1536
20734W        W36543  10.498  18.447  13.544  0.0365  0.2628  0.0617
20735W        W36544  15.866  17.854   5.305  0.0258 -0.1971  0.2131
20736W        W36545  11.191  11.300  10.650  0.2975  0.1394 -0.0058
20737W        W36546  16.329   0.457  15.250  0.0335  0.0858 -0.0333
20738W        W36547   6.559  10.124   4.851 -0.0760 -0.0216  0.3533
20739W        W36548   5.645   0.555   5.891 -0.3941 -0.1057  0.1781
20740W        W36549   7.485   5.567  13.216 -0.2669  0.1856 -0.1141
20741W        W36550   8.690   9.233  11.006 -0.3408 -0.3104  0.2812
20742W        W36551   2.100   1.749   9.997 -0.2281 -0.1726  0.1296
20743W        W36552  10.652   3.189  14.911  0.1421  0.1037  0.2149
20744W        W36553   7.428   4.192   4.673  0.0344 -0.0136 -0.2818
20745W        W36554   7.847   0.472   2.835 -0.0573  0.1727  0.4451
20746W        W36555  17.337  13.996   2.954  0.1458  0.0317 -0.2673
20747W        W36556  16.718   4.410  10.140  0.1099 -0.4485  0.1128
20748W        W36557   0.808   1.352   5.083  0.0327  0.1015 -0.0846
20749W        W36558  14.536   4.891   3.291  0.0690  0.0444  0.2611
20750W        W36559   5.991   8.483   3.648 -0.2918 -0.1633 -0.4281
20751W        W36560  18.431  18.088   1.830 -0.0297  0.0808 -0.0070
20752W        W36561   8.526   5.975  14.631 -0.2423  0.1491 -0.1159
20753W        W36562  15.728  10.641  11.746  0.1533  0.1118  0.0199
20754W        W36563   7.689   4.434   5.405 -0.2661  0.1962 -0.2460
20755W        W36564  11.237   9.815  10.515 -0.5446 -0.0232  0.2143
20756W        W36565  14.466   8.396   1.759 -0.1273  0.0224 -0.0091
20757W        W36566   4.552   5.335   2.262  0.2502  0.2474 -0.0342
20758W        W36567   9.798   2.272  12.421 -0.1997  0.0500  0.0272
20759W        W36568   6.524   3.762   4.614  0.0465 -0.1172  0.1113
20760W        W36569   6.165  13.701   1.303 -0.1506 -0.0387  0.1382
20761W        W36570   4.390   7.858   5.374  0.1284  0.0915  0.0782
20762W        W36571  15.672   2.284  14.782  0.0498 -0.4142 -0.1084
20763W        W36572  12.666  15.766   2.125  0.0903  0.0874  0.2117
20764W        W36573   9.124   1.377  15.508  0.0416 -0.0879 -0.4276
20765W        W36574   4.825   5.357  15.358  0.1866 -0.1826 -0.1183
20766W        W36575   8.788   9.013   1.359  0.0122 -0.2371 -0.1559
20767W        W36576   6.295  11.522  14.668 -0.0067 -0.0980  0.2795
20768W        W36577   5.145  13.804   0.780  0.0465 -0.1110  0.2197
20769W        W36578   0.550   8.006   2.901  0.0134 -0.1042 -0.0415
20770W        W36579   6.259   2.430  14.526 -0.0378  0.2916  0.0860
20771W        W36580   5.554  15.824  15.846 -0.0641  0.1183 -0.0344
20772W        W36581   9.165   8.190  15.508 -0.0670 -0.1510  0.1300
20773W        W36582  14.002  11.588  14.867  0.0402  0.0616  0.2600
20774W        W36583   7.811  15.594   4.871 -0.2075 -0.1690  0.1967
20775W        W36584   9.678   8.666  10.646 -0.5273  0.2006 -0.2597
20776W        W36585   7.426  15.248   4.892  0.0105 -0.1090  0.1666
20777W        W36586   1.002  10.153   3.256 -0.2830 -0.0951  0.2250
20778W        W36587   5.637  12.244  10.404 -0.0206 -0.0269 -0.0477
20779W        W36588  11.341   8.396   2.505 -0.1177  0.1693 -0.0924
20780W        W36589  17.954  17.781  14.162 -0.1908  0.1655  0.2265
20781W        W36590   9.081   5.422  12.324  0.2633  0.0521  0.0355
20782W        W36591   5.236  12.543   1.526 -0.1683 -0.0511 -0.1357
20783W        W36592  11.772  12.040   4.054 -0.0568 -0.1813  0.0833
20784W        W36593   0.323  15.541   2.279 -0.0393  0.3037  0.0055
20785W        W36594   6.408   1.353  15.442 -0.0203 -0.4215  0.0340
20786W        W36595  18.054   3.135  15.832  0.3393  0.1648  0.0741
20787W        W36596   8.515   7.914  13.511 -0.1608  0.0462  0.0960
20788W        W36597  15.132   2.439  10.029 -0.1192  0.0510  0.1162
20789W        W36598  13.337  17.898   4.259  0.1234  0.2456 -0.2241
20790W        W36599   1.037   3.651  14.744  0.1988 -0.0687 -0.0969
20791W        W36600  16.180   3.169   2.396  0.0580 -0.0275  0.3708
20792W        W36601  15.545  11.374   1.707  0.1421  0.0916 -0.1427
20793W        W36602  15.367   5.835   4.615 -0.1656 -0.0746 -0.0722
20794W        W36603   5.210   1.584   3.398  0.0702 -0.0488 -0.1922
20795W        W36604  16.430  17.611  13.287 -0.1438 -0.3085 -0.2474
20796W        W36605  10.548  14.260  14.096 -0.0231  0.1295  0.0156
20797W        W36606  12.928  15.444   5.815  0.0409 -0.1486 -0.2813
20798W        W36607  17.131  10.206   4.359 -0.2226  0.1366  0.0940
20799W        W36608   7.595  11.222  15.500  0.1931 -0.1504  0.1741
20800W        W36609  10.352   7.990  13.695 -0.0512  0.0741 -0.0630
20801W        W36610  10.141  14.199   4.503 -0.1425  0.4402  0.0047
20802W        W36611   0.023   9.160  11.649  0.0271 -0.0429  0.0577
20803W        W36612   1.232  10.081   1.522  0.0716 -0.0111  0.3441
20804W        W36613   8.639   0.683   5.312 -0.1352 -0.1626 -0.3871
20805W        W36614   8.211   1.466   0.896  0.0703  0.1547  0.0987
20806W        W36615  14.986  13.910  14.378  0.0062 -0.1423 -0.2233
20807W        W36616  18.288   8.784   1.039  0.0196 -0.0448  0.1626
20808W        W36617   1.247  17.443  10.498  0.0043 -0.1298 -0.1134
20809W        W36618   7.059  16.029  15.355 -0.1643  0.1625  0.1984
20810W        W36619  15.325  15.432   5.926 -0.0139  0.6342 -0.0301
20811W        W36620   9.454   1.844  15.624 -0.0592 -0.0367 -0.3684
20812W        W36621  13.116  11.423   3.220  0.0428  0.4251  0.0510
20813W        W36622   0.716  10.313  15.434 -0.1965  0.2246  0.2265
20814W        W36623   7.658   6.346  12.714  0.0954 -0.1439  0.0486
20815W        W36624   8.929  12.497  12.598 -0.1440  0.1943  0.0483
20816W        W36625   3.672  18.417  10.903 -0.0006 -0.0342 -0.4034
20817W        W36626   7.252  10.622   2.475 -0.0266 -0.2292  0.2308
20818W        W36627   3.117  15.099   2.848 -0.0168 -0.0798 -0.4893
20819W        W36628   5.118  15.696  15.576  0.0584 -0.2175  0.2930
20820W        W36629  12.832   2.579   1.051  0.0710 -0.0475 -0.3015
20821W        W36630   8.158   5.219  12.390  0.1705  0.0885  0.0473
20822W        W36631   7.441   5.083   1.507  0.0514 -0.1923 -0.1140
20823W        W36632  17.292  16.498  15.635 -0.4140  0.2778  0.1082
20824W        W36633   6.743  11.578   0.682  0.2275  0.2297 -0.0017
20825W        W36634   8.848   3.191  15.261 -0.2820  0.0776 -0.2931
20826W        W36635  15.373   7.255   4.344 -0.1503  0.1764  0.2505
20827W        W36636  12.634   8.009  15.211  0.0063 -0.1151 -0.1935
20828W        W36637  14.939  15.298   3.408 -0.0983 -0.1019 -0.1392
20829W        W36638   0.156  16.377   2.805  0.1109  0.0951  0.0567
20830W        W36639   4.646   0.858   5.127 -0.1524  0.0828  0.1772
20831W        W36640   0.761   3.195   4.346 -0.2047  0.1683 -0.1056
20832W        W36641   2.117   9.128   1.503  0.2472 -0.3345  0.1635
20833W        W36642   8.877  12.327   0.566  0.0972 -0.2374  0.1250
20834W        W36643   8.021   1.367   2.676 -0.0963 -0.0101 -0.2282
20835W        W36644   3.837   1.819   2.229  0.1184 -0.0086  0.0551
20836W        W36645  15.487  16.908  12.530  0.1373 -0.1824 -0.2270
20837W        W36646   3.318   7.758   2.950 -0.1591 -0.0939 -0.0052
20838W        W36647  12.814  11.653  14.327 -0.0813 -0.1595  0.1225
20839W        W36648   2.059   3.538   3.166  0.1310 -0.0691  0.3161
20840W        W36649   9.527   3.541   4.286  0.1741  0.0488 -0.0419
20841W        W36650  11.658   3.140  15.042 -0.1334 -0.1176  0.1413
20842W        W36651  12.892  11.755  12.233 -0.1604  0.0049  0.1661
20843W        W36652  17.858  11.185  11.959  0.2497  0.0347 -0.1849
20844W        W36653  16.275  14.821   0.994  0.0511 -0.1992  0.1597
20845W        W36654   4.851  11.711   3.850  0.0051 -0.3345 -0.1032
20846W        W36655   1.326   1.037  10.681  0.0212  0.1400 -0.2647
20847W        W36656  16.107  13.617   3.864  0.1138 -0.0729  0.3060
20848W        W36657   3.128   8.708  15.642 -0.0865  0.1921 -0.0809
20849W        W36658  14.381   7.638  10.933  0.0858 -0.1719 -0.1518
20850W        W36659   8.084   9.595   5.352  0.0111 -0.1086  0.1478
20851W        W36660   2.436   6.467   1.203 -0.2993 -0.3058 -0.0813
20852W        W36661  12.441  16.571   0.784 -0.0713  0.0306  0.0004
20853W        W36662  17.919   1.466   2.166  0.2681 -0.2988  0.1039
20854W        W36663  14.243   0.148   1.083  0.4602  0.3162 -0.1972
20855W        W36664   5.950   8.161  12.616 -0.0435  0.1383  0.1349
20856W        W36665   5.398   9.181   0.885  0.1097 -0.0853  0.2510
20857W        W36666   6.386  17.969  10.986  0.1421  0.0704 -0.2076
20858W        W36667   8.713  10.492   1.687  0.2913 -0.1803  0.0635
20859W        W36668   9.489   8.330  12.947  0.0966  0.0894  0.4091
20860W        W36669  12.914  16.522  12.900  0.0857 -0.1542 -0.1720
20861W        W36670  17.929  15.577  12.406 -0.1003  0.0256 -0.1211
20862W        W36671  17.525  16.630   2.064 -0.0945 -0.1641 -0.1242
20863W        W36672  13.097  11.086  11.203  0.1734 -0.1232 -0.1905
20864W        W36673  13.212   2.792  13.748  0.1306 -0.0465  0.0620
20865W        W36674   1.141  16.638   2.495 -0.0123  0.2651  0.2938
20866W        W36675  14.056   8.813   0.194 -0.1809  0.1810 -0.0478
20867W        W36676  13.247  17.984  14.265  0.2995 -0.0904 -0.2919
20868W        W36677   3.918  10.289   1.240  0.0584  0.0619  0.0436
20869W        W36678  11.619   6.240  11.838  0.3024  0.3988 -0.1806
20870W        W36679   9.107   3.062  12.040  0.2827 -0.0663  0.2168
20871W        W36680  12.224  17.753   5.097 -0.1448  0.2062 -0.2093
20872W        W36681  13.779  16.181  13.145  0.2396  0.1893 -0.2737
20873W        W36682   8.701  13.383   2.203 -0.1875  0.0495  0.3026
20874W        W36683   0.286   4.004   1.418 -0.0725 -0.1541  0.0556
20875W        W36684   7.064  16.673   4.459  0.1206 -0.1294  0.0159
20876W        W36685   7.086  12.189  14.203 -0.0249 -0.0888 -0.1514
20877W        W36686   8.864   0.064  13.249 -0.0452  0.4919 -0.1518
20878W        W36687   5.999  15.222   2.574  0.1490 -0.0775 -0.4017
20879W        W36688  12.394  12.271   3.968  0.1185  0.1388  0.2371
20880W        W36689   3.331   9.412   1.481 -0.3482 -0.1366  0.2189
20881W        W36690  14.895   7.207  11.029 -0.0315  0.1764  0.1193
20882W        W36691   7.161   6.801  15.682  0.0087 -0.3990  0.0795
20883W        W36692   4.469   7.699  15.283  0.0958  0.0418 -0.3002
20884W        W36693   7.176  12.838  10.874  0.2060 -0.0460 -0.1581
20885W        W36694   8.459   8.644  12.536  0.0609  0.0291 -0.0876
20886W        W36695   6.140   3.215   1.343  0.1660  0.0070 -0.0141
20887W        W36696  14.701  17.555  13.600  0.2641  0.0812 -0.2623
20888W        W36697   6.912  11.824   2.041 -0.0495 -0.3402 -0.0382
20889W        W36698   0.336  17.788  11.812 -0.1577 -0.2379 -0.2393
20890W        W36699   1.682  17.887  13.538  0.1207  0.0861  0.1344
20891W        W36700   7.348   7.026  13.635  0.2009  0.4412  0.1979
20892W        W36701   4.163  13.924   0.996 -0.0473 -0.0120 -0.1847
20893W        W36702  18.335  17.951  15.457  0.1169 -0.2182 -0.1424
20894W        W36703  13.307   8.057  14.445 -0.2872 -0.1096 -0.0094
20895W        W36704   1.333   0.258  13.418 -0.0038 -0.0249  0.3403
20896W        W36705   2.276  13.301  14.744  0.2498 -0.0011  0.0236
20897W        W36706  11.304  14.958  14.607  0.3419 -0.1685 -0.1971
20898W        W36707  14.328  12.849  15.399  0.1768 -0.0337  0.0413
20899W        W36708  13.044  11.061   4.643 -0.1288  0.1333 -0.0164
20900W        W36709   9.854  14.193  14.513 -0.0316 -0.0847 -0.1205
20901W        W36710   4.513   8.672  11.372  0.4232 -0.3860  0.1488
20902W        W36711  16.344   2.742  14.046  0.0190 -0.0287  0.0611
20903W        W36712  15.671   8.983  12.667  0.3174  0.0861  0.2509
20904W        W36713   5.756   3.554   4.611  0.0652  0.3087 -0.0047
20905W        W36714  16.460  12.281  13.137  0.3629  0.4296 -0.0175
20906W        W36715  13.604  14.754   0.701  0.0844 -0.0743 -0.0907
20907W        W36716  12.655   8.535   2.160  0.0253  0.3190  0.1911
20908W        W36717  14.181  18.003  14.066  0.1280  0.1909  0.0066
20909W        W36718   5.016   0.428  11.657  0.1310  0.0424  0.0749
20910W        W36719   2.398  10.034   1.568  0.0718 -0.0937 -0.0558
20911W        W36720   7.625   2.033  14.925  0.0091 -0.2087 -0.1880
20912W        W36721   4.280  13.459   4.479  0.1423  0.0359  0.1093
20913W        W36722   4.044   1.292   3.934  0.0026  0.1990 -0.1722
20914W        W36723   6.837   7.011   3.566  0.0098  0.1071 -0.0801
20915W        W36724  15.277   0.699  14.076 -0.0499  0.0364  0.0679
20916W        W36725  15.407   3.220   0.693 -0.1734  0.1867 -0.0084
20917W        W36726  18.330   2.913  14.089 -0.1141  0.2406  0.1844
20918W        W36727   0.676  11.439  13.637  0.0264 -0.2257  0.1602
20919W        W36728   2.228  10.733   2.013 -0.1014  0.1818  0.1354
20920W        W36729  10.985  12.812   1.983  0.1454 -0.0418 -0.1063
20921W        W36730   7.445   6.649   2.661  0.1749 -0.1008  0.1280
20922W        W36731   6.110   6.292   0.924  0.2716 -0.1306  0.1742
20923W        W36732   1.445  15.160   3.716 -0.2743  0.2434  0.0443
20924W        W36733  16.182   9.786   4.025 -0.1725  0.1592 -0.0868
20925W        W36734  11.145  14.025   9.978 -0.0932 -0.0001 -0.2082
20926W        W36735  14.006   6.707  14.634  0.0786 -0.2290 -0.1027
20927W        W36736   4.502   4.622   4.173  0.1646  0.2024 -0.1222
20928W        W36737   3.626   8.110   2.504  0.1364  0.3354 -0.1775
20929W        W36738  16.605   3.863   0.675 -0.1614 -0.0341 -0.1467
20930W        W36739   4.322   9.807  11.037  0.1610  0.2308  0.4272
20931W        W36740   4.035   4.221  13.200 -0.0814  0.1507  0.0414
20932W        W36741   2.304   3.804  13.567 -0.0173  0.2044  0.0467
20933W        W36742  18.110  11.978  11.009  0.0941 -0.0219 -0.1368
20934W        W36743   9.628   8.240  15.276 -0.0972 -0.0954 -0.1694
20935W        W36744   9.137  12.875   3.756  0.1670 -0.2655  0.1163
20936W        W36745   6.644  14.645   3.637  0.0144 -0.0530  0.0607
20937W        W36746  18.238   3.635  12.111  0.0737 -0.0224 -0.1537
20938W        W36747  15.153   9.832  10.650 -0.2380  0.2291  0.1036
20939W        W36748   4.290  17.574  13.670  0.0140  0.0205 -0.0519
20940W        W36749  17.860  10.274  12.316  0.0435  0.0153  0.0803
20941W        W36750   1.924  15.895   0.234  0.0776 -0.0029  0.0462
20942W        W36751   0.517  11.783   1.992 -0.0056  0.1950 -0.1404
20943W        W36752   2.324  12.628  11.479  0.1011  0.0793 -0.0625
20944W        W36753   3.444   6.004  14.249  0.0244 -0.0336  0.0152
20945W        W36754   4.751   9.780  12.992 -0.0181  0.2112  0.1219
20946W        W36755  13.191   9.852  13.073  0.3580  0.3288  0.0568
20947W        W36756   9.520   9.849  11.869 -0.2070 -0.0470  0.4182
20948W        W36757   3.098   4.512   0.563 -0.0026 -0.0971  0.1875
20949W        W36758  12.292   3.353  11.047  0.1974  0.0672 -0.1006
20950W        W36759   1.417   2.074  15.040  0.2720 -0.2044  0.3276
20951W        W36760   8.128  14.452   2.705 -0.0182 -0.1461 -0.0162
20952W        W36761  15.037  17.627  15.449 -0.1591 -0.1091 -0.0184
20953W        W36762   5.396   3.004   1.204 -0.2563 -0.0521  0.3141
20954W        W36763  17.939   3.187   2.071  0.0341 -0.1605  0.1841
20955W        W36764   3.629  11.956  13.529 -0.0687 -0.3117  0.1335
20956W        W36765  18.129  16.396   0.708  0.0229 -0.2580  0.1968
20957W        W36766   6.347  12.373   3.169 -0.0354  0.2380  0.1310
20958W        W36767  15.597  12.829   4.963 -0.1964  0.0826  0.3373
20959W        W36768   4.271  16.175  10.950  0.1170  0.2583 -0.0131
20960W        W36769   5.545   3.232  10.935 -0.3022 -0.1138  0.1850
20961W        W36770  12.352  15.312   2.463 -0.0879 -0.0032 -0.1494
20962W        W36771  16.447  14.745   4.626 -0.0674 -0.2266 -0.0191
20963W        W36772   7.428  13.348   5.516 -0.0596  0.0037  0.4959
20964W        W36773   0.232   6.813   1.620  0.3769  0.1346 -0.0878
20965W        W36774   4.938  12.560  12.767  0.3384  0.2901  0.2301
20966W        W36775   5.876  15.862   0.730  0.0221 -0.1493  0.0383
20967W        W36776   4.282   6.396   4.308 -0.4030  0.1163 -0.3893
20968W        W36777  17.466  14.839   1.327  0.2780 -0.0632  0.0945
20969W        W36778   4.687   2.700   2.927 -0.1419 -0.0886  0.2027
20970W        W36779   0.877  17.258  12.425 -0.0215  0.1458 -0.0633
20971W        W36780   2.910  14.666  13.229 -0.2001 -0.2146 -0.0478
20972W        W36781  10.339  12.714  13.385  0.1356  0.0023 -0.0150
20973W        W36782   1.098  14.146   2.368  0.0675  0.0147  0.0111
20974W        W36783   1.346   6.926   2.277  0.2628 -0.2834 -0.1411
20975W        W36784  14.695  17.441   0.917  0.0335 -0.4744 -0.2025
20976W        W36785   9.664   4.690   3.800  0.0767 -0.2332  0.4275
20977W        W36786   4.404  14.203  12.326 -0.3000  0.1502 -0.1725
20978W        W36787   6.060  11.539  11.535  0.0440 -0.2203 -0.2078
20979W        W36788   9.514   2.482  15.036  0.1510  0.1576  0.0624
20980W        W36789   3.868  11.184   2.828 -0.2405  0.1014  0.0496
20981W        W36790   8.820   2.663  15.444 -0.1154  0.0699  0.2345
20982W        W36791  14.498  12.840   4.227 -0.0231 -0.2435 -0.1407
20983W        W36792  10.464  11.353   3.335  0.0469 -0.2130 -0.2641
20984W        W36793   7.232   7.017  14.557  0.0064 -0.0455  0.2195
20985W        W36794  15.668  13.361  11.151  0.0778 -0.1184 -0.1816
20986W        W36795   6.918   0.834   3.205 -0.0158  0.3047 -0.2545
20987W        W36796  18.308  13.989   3.175 -0.2068  0.0834  0.1468
20988W        W36797  17.068   2.630   5.275 -0.1469  0.2319  0.1564
20989W        W36798  11.800   3.736  12.166  0.3178 -0.0401 -0.2683
20990W        W36799  10.935  14.637  13.279  0.0979 -0.1541  0.1835
20991W        W36800  12.155  17.229   2.467  0.3521  0.4104  0.2158
20992W        W36801   2.902  10.379  12.830 -0.0737  0.1179 -0.2635
20993W        W36802  12.390   4.834   0.715 -0.2518 -0.2396  0.0934
20994W        W36803   7.811   9.156   3.291 -0.0831  0.2323 -0.0977
20995W        W36804   8.183   6.246  14.968  0.1282 -0.0150 -0.1689
20996W        W36805  13.722   3.575   5.232  0.3791  0.0062  0.1875
20997W        W36806   7.695   0.984   0.954  0.1053 -0.1063  0.1137
20998W        W36807  17.013   2.245  12.673  0.2086  0.0074 -0.5443
20999W        W36808   3.784  10.311   3.290 -0.2190  0.0343 -0.1692
21000W        W36809  17.335  10.486   1.662 -0.0433 -0.1212  0.2513
21001W        W36810  16.692   5.443  13.434 -0.1232 -0.0348 -0.0386
21002W        W36811   1.850  10.979  14.326  0.4213 -0.0504 -0.1094
21003W        W36812  17.218  17.328   4.031  0.0644  0.0172 -0.0722
21004W        W36813   8.128   9.573  12.754  0.3592 -0.0367  0.1040
21005W        W36814   5.676   9.453   0.441  0.0799  0.0499 -0.2879
21006W        W36815  18.129  13.519  11.697 -0.1310 -0.1685  0.0762
21007W        W36816   1.421   9.302   2.073 -0.3155 -0.0830 -0.2133
21008W        W36817   3.708   2.127   3.976 -0.1883  0.0273  0.0299
21009W        W36818  18.407   3.647  11.137  0.0888 -0.0965  0.0530
21010W        W36819  10.212   2.234  13.603  0.0201  0.3100  0.1755
21011W        W36820   4.739   6.583   3.434  0.3231  0.2332  0.2660
21012W        W36821  13.215   3.820   0.833  0.3196  0.2214  0.0861
21013W        W36822   0.168   1.430   0.669 -0.0875 -0.0497  0.0502
21014W        W36823   8.114   8.782   2.082  0.1020  0.1248  0.0301
21015W        W36824   9.558  10.143  15.577 -0.1771  0.1545  0.2113
21016W        W36825  18.181  10.510  11.323  0.0892 -0.2516 -0.0462
21017W        W36826  15.135   6.456   3.390  0.1539  0.0014  0.0743
21018W        W36827   9.349   1.435   5.234  0.1703 -0.0000 -0.4259
21019W        W36828   5.162   2.880   0.299  0.2066  0.2871 -0.1720
21020W        W36829  13.421  10.495  14.324 -0.4125  0.0602 -0.2738
21021W        W36830   6.886  13.202   4.525  0.1238 -0.2847  0.0349
21022W        W36831   4.269  15.179   4.093 -0.0059  0.0371  0.0108
21023W        W36832   8.839  11.782  11.319  0.2242  0.0258  0.2125
21024W        W36833  12.802   1.130  10.764 -0.0353 -0.3762 -0.1583
21025W        W36834  15.241  13.843  14.885  0.0079 -0.3366  0.0805
21026W        W36835   9.001   0.958  15.767  0.1132  0.2067 -0.4093
21027W        W36836  15.905   6.912   3.941 -0.1697 -0.2769 -0.0157
21028W        W36837   1.709   3.742   2.863 -0.0412  0.2493 -0.0726
21029W        W36838   0.575   5.629  14.646  0.0936  0.3017  0.2652
21030W        W36839   4.364   0.588   4.776 -0.1085 -0.0978 -0.0009
21031W        W36840   5.119   6.268   3.528 -0.0835 -0.1996 -0.0680
21032W        W36841   3.010   9.635  12.441 -0.2564  0.2112  0.0620
21033W        W36842   4.461  10.288  14.248 -0.0979  0.0085  0.0785
21034W        W36843  17.832  17.372   3.508 -0.0014  0.0691  0.1558
21035W        W36844  13.023   3.973  14.320 -0.1153  0.1894 -0.0519
21036W        W36845   6.097   4.437   2.454 -0.1410  0.3767  0.0391
21037W        W36846   9.621   2.603  14.506 -0.1422 -0.0421  0.0264
21038W        W36847   3.361   3.487  14.442  0.4436  0.1863  0.1520
21039W        W36848   8.746   8.637  13.611  0.1342  0.0296  0.2669
21040W        W36849  11.601  11.441  15.780  0.0715  0.1074 -0.0743
21041W        W36850  10.570  12.656   2.218  0.2852 -0.1653  0.2226
21042W        W36851   2.373   2.461  10.892 -0.2490 -0.0039  0.1313
21043W        W36852  18.262   3.655  14.790  0.0989  0.0390  0.0264
21044W        W36853  15.721  10.521   2.822 -0.1533 -0.2652  0.1166
21045W        W36854   6.982  14.454   2.078  0.1262  0.3598 -0.2522
21046W        W36855   4.259   5.867  11.391  0.1958 -0.0566 -0.0149
21047W        W36856   2.966  12.274  12.039 -0.0753 -0.0206  0.0171
21048W        W36857   9.510  17.087  14.210  0.1240 -0.1692  0.1248
21049W        W36858  17.897   5.108  11.951 -0.0767 -0.0165  0.0604
21050W        W36859   5.700   6.263   0.065  0.1995 -0.2128 -0.0758
21051W        W36860  17.175  16.319   3.912  0.1819  0.1831 -0.3505
21052W        W36861   4.447   7.556   4.000  0.0729 -0.2291 -0.0902
21053W        W36862   4.449  18.110  13.475  0.0587 -0.0498  0.0342
21054W        W36863  12.774  17.687   1.603 -0.1109 -0.4637 -0.1715
21055W        W36864   8.502   3.222  12.248  0.2316  0.0378 -0.0535
21056W        W36865  13.650   9.269  11.015 -0.0351  0.0686  0.2731
21057W        W36866   0.716   1.193   4.610  0.1954  0.0513  0.2709
21058W        W36867  12.093  14.016   1.258  0.1098 -0.1659  0.0740
21059W        W36868   9.847   4.796  11.281  0.2209 -0.4356  0.0320
21060W        W36869   3.769  15.276   1.492 -0.0856 -0.1403  0.0103
21061W        W36870  16.850  12.359  15.206  0.0490  0.1185 -0.2720
21062W        W36871  16.037  15.076   1.348  0.1924 -0.0091 -0.1210
21063W        W36872  17.004   0.184   3.917  0.1348 -0.3091  0.0294
21064W        W36873  11.865  15.351   5.797  0.0287 -0.1640 -0.1315
21065W        W36874   2.387   1.604  11.237  0.0769  0.2065 -0.3120
21066W        W36875   8.840   5.134   2.632  0.0299 -0.0923  0.0887
21067W        W36876   7.976  11.386  11.161 -0.1048 -0.1365  0.3290
21068W        W36877  17.736  13.673  15.264 -0.3210  0.0674  0.0691
21069W        W36878   6.548  12.435  11.360  0.2274  0.0566  0.2169
21070W        W36879  11.874   1.663   4.860 -0.1705 -0.0526 -0.0228
21071W        W36880   2.844   5.660  12.647 -0.0029  0.4168  0.0341
21072W        W36881   2.111  12.794   1.552  0.0384 -0.1660 -0.0066
21073W        W36882   0.729  18.246   2.701  0.3421  0.2328 -0.1161
21074W        W36883  17.435   2.087  15.085 -0.0310  0.2136 -0.0374
21075W        W36884  15.043  16.137   1.362 -0.1081  0.0673  0.0927
21076W        W36885   2.625   0.802  11.736  0.3209 -0.0683  0.1498
21077W        W36886   8.088  17.157  14.853 -0.0140 -0.0091 -0.1525
21078W        W36887  16.199  17.365  12.145 -0.0476  0.0453 -0.1141
21079W        W36888  14.918   2.812   4.599  0.0419 -0.1368  0.1889
21080W        W36889  10.531   1.408   3.423 -0.1907  0.0873 -0.3495
21081W        W36890  12.904   0.929  15.332 -0.0013  0.1311  0.0569
21082W        W36891  17.114   6.977  13.127 -0.0728 -0.0160 -0.3528
21083W        W36892  15.178   6.969  12.028  0.0917  0.2942 -0.1591
21084W        W36893  17.933  15.751   5.025  0.1734  0.0919 -0.2345
21085W        W36894  11.991   2.618   5.393 -0.1845 -0.5735 -0.0164
21086W        W36895  14.106   7.480   1.403  0.0908  0.0900  0.0569
21087W        W36896   7.666  10.806  14.263  0.2751  0.2483  0.1760
21088W        W36897   9.356  13.722  13.025  0.2866  0.0778  0.0031
21089W        W36898   3.784  10.175   1.730  0.1767  0.2860  0.0490
21090W        W36899   4.054  12.784   5.491 -0.0172 -0.0269  0.1565
21091W        W36900  18.217  10.831  12.008 -0.2894  0.2752  0.0032
21092W        W36901   7.132  17.005   4.830  0.2414 -0.0321  0.1275
21093W        W36902  16.205   5.267   4.756 -0.0691 -0.1926  0.2502
21094W        W36903   9.594  14.283  10.750 -0.1665  0.1592  0.0401
21095W        W36904  14.874   6.775  13.498  0.1013 -0.0322 -0.1794
21096W        W36905   5.809   5.429   3.866 -0.0285 -0.0323 -0.1760
21097W        W36906   0.672  10.544  13.775  0.0844 -0.2523 -0.3798
21098W        W36907  17.122   7.501  13.036 -0.0327  0.0359 -0.3609
21099W        W36908  14.040   6.375  11.845  0.1507 -0.0650  0.0989
21100W        W36909   0.081   4.631   3.201  0.2040 -0.0566 -0.1060
21101W        W36910  17.444  16.706   0.419 -0.2238  0.4045  0.1514
21102W        W36911   0.436  10.368   5.348 -0.2041 -0.0463  0.1656
21103W        W36912   0.864   8.699   1.839  0.1269 -0.0719  0.2509
21104W        W36913   1.722  10.760   2.895 -0.2073  0.2251  0.0407
21105W        W36914   2.305   2.926   1.284 -0.2828 -0.2204  0.2588
21106W        W36915  17.349  13.670   2.422  0.1215  0.3452  0.1315
21107W        W36916   4.242   0.032  12.350  0.1955  0.1410 -0.0933
21108W        W36917  15.531   5.440   0.847  0.1220  0.0756 -0.0068
21109W        W36918  18.102  16.762   4.030 -0.2925 -0.0233 -0.3466
21110W        W36919   5.662  16.826   4.713 -0.0850 -0.3290  0.0033
21111W        W36920  16.066   1.841   0.530 -0.0891  0.1103  0.3013
21112W        W36921   3.491   8.253   5.513 -0.0053 -0.1039 -0.3444
21113W        W36922  15.522  14.693  14.733 -0.0340 -0.1134 -0.1734
21114W        W36923  16.069  13.969  12.948  0.3173 -0.0287  0.1023
21115W        W36924   4.485   3.619  11.903 -0.1841  0.3341 -0.0686
21116W        W36925   3.468   9.795   5.067  0.1700 -0.1424  0.0964
21117W        W36926  12.962  13.551  15.624 -0.2628  0.2344 -0.1815
21118W        W36927   9.294  12.078   0.510  0.1975 -0.0470 -0.1130
21119W        W36928  14.001   2.674   4.145 -0.0533 -0.0375 -0.1282
21120W        W36929   3.875   5.412  15.710 -0.1969  0.0103  0.0323
21121W        W36930  10.587  13.134  10.935 -0.0282 -0.5765  0.0755
21122W        W36931  14.156   7.188  14.502 -0.1942  0.2054  0.2575
21123W        W36932   8.750   0.197   2.948  0.0552  0.2023 -0.0120
21124W        W36933   1.560  11.766   3.057  0.2384 -0.0272 -0.1839
21125W        W36934   3.219   2.371   0.294  0.1260 -0.2159  0.1773
21126W        W36935  10.555   2.600   1.674 -0.0301  0.1487 -0.0220
21127W        W36936   9.103  15.343  13.589 -0.2427 -0.1402  0.0073
21128W        W36937   5.922   1.622   2.669  0.2166  0.3522 -0.1005
21129W        W36938  17.147  15.014   4.177  0.1668 -0.3582  0.2090
21130W        W36939  16.602  14.528  10.384  0.0502  0.3385  0.1025
21131W        W36940   2.809   5.318  11.615 -0.0149  0.3813  0.1420
21132W        W36941  13.027   1.815  15.136 -0.0619 -0.1450  0.0093
21133W        W36942   5.284   5.732  10.829 -0.3306 -0.1238 -0.0224
21134W        W36943  10.054   4.350  12.340 -0.0453  0.0859  0.2193
21135W        W36944  16.838  14.338  11.701  0.0420 -0.2290  0.0952
21136W        W36945  10.461  12.260   1.888 -0.0422 -0.0422 -0.3443
21137W        W36946   0.803  16.749   3.548 -0.1194 -0.1647  0.0130
21138W        W36947   2.935  13.361   1.496  0.0984  0.0486 -0.0663
21139W        W36948  16.410  13.705  10.757 -0.1844 -0.0204 -0.5476
21140W        W36949  12.491   8.883   3.649  0.3939  0.0454 -0.2514
21141W        W36950   8.399   9.321   4.444  0.3098 -0.3771 -0.1202
21142W        W36951   4.420  16.625  11.208  0.0213 -0.0519 -0.1394
21143W        W36952   0.677   8.523  15.058  0.2953 -0.1688  0.3923
21144W        W36953  16.427   6.819   4.516 -0.1888  0.0932 -0.0250
21145W        W36954  15.467   5.694  13.188 -0.2852 -0.2263  0.2377
21146W        W36955  17.877  15.865  14.656  0.0550 -0.1666 -0.1188
21147W        W36956   7.561   4.015  15.178 -0.2144  0.2121 -0.2425
21148W        W36957  17.051  15.165  13.344 -0.0129 -0.2378  0.1912
21149W        W36958   2.336   4.657   0.984  0.0808  0.0464  0.0847
21150W        W36959  12.962  13.015   3.334  0.0760 -0.1666  0.0505
21151W        W36960   2.927  12.746   4.689 -0.1049 -0.0995 -0.3065
21152W        W36961  14.741   2.662   3.447 -0.2233 -0.2031 -0.2099
21153W        W36962   5.277   2.540  15.104 -0.0637 -0.1515  0.0620
21154W        W36963   3.145   2.455   1.851  0.0053 -0.4814 -0.0582
21155W        W36964  13.116   6.306  14.457  0.1773  0.1365 -0.1481
21156W        W36965  16.408   4.543   3.023 -0.2212 -0.0350  0.0202
21157W        W36966   7.364  14.054  13.513  0.2460 -0.2786 -0.2848
21158W        W36967   5.059  13.849  13.105 -0.2097 -0.3274  0.2396
21159W        W36968   8.969   2.921  12.510 -0.0401 -0.2081 -0.2144
21160W        W36969   7.781   8.930  10.122  0.1203  0.1760 -0.0594
21161W        W36970  16.407  11.264   4.820  0.4011  0.2655 -0.0310
21162W        W36971  16.138   7.313  13.972  0.1034 -0.0659  0.0416
21163W        W36972   9.427  12.532   0.660  0.4664 -0.0937  0.1457
21164W        W36973   0.040   9.717  13.773 -0.1681  0.1280 -0.2439
21165W        W36974  10.148   9.241  12.310 -0.0486 -0.1177  0.0056
21166W        W36975  17.972  11.757   0.289  0.0827 -0.2674  0.0150
21167W        W36976   3.195   9.052  12.588 -0.1655  0.0559  0.2900
21168W        W36977  12.362  18.096   6.072 -0.0297 -0.2384 -0.3224
21169W        W36978   4.275   7.167   5.115  0.0952 -0.0089  0.0723
21170W        W36979   9.401  16.331  15.273 -0.0034 -0.1616  0.0212
21171W        W36980   6.165   0.883   2.063 -0.0456 -0.2609 -0.0156
21172W        W36981  16.743  13.245  14.603 -0.0653 -0.0434  0.3611
21173W        W36982   2.353  15.493   1.358  0.3240  0.0031  0.1320
21174W        W36983   1.292   5.171   3.193 -0.1187 -0.1688  0.0820
21175W        W36984   8.856  10.160   4.492 -0.0202 -0.2260 -0.1733
21176W        W36985   8.811   0.547   3.484  0.3274 -0.3972 -0.0921
21177W        W36986  18.328  14.243  11.002 -0.0421 -0.1139 -0.1837
21178W        W36987   4.402   9.268  14.309  0.1507  0.0388  0.1849
21179W        W36988   2.545   3.849   1.438  0.0142  0.1218  0.0093
21180W        W36989   2.489  10.097   2.846 -0.1350  0.1363  0.1067
21181W        W36990  15.152  14.721   0.206 -0.2451 -0.1550  0.1624
21182W        W36991   3.732   9.209  13.569  0.0803  0.1239 -0.0818
21183W        W36992   9.480  13.899  11.527 -0.1493  0.1419  0.1351
21184W        W36993   9.948  12.594   0.416 -0.0567  0.0587  0.1411
21185W        W36994  14.435  15.637   1.817  0.0177  0.3319 -0.1384
21186W        W36995  18.335   5.388   5.427 -0.1692  0.1301 -0.1609
21187W        W36996  11.792  11.062   4.180 -0.4756  0.3602  0.4089
21188W        W36997  13.209   2.504   1.382  0.0727 -0.2537  0.1894
21189W        W36998   4.509   8.702   5.273 -0.0378 -0.0284 -0.1056
21190W        W36999  12.555  13.441   0.608  0.0413  0.0266  0.1585
21191W        W37000   7.724   0.861  12.065 -0.0039 -0.0420 -0.0492
21192W        W37001  14.588  18.355   0.204  0.0989 -0.1481  0.0654
21193W        W37002   5.612   7.338   4.144  0.1326  0.0524  0.3155
21194W        W37003  11.902  14.643   3.615  0.0218 -0.2832  0.0753
21195W        W37004   2.268   2.256   3.425  0.2142 -0.0520  0.2077
21196W        W37005  15.286   3.179  14.781  0.1477 -0.1587  0.1939
21197W        W37006   3.940   4.688   0.448 -0.1944 -0.0096  0.0893
21198W        W37007  13.953  16.515  11.283 -0.0835 -0.0407  0.2350
21199W        W37008  13.215  15.401   4.051  0.2938  0.1352  0.1856
21200W        W37009   8.793   6.003   1.228 -0.0871  0.4295  0.1899
21201W        W37010   7.870   9.782  13.332 -0.2975 -0.1399  0.1340
21202W        W37011  17.568   5.795  10.386  0.1573  0.0468 -0.2927
21203W        W37012   5.431  11.200   4.324  0.1065  0.0103 -0.0810
21204W        W37013   4.522  16.747  14.272  0.0490 -0.0965 -0.0364
21205W        W37014  14.071   7.898   0.932  0.1681 -0.2543 -0.2872
21206W        W37015   5.614   9.848   0.831  0.0872  0.2721 -0.0702
21207W        W37016  14.043  14.056  12.993  0.1807 -0.3310  0.2376
21208W        W37017  18.019   0.843   3.783  0.1388  0.1283  0.1850
21209W        W37018  17.777   0.307   4.603 -0.1170 -0.1020  0.0282
21210W        W37019   7.540  15.947  15.600 -0.2749  0.3147  0.1254
21211W        W37020   9.395  10.669  15.769 -0.1835  0.1427  0.0543
21212W        W37021   4.765   5.207  11.568  0.4153 -0.0564 -0.0349
21213W        W37022  13.500  17.860  13.396  0.2652  0.0071  0.3721
21214W        W37023  13.264   4.554  10.717  0.0416 -0.2522  0.2670
21215W        W37024   8.325   4.981   1.384  0.0240  0.1807  0.3481
21216W        W37025  15.784   6.348  15.792  0.1867 -0.1887  0.2648
21217W        W37026  12.995   3.179   2.559  0.0440 -0.1045  0.2405
21218W        W37027  12.234  13.014   0.759  0.2733  0.2161 -0.1931
21219W        W37028   9.899   1.842   4.099 -0.0738  0.0709 -0.1345
21220W        W37029  12.921   0.509   0.844  0.2450  0.2372 -0.1699
21221W        W37030  11.694  12.405   5.306  0.4484 -0.0097 -0.1801
21222W        W37031   0.806  17.616  13.490 -0.1683 -0.0425 -0.0570
21223W        W37032   7.097  15.051   3.118  0.1656  0.0831  0.0020
21224W        W37033   5.854  12.039   3.013 -0.0932 -0.0488  0.0127
21225W        W37034  14.349  15.358  15.732  0.2304 -0.0792 -0.1944
21226W        W37035   7.820  11.321  12.850 -0.2005  0.0475 -0.3502
21227W        W37036   6.376   0.040  11.073 -0.0848  0.0378  0.1689
21228W        W37037  12.030  13.539  12.478 -0.1424 -0.1587  0.1484
21229W        W37038   8.767   1.395  12.779  0.0148  0.3537 -0.1488
21230W        W37039  11.463   5.204   2.878  0.0419  0.0310  0.0419
21231W        W37040   5.736  18.286  12.108  0.1463 -0.2644  0.0098
21232W        W37041   2.988  14.605   1.014 -0.1210  0.1657  0.0636
21233W        W37042  16.854  16.466  12.815  0.1634  0.1919 -0.0351
21234W        W37043   7.009   4.445   2.089 -0.0075  0.1020 -0.1555
21235W        W37044   7.841  17.246  11.458 -0.3525 -0.1511  0.1723
21236W        W37045   9.215   2.250   1.558  0.3541 -0.0389  0.0690
21237W        W37046   5.355   4.187  15.233 -0.1867  0.0601  0.1869
21238W        W37047  11.701  12.811   3.490 -0.0887  0.1375  0.0694
21239W        W37048  16.583   7.688   3.128  0.3615 -0.0028 -0.0650
21240W        W37049   0.108   7.800  11.521  0.0254  0.2491 -0.2787
21241W        W37050  11.458   8.291   0.637 -0.2860 -0.0513  0.1112
21242W        W37051  10.596   0.605   5.337 -0.1099 -0.1207 -0.1491
21243W        W37052   0.340   9.600  13.347  0.2797  0.3203  0.1268
21244W        W37053   3.659   7.190  13.318 -0.2093 -0.0009  0.0735
21245W        W37054   3.037  13.894   3.171 -0.0266 -0.1038  0.5788
21246W        W37055  10.396  16.445  15.374 -0.0676  0.3106  0.1355
21247W        W37056  15.185   3.114   4.276  0.2029 -0.1503  0.2430
21248W        W37057  12.954   3.856   9.803  0.0418  0.3582 -0.1700
21249W        W37058   8.088  17.327   1.201 -0.2793 -0.1417 -0.0485
21250W        W37059  12.724  14.577  13.808 -0.0453  0.2520 -0.0271
21251W        W37060  16.004   5.573  10.234  0.0272  0.0082  0.0918
21252W        W37061   1.187   5.439   0.913 -0.4222  0.1297  0.2503
21253W        W37062   1.831  12.175  14.906 -0.2369  0.1253  0.0276
21254W        W37063   4.888  15.816  14.659  0.1936  0.3534  0.0962
21255W        W37064   2.457  17.689  11.514  0.1914  0.0389  0.1255
21256W        W37065   1.306  16.661   0.595 -0.0785 -0.1042 -0.0101
21257W        W37066  15.783   1.593   3.519 -0.0105 -0.0015  0.1816
21258W        W37067   4.595  10.920   3.876 -0.0255 -0.1741  0.1354
21259W        W37068   9.206   5.738   1.411 -0.0767 -0.1307 -0.0308
21260W        W37069   6.658   4.159  13.781 -0.2650 -0.0608 -0.1359
21261W        W37070  10.488  12.665  11.006 -0.1307  0.0166  0.1760
21262W        W37071  12.178   7.175   3.041  0.0297 -0.0562  0.0308
21263W        W37072   1.753   5.196   4.966 -0.1267 -0.1616  0.1454
21264W        W37073  14.308  14.537   2.772  0.0886  0.2146  0.0292
21265W        W37074  17.415   5.486   0.658  0.0445  0.0192  0.0706
21266W        W37075   7.365   8.151   3.907 -0.0261 -0.1618  0.3251
21267W        W37076   8.321  12.087  15.431  0.0156  0.0404  0.0486
21268W        W37077  12.196   3.023   2.088  0.0092 -0.0441 -0.0228
21269W        W37078   9.719  18.016   5.081  0.1615 -0.0348  0.0148
21270W        W37079   6.529  13.657  13.318  0.0468 -0.2134 -0.1808
21271W        W37080   6.791  15.263  11.887  0.1412 -0.1358 -0.1351
21272W        W37081   6.465  17.084  11.899 -0.1440  0.0792 -0.2718
21273W        W37082  16.510  13.083  10.663 -0.0448  0.1941  0.0187
21274W        W37083  10.603  15.042  12.324  0.2401 -0.1881 -0.0315
21275W        W37084   1.743   3.918  15.437  0.2169 -0.1845  0.3001
21276W        W37085  12.415   1.373  14.795  0.0505  0.2443 -0.1235
21277W        W37086  14.954  16.131  11.529 -0.2043 -0.0858 -0.2341
21278W        W37087  14.543  11.009   1.823 -0.0654  0.1207 -0.1577
21279W        W37088  15.310  17.755   3.874 -0.1314  0.1628  0.2081
21280W        W37089  17.759  14.729  12.136 -0.1426 -0.0371  0.0531
21281W        W37090  13.947  17.376   0.031  0.2919  0.0866 -0.0950
21282W        W37091  13.468   9.804  12.659 -0.2647  0.0948  0.1482
21283W        W37092   0.440   1.280   0.239  0.2778  0.0335  0.3560
21284W        W37093   6.188  11.044  11.683 -0.0203 -0.2066 -0.1062
21285W        W37094   2.431   5.081   3.633 -0.1942 -0.1397 -0.0427
21286W        W37095   4.668   7.569   3.514  0.2040 -0.0759 -0.0300
21287W        W37096  13.315  14.505   5.497 -0.0349 -0.0709  0.4373
21288W        W37097   4.296  12.968   0.009  0.2440 -0.2134 -0.0254
21289W        W37098   5.015   9.023   3.447  0.1632 -0.0652  0.0955
21290W        W37099   4.159  17.373   2.850 -0.1041 -0.0283 -0.1468
21291W        W37100   3.447  13.811   3.522  0.0432  0.0906  0.1227
21292W        W37101  14.838  14.356  13.134 -0.1156 -0.0464 -0.4241
21293W        W37102   9.979   0.503  15.052  0.2630 -0.2714 -0.1837
21294W        W37103  13.513   1.493   5.555 -0.1368  0.0877 -0.5256
21295W        W37104  12.570  15.778  13.271 -0.1113  0.0304  0.0002
21296W        W37105  10.389  17.591  13.724 -0.0633 -0.0543 -0.0227
21297W        W37106   3.776   9.629   1.554  0.1445 -0.1710  0.1550
21298W        W37107  11.383  18.148  11.534 -0.0352  0.1086 -0.0743
21299W        W37108  10.562   6.099   1.275  0.0573  0.1843  0.0453
21300W        W37109   4.803  17.879  11.481 -0.0834  0.0951  0.1869
21301W        W37110  14.329   1.056  10.931 -0.1448  0.1583 -0.1086
21302W        W37111   2.965  14.756   4.770 -0.0225  0.0583 -0.0560
21303W        W37112   7.546  17.322  15.646  0.0152 -0.1428 -0.1057
21304W        W37113   8.674   9.142  13.513  0.4170  0.0678  0.3957
21305W        W37114   3.054  13.062  13.093  0.0479  0.0052  0.0543
21306W        W37115  12.806   4.586   1.703 -0.0058 -0.1568 -0.0692
21307W        W37116   5.533  10.730  15.588 -0.2147 -0.0841 -0.1096
21308W        W37117   9.969  18.333   2.524  0.1060  0.1744  0.0233
21309W        W37118  16.248  16.975   2.961 -0.1269 -0.1572  0.2291
21310W        W37119   5.062  14.200   0.378  0.0500  0.1190 -0.0815
21311W        W37120   6.888   6.231   4.529 -0.2378 -0.1969  0.1319
21312W        W37121   7.938  17.211   5.155 -0.1731  0.2430  0.0587
21313W        W37122  14.921  18.206   2.415  0.2088  0.0224  0.1445
21314W        W37123  10.724   6.994  10.552  0.2100 -0.2181 -0.0744
21315W        W37124  13.968   2.722   2.009  0.0530  0.1115  0.2586
21316W        W37125  10.176   6.991   0.695 -0.0917 -0.2303  0.0953
21317W        W37126  15.972  10.732  13.388 -0.3812 -0.1182 -0.2497
21318W        W37127  12.293  10.643   3.030  0.2706 -0.1081  0.0963
21319W        W37128   2.363   4.222  14.825 -0.1134 -0.0748 -0.2034
21320W        W37129   6.607  11.417   0.204  0.3530  0.0259  0.0642
21321W        W37130  14.028  11.005   1.690 -0.0839  0.0676  0.1758
21322W        W37131  13.897  12.173   0.343  0.1099 -0.0861  0.3797
21323W        W37132  16.684   6.544   1.015 -0.0600  0.1618 -0.0252
21324W        W37133   5.860  18.361  13.515 -0.0910  0.1571  0.2506
21325W        W37134   5.562   9.311   3.414 -0.2266  0.1615  0.2817
21326W        W37135   5.644   2.181  13.189  0.4606 -0.0761 -0.0589
21327W        W37136  14.177  13.290  11.172 -0.1758  0.2876 -0.0432
21328W        W37137   6.353  11.622  12.038  0.2414 -0.2986 -0.1886
21329W        W37138  15.962   4.145   3.711 -0.1878 -0.3692 -0.1537
21330W        W37139  12.535   6.268   1.109 -0.0779  0.0425 -0.0613
21331W        W37140   4.602   2.718   3.813  0.0566  0.0962 -0.0422
21332W        W37141  13.338   0.744   5.252  0.0302 -0.1189  0.2225
21333W        W37142  17.817   4.349   4.020  0.1865 -0.1871 -0.1184
21334W        W37143   7.702   2.429  13.141  0.0215  0.0124 -0.1569
21335W        W37144   8.129  13.357  12.044  0.1787  0.1883 -0.0764
21336W        W37145   5.665  18.112   1.539 -0.4818 -0.1980 -0.1646
21337W        W37146   3.441  12.050  12.810  0.0720 -0.1851  0.3542
21338W        W37147  15.696  15.001  15.600 -0.3726 -0.0338  0.1357
21339W        W37148   5.091  10.152   1.919  0.1699 -0.0476 -0.0264
21340W        W37149   8.205   2.907   0.199 -0.2903 -0.1799 -0.1544
21341W        W37150   7.454  18.273  13.617  0.2120  0.0509  0.3985
21342W        W37151   7.045   8.517  14.439 -0.1334  0.0683  0.1694
21343W        W37152   4.174   3.252  11.968 -0.0070  0.0787  0.0134
21344W        W37153   6.062   5.642   3.445  0.3244  0.2561 -0.0395
21345W        W37154   5.607  15.337  13.951 -0.0426 -0.0713  0.0361
21346W        W37155   2.751  10.860   0.923  0.0568  0.0387  0.2053
21347W        W37156  10.478  15.209  11.152  0.1283  0.0884 -0.1051
21348W        W37157  16.783   2.728  15.129 -0.1719 -0.0356 -0.3064
21349W        W37158  16.972   6.047  15.455  0.1292 -0.1250  0.1634
21350W        W37159   7.678   6.932  15.627 -0.1934 -0.2607 -0.1708
21351W        W37160  12.731   7.589  14.956  0.0710  0.3918  0.1371
21352W        W37161  11.952   8.952   2.762 -0.0446 -0.1070  0.0432
21353W        W37162  13.688   9.211  15.092 -0.3225  0.0046 -0.0609
21354W        W37163   7.261  13.461   4.274  0.0688 -0.2327  0.0940
21355W        W37164   6.329  13.279  11.947 -0.2456 -0.2595  0.0641
21356W        W37165   9.546   0.720   1.727 -0.1158  0.1449  0.1409
21357W        W37166   6.081  15.325   4.681 -0.3203  0.3298 -0.1847
21358W        W37167   3.644   0.505  13.843 -0.2121  0.3302  0.0116
21359W        W37168   1.616   0.576   3.274  0.1280 -0.3447  0.0733
21360W        W37169   5.015  16.363   0.494  0.0270  0.0853  0.0998
21361W        W37170   3.349  13.712   2.281  0.0949  0.1425  0.0430
21362W        W37171  12.168  16.195   3.402  0.0246  0.1287 -0.1092
21363W        W37172   5.892   5.015   1.015  0.0061 -0.0479  0.0834
21364W        W37173  16.959  11.178   3.217 -0.1460  0.0735 -0.2253
21365W        W37174  16.541   3.403   2.793 -0.2844 -0.2737 -0.0782
21366W        W37175  11.419  11.246  11.169  0.2879  0.2852  0.2075
21367W        W37176  12.050   0.704  14.268  0.4506  0.1276 -0.0268
21368W        W37177  18.319  11.492  12.748 -0.1222 -0.1190 -0.2286
21369W        W37178   3.711   3.763   4.920  0.1332  0.0708  0.1965
21370W        W37179   5.145   6.197   2.348  0.0373  0.0802 -0.2179
21371W        W37180   8.737  16.940   5.014 -0.2521 -0.3025  0.0606
21372W        W37181   8.541   4.968  14.553  0.2164  0.0230 -0.0850
21373W        W37182  11.192  16.787   5.990  0.2489  0.2461 -0.0874
21374W        W37183   0.926   4.883   1.256 -0.0233 -0.3368  0.1744
21375W        W37184  18.162  13.136  13.028 -0.0330 -0.0412  0.1089
21376W        W37185  17.660  18.208  14.396  0.0587 -0.1028 -0.2122
21377W        W37186   1.288  18.203  13.467 -0.1726  0.0540 -0.0711
21378W        W37187  14.846  13.882  13.684 -0.1809  0.0643  0.0792
21379W        W37188   6.819  15.079  15.414 -0.2538 -0.1367 -0.0675
21380W        W37189  11.824   1.336   1.079 -0.1994  0.3962  0.0560
21381W        W37190   9.871  15.766  15.794  0.3859  0.0927  0.1357
21382W        W37191  14.695   2.689  10.989  0.0926 -0.0330 -0.2896
21383W        W37192  12.078   4.622   3.431  0.0702 -0.3554  0.1230
21384W        W37193   4.309   9.108  13.530 -0.0405  0.0307 -0.1398
21385W        W37194   4.413   6.677  15.719 -0.3574  0.0813  0.2797
21386W        W37195   1.803   3.925  11.974  0.0915 -0.1575  0.0504
21387W        W37196   2.992  15.871  12.090 -0.2219 -0.0735 -0.0660
21388W        W37197  13.811   0.471   0.857  0.1362  0.1752  0.1941
21389W        W37198  17.863  15.070  12.501 -0.1359  0.0189 -0.4965
21390W        W37199  11.272  15.671   3.363  0.2463 -0.0901  0.1245
21391W        W37200  16.288  12.689   3.711  0.1676 -0.1906 -0.0227
21392W        W37201  14.650  17.947   3.575 -0.1481 -0.0800 -0.1666
21393W        W37202   0.859   2.569  11.330  0.1682  0.0398  0.2525
21394W        W37203  16.378  11.466  15.174 -0.0663  0.0537 -0.1948
21395W        W37204   7.718  13.450  15.718 -0.0134 -0.1601  0.0156
21396W        W37205   5.096   9.404  11.211  0.0738 -0.2562  0.0417
21397W        W37206   8.513   5.432  14.290  0.0603  0.0156 -0.2520
21398W        W37207   5.277  11.347  14.707 -0.0667 -0.1156  0.0167
21399W        W37208  17.056   7.783   2.927  0.0790  0.1315  0.2500
21400W        W37209  10.176   0.272  15.558  0.1035 -0.0842 -0.1236
21401W        W37210  17.376   3.589   2.554  0.1085  0.1768 -0.1398
21402W        W37211   8.851  11.634  13.397  0.0248  0.0406 -0.0342
21403W        W37212  11.094   3.744  15.393  0.2177 -0.0040  0.2176
21404W        W37213   2.761  15.933   3.001  0.1412 -0.2210  0.1020
21405W        W37214  16.195  12.734   0.678  0.0390 -0.0660  0.0524
21406W        W37215   9.790  17.544  12.335 -0.1200 -0.0025 -0.1378
21407W        W37216   4.027  14.867   3.327 -0.2822  0.2257  0.0778
21408W        W37217  12.766  13.305  12.358  0.2045  0.1649  0.0871
21409W        W37218  17.076  16.680   1.891  0.3626 -0.1599 -0.0094
21410W        W37219   1.275  10.697  11.211 -0.1252  0.2167  0.0963
21411W        W37220  10.329   9.627  11.347  0.0758  0.3757  0.3076
21412W        W37221  17.966   1.976  15.149  0.2089 -0.0789 -0.2426
21413W        W37222  16.197  10.093   4.961  0.0843  0.1031 -0.1393
21414W        W37223  12.969   2.053  13.266  0.2582  0.0347 -0.4193
21415W        W37224  12.523   2.146   1.992 -0.1748 -0.1696 -0.0845
21416W        W37225  10.744   2.345  13.732 -0.3122 -0.1729 -0.1007
21417W        W37226   9.309   0.667  14.377 -0.0712 -0.1331  0.0511
21418W        W37227   9.514  14.684  12.524  0.0282 -0.0907  0.0907
21419W        W37228   4.283  10.708   2.092 -0.2123 -0.1097  0.1950
21420W        W37229   8.831   1.299   2.222  0.2033 -0.2054  0.1528
21421W        W37230   9.185   3.789   3.498  0.0029 -0.0955  0.0679
21422W        W37231   4.800   5.043  13.736  0.0906 -0.0625 -0.0766
21423W        W37232   0.577  14.448   4.093 -0.1510 -0.0412 -0.0109
21424W        W37233   3.094   5.857   4.932 -0.2037 -0.0200  0.0101
21425W        W37234   2.440   0.472   3.401  0.0616  0.1172  0.1964
21426W        W37235   0.767  12.407   5.257  0.0464 -0.0263  0.1777
21427W        W37236  13.082   1.791   3.630 -0.0440 -0.1616 -0.0180
21428W        W37237   7.565   5.173   0.227  0.0289 -0.1831  0.0681
21429W        W37238   0.330  17.765  14.510  0.2764 -0.1044  0.0451
21430W        W37239   2.856   1.682   3.779  0.1001 -0.1669 -0.1170
21431W        W37240   6.796   2.458  12.169 -0.1244  0.1658 -0.3042
21432W        W37241   5.694   1.090   5.039 -0.1342  0.0972  0.0125
21433W        W37242   6.017   3.804   2.998  0.3360 -0.0229 -0.1546
21434W        W37243  13.902   4.116   4.245  0.2453  0.1937 -0.0031
21435W        W37244  16.850  12.052  13.321  0.0123  0.0241 -0.2124
21436W        W37245   5.957  14.834  12.895 -0.0330 -0.1213  0.0930
21437W        W37246   6.639  17.018   2.299  0.3395 -0.0150  0.1321
21438W        W37247  17.260  16.928  10.581 -0.1800 -0.1413 -0.1855
21439W        W37248  11.865  15.602   4.794  0.3014  0.0295 -0.0136
21440W        W37249   7.938  12.800   2.038  0.1037 -0.0789 -0.3710
21441W        W37250   6.158   3.160  15.736  0.1594 -0.2790  0.0383
21442W        W37251   1.393  10.139   3.637  0.1946  0.1050 -0.1489
21443W        W37252   6.507  11.220  12.590 -0.2945 -0.2532  0.1657
21444W        W37253  14.752   6.564  13.074 -0.0430  0.1297 -0.0231
21445W        W37254  18.354  12.783  11.160  0.0091  0.1934 -0.0845
21446W        W37255   3.387  12.625   4.563  0.0037  0.1054 -0.0400
21447W        W37256  14.439   7.604   0.576 -0.0677  0.0138 -0.1974
21448W        W37257   5.645  17.521  13.920  0.1426 -0.1565 -0.4009
21449W        W37258   7.608  10.187   2.895  0.0029  0.1713 -0.0922
21450W        W37259   0.386   8.208  13.716 -0.0809 -0.0262 -0.1303
21451W        W37260  14.255   2.380   4.647  0.2962 -0.0452  0.2104
21452W        W37261   5.371   5.086  11.423  0.1851 -0.0617 -0.0480
21453W        W37262   3.994  16.349  11.931  0.1541  0.2598 -0.0508
21454W        W37263   8.656  13.641   2.619  0.0994 -0.0825  0.4203
21455W        W37264   5.575   6.885   4.359  0.1406  0.2922  0.0812
21456W        W37265   3.111   4.691  10.940  0.1075 -0.1726 -0.2721
21457W        W37266  13.234  15.455   1.379 -0.1548 -0.3202  0.1402
21458W        W37267  17.880  12.487  11.272 -0.1475  0.1454  0.0996
21459W        W37268  11.342   1.196   3.900 -0.0337 -0.0200 -0.1061
21460W        W37269   4.363  14.743  13.773  0.1798 -0.2351 -0.0565
21461W        W37270   5.643   6.384   1.471 -0.1354 -0.1768 -0.0531
21462W        W37271  14.469   2.312  11.211  0.1384  0.0513  0.2040
21463W        W37272  18.214   7.505   5.318  0.2628 -0.2587  0.0301
21464W        W37273  15.133   0.835  12.165 -0.2890 -0.0822  0.3804
21465W        W37274   3.633  10.683  14.907 -0.3109 -0.0261 -0.2431
21466W        W37275   1.857   7.104   1.518  0.1207 -0.0695 -0.0369
21467W        W37276   2.601  11.915   1.561  0.1069 -0.1864  0.0154
21468W        W37277   4.754   0.004  11.596  0.2232  0.1083 -0.0349
21469W        W37278   7.169   9.862  12.649  0.2562  0.1832  0.1772
21470W        W37279  15.171   0.791  11.131  0.2802 -0.2797  0.2500
21471W        W37280  16.290  15.543  11.316  0.0902 -0.4626  0.3547
21472W        W37281  13.778   6.241  12.802  0.0442  0.0293 -0.1084
21473W        W37282   5.514   7.578   0.357 -0.0451 -0.1859  0.1188
21474W        W37283   1.019  13.919  11.205 -0.2473 -0.0886  0.2743
21475W        W37284  13.183  13.899  11.739 -0.1999 -0.1362  0.1021
21476W        W37285  11.951   5.233   0.725 -0.1891  0.0008  0.1207
21477W        W37286  13.506  14.082   2.207  0.1810  0.2774 -0.0673
21478W        W37287   5.419  10.439   4.461  0.0136  0.1612  0.3051
21479W        W37288   1.024   1.456   4.204 -0.2022 -0.0450 -0.2313
21480W        W37289  18.248   5.161   4.454  0.2604 -0.0581  0.2867
21481W        W37290   5.424  18.417  15.805  0.5257 -0.2181 -0.1527
21482W        W37291   3.837   8.999  14.452 -0.0113 -0.0447 -0.1271
21483W        W37292  11.139   0.101  14.601 -0.0534 -0.3303 -0.0411
21484W        W37293  13.737  13.291  10.923  0.5223  0.2661  0.0253
21485W        W37294   2.857  15.610  11.697  0.1001  0.2400  0.2674
21486W        W37295  13.707   3.744   1.361  0.1087 -0.0333 -0.2104
21487W        W37296   8.323  15.046  13.924  0.0073  0.1107 -0.1513
21488W        W37297  13.646   4.414  13.935 -0.1542  0.3323 -0.0926
21489W        W37298   1.531  13.282   5.182 -0.0306 -0.0874 -0.1636
21490W        W37299   3.554  11.695  11.579  0.2286  0.2052  0.0671
21491W        W37300   6.836  10.495   2.210 -0.0106 -0.0710 -0.1295
21492W        W37301  14.719  11.431   0.513 -0.0637 -0.1723 -0.1589
21493W        W37302  12.404  15.579  12.785 -0.2295 -0.0615 -0.0005
21494W        W37303   3.700   9.804   4.467 -0.5256  0.0377  0.0412
21495W        W37304   3.734  18.406  12.400  0.1799  0.0504 -0.1302
21496W        W37305   1.334   0.776  14.754 -0.0463 -0.0630  0.2375
21497W        W37306  17.370   8.460  11.669 -0.0920  0.5551  0.2358
21498W        W37307  15.820   2.670   2.709  0.0357 -0.2941  0.0365
21499W        W37308  15.132  14.332   4.894  0.0715 -0.3716 -0.2183
21500W        W37309   2.656   6.107  14.050  0.1378 -0.0981  0.2016
21501W        W37310  10.996  18.071  14.640  0.1722 -0.0587  0.1039
21502W        W37311   6.508  12.709   5.175 -0.0959  0.1481 -0.1693
21503W        W37312   2.476   9.573   6.078  0.5403 -0.1582  0.0011
21504W        W37313   7.515  11.056  13.785  0.1447  0.1398 -0.2607
21505W        W37314  10.141  17.034   3.098  0.2220 -0.0306  0.0119
21506W        W37315   4.507   3.536   1.187  0.2706 -0.0952  0.2821
21507W        W37316  14.103  15.226   1.746  0.0675  0.0724  0.2308
21508W        W37317   6.933  10.079  13.036  0.0889  0.1527  0.0473
21509W        W37318   9.971  13.445   3.692  0.0817  0.0761 -0.1867
21510W        W37319   7.322   9.856   5.228 -0.0192 -0.1422  0.1482
21511W        W37320   6.483  14.952   5.033 -0.2415  0.1191  0.0448
21512W        W37321  16.741  10.630  14.678  0.4819  0.4143 -0.1943
21513W        W37322  11.789   8.154   2.434  0.0768  0.0700 -0.0807
21514W        W37323   4.494  14.831  14.301 -0.0762 -0.0423  0.2923
21515W        W37324  17.907  11.865   5.074 -0.1062  0.0753 -0.2568
21516W        W37325  11.131   0.227  12.620 -0.0721  0.1020 -0.0136
21517W        W37326  17.689   0.710  15.548 -0.1198  0.0807  0.0764
21518W        W37327   1.085   3.447   1.237 -0.1525 -0.1083  0.0253
21519W        W37328  13.400   0.217  12.555  0.0224 -0.0811 -0.1885
21520W        W37329   5.728  18.427   5.484  0.1637  0.0945  0.0907
21521W        W37330  16.448  10.465   0.815 -0.0950 -0.0243 -0.3453
21522W        W37331  14.641   7.533   4.831  0.0101  0.0588 -0.1090
21523W        W37332  17.655   1.772  15.445 -0.1278 -0.0302  0.0977
21524W        W37333  14.632   1.694  11.078 -0.1029 -0.0611  0.1482
21525W        W37334  15.308  11.814   3.705  0.4266 -0.2550  0.3056
21526W        W37335   7.837   1.572   2.210  0.2943  0.0758  0.1739
21527W        W37336  15.834  12.077  12.214 -0.0039 -0.1001 -0.1897
21528W        W37337   3.873   1.697  14.015  0.0303  0.2847 -0.1175
21529W        W37338  12.352   8.795   0.493  0.3237  0.0063 -0.2353
21530W        W37339   6.984   0.358   2.935  0.3384  0.2457 -0.0844
21531W        W37340   4.410  16.212  12.186  0.0965  0.2350 -0.0749
21532W        W37341   9.036  12.834   1.428 -0.1212 -0.0265 -0.1048
21533W        W37342  16.169   5.860   0.996 -0.0838 -0.0763  0.1080
21534W        W37343  14.436   7.570   5.304 -0.0004  0.4012  0.1668
21535W        W37344   5.291  13.627   4.062  0.2553 -0.0670 -0.2766
21536W        W37345   7.691   4.403  14.944 -0.2304 -0.0717  0.2296
21537W        W37346   2.809   1.761   0.739 -0.0402  0.1229  0.2172
21538W        W37347   0.874   3.565   0.223 -0.2205 -0.0341 -0.0121
21539W        W37348  11.617   2.089   1.756  0.0237  0.3049 -0.0434
21540W        W37349   0.182   8.560   1.353 -0.1430 -0.1154 -0.0879
21541W        W37350   2.838  11.359   5.084 -0.2520  0.0368  0.1405
21542W        W37351  13.385  10.302   4.139  0.0676 -0.1223  0.0833
21543W        W37352   8.539  12.378  13.452 -0.0391  0.0140 -0.1149
21544W        W37353   2.223   2.248  13.340 -0.2862 -0.1341  0.1720
21545W        W37354  18.244   5.483  11.961 -0.3118  0.0307  0.1736
21546W        W37355  14.259   7.187  12.340 -0.4186  0.4182 -0.2494
21547W        W37356  11.259   7.217  15.783  0.0933 -0.4725  0.2482
21548W        W37357  11.839   0.211   2.962  0.1623  0.1686  0.0292
21549W        W37358   5.383  14.079  14.275 -0.1533 -0.2044 -0.0292
21550W        W37359  11.480  12.351  11.914  0.1055 -0.1922  0.3070
21551W        W37360   3.205  15.486  12.532  0.3069 -0.3930  0.1606
21552W        W37361  14.255   4.718   4.207 -0.0165 -0.1686  0.0574
21553W        W37362   3.218   4.970  11.670  0.0955 -0.2163  0.0968
21554W        W37363  17.390  10.811  11.749 -0.0791 -0.1361 -0.2017
21555W        W37364   6.011   3.634   2.514 -0.4184  0.1713  0.2643
21556W        W37365  12.167   6.864   2.608 -0.0543  0.1075 -0.0266
21557W        W37366   9.344  11.444  12.628 -0.0423 -0.1974 -0.1315
21558W        W37367  11.560   0.735   3.861 -0.1566  0.0165 -0.0437
21559W        W37368  15.317  10.478   1.824 -0.2776 -0.2811 -0.1678
21560W        W37369  16.007   2.657   2.205 -0.2071  0.1537 -0.0468
21561W        W37370   2.623   1.050  15.641 -0.1407  0.0174  0.0464
21562W        W37371  12.483   2.698   1.371 -0.2764  0.3329  0.0508
21563W        W37372  10.933  16.469   4.969 -0.0416 -0.1305 -0.0733
21564W        W37373  10.223  10.358   2.466  0.1502  0.1718  0.0091
21565W        W37374   5.461   4.993  10.883  0.0401  0.2134  0.0970
21566W        W37375   2.646   0.725   2.407  0.1905 -0.1238 -0.1996
21567W        W37376  12.925  14.490   1.324  0.0532 -0.2341 -0.1529
21568W        W37377   5.795   9.752  11.915 -0.2258 -0.2406  0.1395
21569W        W37378   5.646   3.498   2.803 -0.1390  0.0169 -0.2790
21570W        W37379   6.147   2.606   0.487 -0.0959 -0.2170 -0.2217
21571W        W37380   5.737   8.359   5.061  0.1727  0.2875  0.0814
21572W        W37381   5.979   0.562   0.896  0.0654 -0.2531 -0.1440
21573W        W37382  13.685  12.995   0.763  0.0444  0.0206  0.1710
21574W        W37383  18.301   6.056  10.820 -0.0809  0.0504  0.2226
21575W        W37384   3.564   8.542   3.119 -0.2952  0.1664 -0.0659
21576W        W37385   9.963   4.716   2.116 -0.1112  0.1108 -0.0798
21577W        W37386   6.778   0.121  11.828 -0.2976 -0.2718 -0.1215
21578W        W37387  14.216   6.046  14.520 -0.4260 -0.1927  0.1387
21579W        W37388   5.650  10.125   1.233 -0.4371  0.1460  0.0292
21580W        W37389   6.526   7.779   1.847  0.2292  0.3811  0.2731
21581W        W37390   4.238  17.618  12.407  0.0406  0.2046 -0.1962
21582W        W37391  11.911   6.356  10.078 -0.6311  0.1759 -0.0384
21583W        W37392  13.925   7.606  13.505  0.1214  0.0255 -0.1276
21584W        W37393  14.623   5.099   2.136  0.1496 -0.1258 -0.0021
21585W        W37394  15.846   9.878   9.948 -0.2014  0.0463  0.0446
21586W        W37395  12.459  10.104   3.102 -0.0283 -0.3123 -0.2141
21587W        W37396  14.817  13.770  11.555 -0.1879 -0.0359 -0.0028
21588W        W37397   2.292  15.954  15.769  0.0830 -0.3044  0.1003
21589W        W37398  12.815   0.531   0.323 -0.0037  0.2965 -0.1627
21590W        W37399   0.846  16.820  15.625 -0.0254  0.1791  0.0526
21591W        W37400  17.569  10.350   2.122  0.1882 -0.0257 -0.0192
21592W        W37401  17.167   3.765  15.836 -0.0993  0.0086 -0.0732
21593W        W37402   4.797   3.761   2.681  0.2613  0.1607  0.2190
21594W        W37403   4.437  14.652   5.033  0.1121  0.1186  0.2349
21595W        W37404  14.401   3.498   4.673 -0.0966  0.1694  0.1887
21596W        W37405   2.119   6.635   1.572  0.0393  0.1731  0.2297
21597W        W37406  10.517   4.348   1.161 -0.1989 -0.1243 -0.2450
21598W        W37407  17.309   6.220   1.743  0.1611  0.1170 -0.0461
21599W        W37408  18.155   2.457  14.320  0.2118  0.1215  0.1785
21600W        W37409   3.294   2.159  12.079 -0.0118  0.3357 -0.1195
21601W        W37410  10.298   9.255   1.432  0.0175  0.2112 -0.3173
21602W        W37411  13.995   9.060  13.253 -0.3811  0.2722 -0.3321
21603W        W37412  14.072   2.230   1.270 -0.0026 -0.0075  0.0226
21604W        W37413  13.260   0.709  12.703  0.1874  0.0644  0.2290
21605W        W37414  12.281  11.100  12.456  0.0468 -0.1220 -0.1764
21606W        W37415   5.761   5.020  13.460  0.4269 -0.0997 -0.0515
21607W        W37416  13.515   5.389  13.359  0.0456 -0.0908  0.1665
21608W        W37417   6.155   4.865   3.181  0.2002 -0.0460  0.0917
21609W        W37418  17.923   4.583   2.252 -0.0500 -0.2539  0.1162
21610W        W37419  13.016  12.110  15.666  0.3609 -0.2476  0.1063
21611W        W37420  10.717   9.258  13.925  0.2397 -0.1255 -0.2331
21612W        W37421   2.023   0.460  12.282  0.2083  0.0087 -0.0003
21613W        W37422  13.618  11.897  14.772  0.2415  0.1342  0.0479
21614W        W37423   9.793  13.916   2.613  0.0823  0.0747 -0.1158
21615W        W37424   0.851  15.062   4.905 -0.0983 -0.0383  0.0450
21616W        W37425  18.301   9.920  13.256 -0.2164 -0.1446  0.0928
21617W        W37426   8.078  11.411   4.327 -0.0713  0.1602  0.1534
21618W        W37427  11.939   2.769  14.955  0.0997 -0.0360  0.2874
21619W        W37428  14.730   4.098  10.516 -0.1275  0.2342 -0.0824
21620W        W37429   8.461  16.431  13.893  0.0230  0.0411 -0.4417
21621W        W37430   2.912   6.129  13.143  0.0682 -0.2143  0.3187
21622W        W37431   2.596  15.518  12.171 -0.1550  0.0169 -0.0280
21623W        W37432  11.231   6.258  15.507 -0.0256 -0.0356 -0.3201
21624W        W37433   0.500   3.626   5.097 -0.0615  0.0038 -0.0740
21625W        W37434   4.541  17.041   2.875  0.0352  0.2805  0.2458
21626W        W37435   5.012   6.789   5.828 -0.0584  0.1854 -0.0559
21627W        W37436   9.225  14.550   2.392 -0.1255  0.1514  0.2159
21628W        W37437  14.439   9.847   1.931  0.0021  0.0172 -0.0576
21629W        W37438  17.853   3.630   5.584 -0.0900 -0.2933  0.1965
21630W        W37439   3.349  13.798  10.875  0.1302 -0.4866  0.0820
21631W        W37440  17.389  15.305   5.570  0.1867  0.0335  0.2123
21632W        W37441   0.120   3.325   4.913 -0.1653 -0.0289  0.0522
21633W        W37442   7.010   6.229   2.658  0.0409 -0.0472 -0.0797
21634W        W37443   0.619  14.521   5.658 -0.0117  0.1587 -0.0147
21635W        W37444   7.364   8.179  11.748  0.0185 -0.1205 -0.0735
21636W        W37445   6.540   2.058   1.631 -0.0239 -0.0785 -0.2348
21637W        W37446  17.248   3.655  11.863 -0.1648 -0.1344  0.0267
21638W        W37447   5.368   8.050   0.483 -0.3012 -0.1058 -0.1247
21639W        W37448  15.752   8.959   1.755  0.0152 -0.0836 -0.0126
21640W        W37449   0.422  16.620   1.222 -0.0298  0.0564 -0.2134
21641W        W37450  15.703   0.096   0.490  0.2597  0.1396  0.0708
21642W        W37451   8.984  17.026   0.979 -0.1186 -0.0506  0.0972
21643W        W37452   9.746   2.564   1.240  0.0830 -0.0133  0.1099
21644W        W37453  11.369  14.218   2.194  0.2766 -0.2420 -0.1368
21645W        W37454   4.904  15.470  12.479  0.1933 -0.1452 -0.2634
21646W        W37455  18.038  11.072   4.016  0.1145  0.1458  0.1818
21647W        W37456   8.951   6.165   3.760  0.1779  0.1968  0.0438
21648W        W37457   1.916  17.093  15.145  0.0492  0.0153  0.1193
21649W        W37458   8.439  16.121  15.558 -0.0819 -0.3674 -0.3106
21650W        W37459   4.813  12.006   5.025 -0.0590  0.1947 -0.1934
21651W        W37460  17.984   6.760  10.303  0.0256 -0.0743  0.2405
21652W        W37461  17.146   1.437  12.008 -0.1049 -0.1053  0.4413
21653W        W37462  11.276   2.068   3.158  0.0890 -0.2639  0.0245
21654W        W37463   4.650  12.182  15.281 -0.1330  0.4070  0.3629
21655W        W37464  11.634  17.365   2.454  0.0432  0.0309  0.1226
21656W        W37465  17.227   0.330   3.089  0.2810  0.3573  0.1261
21657W        W37466   4.826   0.364  12.533  0.0836  0.0975 -0.5929
21658W        W37467  12.696  18.189   0.953  0.1987 -0.0861 -0.1979
21659W        W37468  17.147  12.489   2.546 -0.2731  0.1948  0.2964
21660W        W37469   6.502  10.777   3.351  0.1358 -0.0809  0.3769
21661W        W37470  12.023  15.759  12.145 -0.3218  0.2699 -0.1864
21662W        W37471  14.865   6.485  12.264  0.1100 -0.0555 -0.1766
21663W        W37472   7.708   3.601  12.706  0.1966  0.3279  0.0375
21664W        W37473  17.194   2.047  15.579 -0.1272 -0.2272  0.2260
21665W        W37474   2.287  12.107  13.991 -0.0106 -0.1738 -0.0645
21666W        W37475   3.814   2.791   9.935  0.3051  0.0172  0.1333
21667W        W37476  17.072   2.909  11.365  0.3326 -0.2269 -0.0884
21668W        W37477  12.190  16.546   1.696  0.1344 -0.0349 -0.0929
21669W        W37478   5.225   4.273  15.750 -0.1682 -0.2361  0.0247
21670W        W37479   9.194   2.490  14.258  0.3240 -0.2394  0.1000
21671W        W37480  12.036  17.506  11.290 -0.2681  0.0452 -0.0724
21672W        W37481  13.719   2.478  10.404  0.3881 -0.1832  0.2506
21673W        W37482   5.730   0.648  12.780 -0.2707 -0.0568  0.1777
21674W        W37483  12.340  14.387   0.397 -0.0785  0.3133 -0.2063
21675W        W37484   1.454  17.031   4.786  0.1682 -0.0426 -0.0123
21676W        W37485   9.757   5.878  14.026 -0.1495 -0.0435 -0.1334
21677W        W37486  18.358  14.433  15.667  0.1345 -0.0274  0.0079
21678W        W37487   0.799  10.245   4.600 -0.2571 -0.2823 -0.0483
21679W        W37488   5.913  10.597  13.069  0.4354  0.1983 -0.0255
21680W        W37489  15.988  10.999   4.687 -0.0392  0.0951  0.0902
21681W        W37490   5.602  13.458   3.072  0.0800  0.1613  0.0135
21682W        W37491   2.078  14.176  15.126  0.1223 -0.1622  0.0303
21683W        W37492  13.034   9.798   1.484  0.0076  0.1668  0.3389
21684W        W37493   8.406   5.475  15.854  0.2234 -0.0127  0.0730
21685W        W37494   5.357  10.621  13.850 -0.1798 -0.1713  0.3009
21686W        W37495  15.221  10.849  14.221  0.1025  0.2325  0.0245
21687W        W37496  10.067   9.835  10.225  0.0817 -0.1124  0.1251
21688W        W37497  16.477   5.026   1.594  0.0980 -0.0179  0.1372
21689W        W37498  10.907   0.899   5.728  0.1944 -0.0919 -0.1534
21690W        W37499   9.342   1.324   2.325  0.3188 -0.2869  0.2878
21691W        W37500  18.296   7.093   1.803 -0.0147  0.0052 -0.0249
21692W        W37501  11.585   7.246  14.351 -0.2257 -0.0827  0.1509
21693W        W37502   1.095  13.810  15.464 -0.0902 -0.0478 -0.1079
21694W        W37503  15.028  12.002  14.872 -0.0385 -0.4024  0.0976
21695W        W37504  17.052   4.058   2.358 -0.0511 -0.0709 -0.2597
21696W        W37505   1.199   9.969   5.038 -0.0626 -0.0081  0.1245
21697W        W37506  17.409   7.207  15.428 -0.1601  0.4067  0.0469
21698W        W37507   5.325  15.321  12.858  0.3452 -0.0521 -0.0376
21699W        W37508   9.360   8.897   1.268  0.0525 -0.1515  0.3505
21700W        W37509   5.461  18.343   2.309 -0.1570  0.0102  0.1331
21701W        W37510   1.735  11.577  13.213  0.0766  0.2331 -0.3241
21702W        W37511  10.716   3.570  13.288 -0.0426 -0.0361 -0.5247
21703W        W37512   2.846  14.278   0.436 -0.0140 -0.0919  0.1171
21704W        W37513   4.548   7.968   1.418 -0.0948  0.0749  0.0240
21705W        W37514  13.304   6.459  13.836 -0.0529 -0.1522 -0.0460
21706W        W37515   9.102  14.854  10.986 -0.1327  0.3107  0.3451
21707W        W37516  16.255   9.551  10.669  0.1215 -0.3569 -0.0679
21708W        W37517  16.558   2.964   5.175 -0.1746  0.2883  0.2018
21709W        W37518   7.940   1.854   1.483  0.2217  0.0661  0.3090
21710W        W37519   5.638  17.210   1.267  0.2176  0.1391  0.1875
21711W        W37520  12.084  15.873  13.166  0.0117  0.1259  0.0633
21712W        W37521   3.232   6.155  12.731 -0.0826  0.1863 -0.4075
21713W        W37522   1.317  15.228  10.678  0.0813  0.0926  0.0557
21714W        W37523   1.240   2.698  12.024  0.4147  0.2328 -0.0356
21715W        W37524  11.076  13.720   2.248  0.0549  0.1331  0.1228
21716W        W37525   1.780  10.809  15.075  0.1142 -0.3632  0.0207
21717W        W37526   2.341   2.738  13.569  0.2859  0.0733 -0.0787
21718W        W37527  10.995  15.243  15.584 -0.1652  0.0594  0.0215
21719W        W37528   8.020   3.842  13.661 -0.1796 -0.4871  0.1512
21720W        W37529   4.198   2.115   5.714 -0.0370 -0.0220 -0.0029
21721W        W37530   4.488   9.686  12.536  0.1663 -0.2473 -0.0343
21722W        W37531  12.169   3.789   3.577 -0.0017  0.1924 -0.0287
21723W        W37532  15.702  12.344  12.634  0.2759  0.0284 -0.1826
21724W        W37533  11.067  10.172   3.701  0.1514 -0.4444  0.2368
21725W        W37534  10.139  15.562   1.673  0.2708  0.2449  0.4724
21726W        W37535   9.279   7.010  15.009 -0.1609 -0.0326  0.2141
21727W        W37536  13.604  16.551   1.691 -0.3163 -0.2075 -0.0461
21728W        W37537  15.748   6.809  13.412  0.2844  0.0636  0.0263
21729W        W37538   0.252   4.432  13.576  0.0295  0.2686  0.0845
21730W        W37539  14.701  17.180  11.807 -0.1753  0.2004 -0.1244
21731W        W37540  15.270   1.088   2.273 -0.0123  0.2390 -0.2325
21732W        W37541  11.388  18.203  12.587 -0.4099 -0.0260 -0.0705
21733W        W37542   6.189   1.704   4.896  0.3989 -0.0360  0.2153
21734W        W37543  10.121   7.783   2.506  0.0111 -0.1803  0.2037
21735W        W37544  12.842   1.443  12.996 -0.2780  0.1531 -0.3215
21736W        W37545  16.495   7.059   0.200 -0.1708 -0.0355 -0.0560
21737W        W37546   8.638   5.603   0.879  0.1066  0.0313 -0.2688
21738W        W37547  13.653   2.198  13.729  0.0319 -0.0604 -0.1314
21739W        W37548  10.613   5.595   1.169  0.1807 -0.3118  0.2972
21740W        W37549   6.948  14.224   0.661 -0.2300 -0.1349  0.0227
21741W        W37550   7.270   4.078   5.298 -0.2512 -0.1253 -0.2770
21742W        W37551   0.482  16.137  15.049 -0.0097  0.0516 -0.0564
21743W        W37552  16.971   5.142   0.541 -0.0364  0.1514 -0.0095
21744W        W37553  16.823   9.273   5.125  0.0023  0.0771  0.2492
21745W        W37554   8.188   7.602  14.701  0.1059  0.2751 -0.1801
21746W        W37555   7.201   6.459   1.588 -0.0125 -0.1330  0.1344
21747W        W37556   5.570   1.276  15.712  0.0590  0.5908  0.0205
21748W        W37557  18.014  12.020  11.527 -0.0162  0.0700  0.0585
21749W        W37558   0.627  17.632  14.996 -0.0063 -0.0511  0.0883
21750W        W37559   1.163  12.999  13.429  0.1312 -0.1418 -0.0237
21751W        W37560   0.158  12.852  14.997 -0.1951 -0.2573 -0.1096
21752W        W37561   7.334  14.906  12.970 -0.1585 -0.2503  0.0162
21753W        W37562  11.548  13.299   3.423 -0.1008 -0.0320  0.2850
21754W        W37563  10.477  15.061  13.294  0.1492  0.2132  0.0607
21755W        W37564   7.328  16.974  13.413  0.0514  0.2156  0.2305
21756W        W37565   7.305  13.883  10.804 -0.1635 -0.2055  0.1881
21757W        W37566  14.103   3.108   4.337 -0.2559 -0.2044  0.2067
21758W        W37567  12.716   4.403  14.013  0.2686 -0.2532 -0.2861
21759W        W37568   7.825  10.719  13.446 -0.1207  0.0353  0.1393
21760W        W37569   4.821   8.293  15.011 -0.0968  0.1479 -0.0480
21761W        W37570  12.598  15.916   9.992 -0.1246  0.4381  0.1192
21762W        W37571   1.641  10.150  12.319 -0.0977  0.0568  0.3385
21763W        W37572  15.652   8.272  13.036 -0.2259 -0.3232 -0.3969
21764W        W37573   7.823  11.910  15.482 -0.1094  0.0209 -0.1875
21765W        W37574   1.189  13.781   0.398 -0.2869 -0.0581 -0.1474
21766W        W37575   6.773   5.542  12.592  0.1074  0.1144 -0.3255
21767W        W37576   1.763  15.796  15.488  0.2877 -0.0445  0.5026
21768W        W37577  10.473  17.807  14.673  0.0409 -0.1328  0.2505
21769W        W37578  11.811   3.037  14.512 -0.0081  0.0295 -0.3547
21770W        W37579  13.212  14.089   4.338 -0.2074  0.0179  0.0067
21771W        W37580   5.678   6.697  12.508  0.0755  0.3331 -0.0992
21772W        W37581   8.976   0.130   4.842 -0.1185 -0.0535 -0.1814
21773W        W37582   6.465   7.448   1.099  0.0884  0.2514 -0.1067
21774W        W37583  17.595   2.637  11.472 -0.0863 -0.0593 -0.2935
21775W        W37584   1.020  12.211  11.654  0.0781 -0.1126  0.1350
21776W        W37585   3.321   0.803  11.116  0.0711 -0.1064  0.3207
21777W        W37586  11.800  18.066   3.712  0.1140  0.0222 -0.1304
21778W        W37587   0.948  16.544  12.644 -0.0565  0.0982  0.0828
21779W        W37588  15.568   0.994  12.359  0.0848 -0.2154 -0.1085
21780W        W37589  10.429  10.034   0.216 -0.0175 -0.0962  0.0626
21781W        W37590   1.127   2.309   0.703 -0.0175 -0.0973  0.2076
21782W        W37591   5.771  16.708   1.115  0.2028  0.2626  0.2777
21783W        W37592  17.009  12.815   3.140 -0.1248 -0.0305 -0.0024
21784W        W37593   4.568   7.403  13.219  0.2513 -0.2226  0.1653
21785W        W37594  17.816   2.824  11.928 -0.0396 -0.1252  0.2407
21786W        W37595   2.071   8.063  13.927  0.3267 -0.0981  0.3082
21787W        W37596  16.988  15.484   4.039 -0.0567  0.2709 -0.1556
21788W        W37597  10.879   8.690   4.071 -0.2750 -0.3415  0.0703
21789W        W37598   7.943   7.771  15.102 -0.0232 -0.0714  0.1034
21790W        W37599   2.131   5.282   0.584 -0.2255  0.0082 -0.4231
21791W        W37600   1.987   6.086  15.417 -0.1761  0.0677  0.1132
21792W        W37601  16.744  16.116  15.053  0.3440 -0.1509  0.0446
21793W        W37602  11.251   6.040   4.555 -0.0192  0.1822  0.2475
21794W        W37603   4.898   5.082  14.899 -0.1977 -0.2403 -0.1091
21795W        W37604   2.483   8.893   1.818 -0.2948  0.3111  0.0795
21796W        W37605   4.894  10.209   5.109  0.0559  0.1469 -0.0209
21797W        W37606   0.049   3.178   3.612  0.1292 -0.0858 -0.3639
21798W        W37607   0.281   3.009   4.442  0.2179  0.0842  0.3694
21799W        W37608  14.992  16.373  14.228 -0.0455 -0.0767  0.1400
21800W        W37609  12.082  10.120  10.104 -0.2962 -0.1512 -0.2818
21801W        W37610  14.444   7.073   1.684  0.1280  0.1939 -0.2196
21802W        W37611  14.875   5.824   4.798 -0.0289  0.0012  0.0220
21803W        W37612  15.251   6.464  12.676  0.6242 -0.1908 -0.1500
21804W        W37613  13.406   0.640   9.960 -0.0217  0.1734  0.1490
21805W        W37614   3.863   5.105  15.194  0.0407  0.1770  0.2694
21806W        W37615  13.105   6.757  14.250  0.1407  0.1404  0.0969
21807W        W37616  12.815   1.874  11.597 -0.3161 -0.2894  0.1736
21808W        W37617  13.500   2.709  14.686  0.0619  0.0782  0.0432
21809W        W37618   7.218  10.628  14.520  0.1038 -0.1326 -0.1268
21810W        W37619   1.815  13.735   4.914 -0.4151 -0.1174  0.1232
21811W        W37620   7.109  15.180  12.358 -0.3349  0.2213 -0.2778
21812W        W37621  12.969   5.998  15.018 -0.1504  0.0459 -0.0419
21813W        W37622   3.152   7.057  11.040  0.1425 -0.1424 -0.3075
21814W        W37623   4.387  12.456   4.209  0.0485 -0.0605  0.0191
21815W        W37624   8.964   8.569  11.908 -0.0088 -0.0631  0.1435
21816W        W37625   7.736  15.209  12.116 -0.2459  0.0014 -0.1992
21817W        W37626   2.855   8.835   2.361 -0.0488 -0.1475 -0.2392
21818W        W37627  13.732  18.032  13.753 -0.1207 -0.1282 -0.0500
21819W        W37628  18.392   0.528   2.269 -0.1433  0.0490 -0.2606
21820W        W37629  15.682   6.197  12.464 -0.0373 -0.0607  0.0845
21821W        W37630   6.451   2.269  13.787 -0.0436  0.3239 -0.0253
21822W        W37631  11.239   5.878  13.979  0.0232 -0.0122 -0.0032
21823W        W37632  16.029   0.317   2.352  0.0346 -0.0530 -0.0714
21824W        W37633   6.967  12.339   5.299 -0.3328  0.0173 -0.0376
21825W        W37634   5.911  11.873  14.669 -0.0838 -0.1063 -0.1700
21826W        W37635  11.054  13.666  11.751  0.1151  0.4161 -0.6374
21827W        W37636   7.568   5.047   2.032 -0.0656 -0.1351 -0.1622
21828W        W37637  14.132   4.672   1.188  0.0353 -0.2899 -0.0603
21829W        W37638   1.261  16.511   3.573  0.1193 -0.0675 -0.1336
21830W        W37639  13.896   3.550  15.220 -0.2458  0.2104 -0.1940
21831W        W37640  17.821  15.757   2.305 -0.0317 -0.2089 -0.2349
21832W        W37641  17.453   5.904  13.532  0.1241 -0.2610 -0.1747
21833W        W37642  15.860   0.315   5.263 -0.0990 -0.0998 -0.2045
21834W        W37643  10.323   3.687  13.014 -0.2575  0.0213  0.0120
21835W        W37644   5.843   7.406   3.665 -0.0472  0.0627  0.0554
21836W        W37645  12.770  15.727  15.322  0.2063 -0.1280  0.0688
21837W        W37646  14.399   3.920  13.458 -0.0568 -0.1303 -0.2993
21838W        W37647   4.544  16.080   2.533 -0.2955  0.3343 -0.3275
21839W        W37648   0.374  16.475   3.512  0.0084  0.0930 -0.1267
21840W        W37649   7.159   6.291   3.514  0.2481  0.0554  0.2234
21841W        W37650   4.440   1.482   3.702 -0.0363  0.3066  0.3689
21842W        W37651   3.193  13.650   1.199 -0.0638  0.0370  0.0240
21843W        W37652   8.548  12.628   0.270  0.2383  0.2628 -0.0707
21844W        W37653  18.069   1.341  12.205  0.0413  0.4075  0.0292
21845W        W37654   2.903   1.294   4.476 -0.2524 -0.3787  0.1369
21846W        W37655   9.637   3.765   3.779 -0.1137 -0.2661  0.3961
21847W        W37656   2.269   4.489   5.751  0.2213 -0.3237  0.0101
21848W        W37657  15.264   1.491   3.398  0.3918 -0.2168 -0.1652
21849W        W37658  13.647   4.308   3.276 -0.1445  0.2461  0.0823
21850W        W37659   8.156  18.091   2.482 -0.1167  0.1425 -0.0365
21851W        W37660  14.445   5.691  11.965 -0.1972  0.0412  0.0881
21852W        W37661  16.375  17.830  11.568  0.0171  0.0893  0.0128
21853W        W37662  15.582   7.187  15.628  0.0066  0.0427 -0.0911
21854W        W37663  15.133  18.057  10.719 -0.1077  0.1676 -0.4202
21855W        W37664  15.463  14.682   3.176 -0.1346 -0.3205 -0.1553
21856W        W37665  15.335   9.791   1.652 -0.0225  0.1517  0.1022
21857W        W37666  10.764   8.298  15.538 -0.2304  0.1788  0.0577
21858W        W37667   1.495   4.090   6.201 -0.2887 -0.1704  0.4090
21859W        W37668   3.406  15.363   0.654  0.2220 -0.2453 -0.0308
21860W        W37669   2.787   4.689   2.403  0.3100 -0.0759  0.0893
21861W        W37670   6.787  10.618  15.483 -0.3485  0.0296  0.1273
21862W        W37671   3.323  11.884   0.469  0.0242 -0.0272 -0.2310
21863W        W37672   1.850  12.580   3.582 -0.2386  0.3806 -0.3779
21864W        W37673   3.314   3.970  11.454 -0.3425  0.0293  0.0494
21865W        W37674  14.262  10.007  15.514  0.0931 -0.4448  0.0163
21866W        W37675  15.363   0.246  13.310 -0.1717 -0.2311 -0.0427
21867W        W37676   2.809   6.995  13.359  0.0574  0.0501  0.0253
21868W        W37677   1.831   9.747  14.623 -0.0667  0.2467 -0.3119
21869W        W37678   8.548  14.591   1.333 -0.2093  0.0812  0.4835
21870W        W37679   4.622   3.714   3.762 -0.2416  0.1352 -0.0743
21871W        W37680  14.393   1.497   2.784  0.2353  0.0686  0.2582
21872W        W37681  14.792   3.547   1.356 -0.0424 -0.1605  0.3431
21873W        W37682  10.215  15.895  11.633 -0.1564  0.3377 -0.3721
21874W        W37683  15.077   1.243   4.034  0.0030  0.2467  0.0382
21875W        W37684  15.318  14.026   0.830 -0.2359 -0.0755 -0.0374
21876W        W37685  18.422  10.736   2.795 -0.0377 -0.2191 -0.0660
21877W        W37686   5.953   0.043  15.808  0.1608  0.1401  0.4143
21878W        W37687  17.536  15.905  15.581  0.0278 -0.0807 -0.0402
21879W        W37688   1.985   2.581   0.996  0.2768 -0.0157  0.2234
21880W        W37689   8.744   9.268   2.869  0.0085 -0.0830  0.0822
21881W        W37690   3.597   4.657   4.484 -0.1741 -0.0109  0.0019
21882W        W37691  12.216   8.375  15.094  0.1719 -0.1849 -0.1898
21883W        W37692  10.818  11.769   4.154  0.0354  0.1256  0.1973
21884W        W37693  12.732  15.114   2.811  0.0452  0.0617  0.1696
21885W        W37694  17.082  11.989   0.007 -0.0697  0.3663  0.2185
21886W        W37695  14.262   6.525  12.820  0.2425  0.0033 -0.0306
21887W        W37696  11.870   9.448  11.832  0.1709 -0.0237 -0.1722
21888W        W37697  11.127  15.862   2.438  0.0678  0.3101  0.2520
21889W        W37698   9.333  14.174   1.432 -0.3459 -0.2961  0.0406
21890W        W37699  17.991   4.881  14.137  0.0520  0.0903 -0.0083
21891W        W37700   5.145  16.266  11.754  0.0924  0.3086 -0.0583
21892W        W37701  14.921   8.953   1.036 -0.0644  0.1594 -0.2134
21893W        W37702   5.954   2.090  14.732  0.0889 -0.1127 -0.1089
21894W        W37703   5.419  12.702  12.872  0.2408  0.2098  0.2474
21895W        W37704  14.012  17.000  14.179  0.0275  0.2943  0.1919
21896W        W37705   0.002   8.816   0.566 -0.0316  0.1716 -0.1483
21897W        W37706  15.259   6.228   0.048  0.1240 -0.0002  0.1188
21898W        W37707   3.746   8.489  14.397  0.3178 -0.1280  0.1770
21899W        W37708  13.847  14.424  15.684  0.0473  0.2629 -0.1686
21900W        W37709  12.949   8.990   1.242  0.1179  0.1209  0.3172
21901W        W37710   9.561   9.036  13.751  0.1428  0.2107  0.0527
21902W        W37711  12.265   8.497   4.797  0.2925  0.1611  0.1703
21903W        W37712   5.906  16.131  13.933  0.1230  0.1780 -0.0244
21904W        W37713  16.661   5.885  12.738  0.2063 -0.0347 -0.1841
21905W        W37714   6.063  11.469   2.325 -0.0835 -0.0217 -0.2177
21906W        W37715   2.930   6.276   2.526  0.0070 -0.0483  0.0389
21907W        W37716  13.886   7.947  14.438  0.0701 -0.0469  0.1392
21908W        W37717   5.892   1.075  14.133  0.2621 -0.1441 -0.1372
21909W        W37718   4.088  13.028   4.567  0.0407 -0.1286 -0.3038
21910W        W37719   3.830  18.037   4.157 -0.2648  0.0411  0.1427
21911W        W37720  14.527  16.758  13.034 -0.0290 -0.2089 -0.2029
21912W        W37721   8.717   9.626   2.048 -0.0418 -0.1321  0.1029
21913W        W37722   8.946  16.525  12.195  0.2464  0.0874 -0.0243
21914W        W37723   7.725   7.912  11.144  0.1743 -0.0984  0.1217
21915W        W37724   3.226  10.166   4.285 -0.1471  0.1530 -0.0350
21916W        W37725   0.111  14.259  11.423 -0.1833  0.0464  0.0834
21917W        W37726  10.610   6.492  15.488  0.2973 -0.0594  0.0698
21918W        W37727   5.630   6.529   0.947  0.1346  0.1238 -0.1771
21919W        W37728   0.504   7.085   4.305  0.0065 -0.0950 -0.0484
21920W        W37729   7.898  10.483   3.686 -0.2218  0.2194 -0.2108
21921W        W37730  12.666  17.456  15.260  0.2037  0.0367 -0.1727
21922W        W37731   7.143  17.820  13.014 -0.2535  0.1411 -0.0667
21923W        W37732   3.683   8.079   3.144  0.0432 -0.0237  0.0449
21924W        W37733  17.696  16.202   3.701  0.3122 -0.3879 -0.2120
21925W        W37734   1.032   0.627   0.214 -0.0706  0.1098  0.0017
21926W        W37735   5.881   8.251  11.504  0.0939 -0.0607 -0.1479
21927W        W37736  16.501   8.602  13.018  0.2222 -0.0277 -0.1155
21928W        W37737  15.439  13.650   9.951  0.0222  0.0706 -0.0890
21929W        W37738   6.874   2.457   2.152  0.1266  0.4378 -0.2415
21930W        W37739  17.630  16.425  11.920 -0.6055 -0.0341  0.1487
21931W        W37740  11.403  13.038   4.295 -0.1429  0.2283 -0.2987
21932W        W37741   1.203   8.016  15.291 -0.1427  0.0043 -0.1443
21933W        W37742  16.433   8.755   3.176  0.3918 -0.1102  0.0280
21934W        W37743   2.752   3.685  12.381 -0.0688 -0.1374 -0.0892
21935W        W37744   7.289   1.209  11.875 -0.0777 -0.1433 -0.0507
21936W        W37745   1.370   6.633  11.391  0.2517  0.1448  0.3798
21937W        W37746   7.688   1.449  13.600 -0.0494 -0.3115 -0.1953
21938W        W37747  15.318   9.068  15.542  0.0742 -0.3474 -0.3219
21939W        W37748  15.719   3.684   0.635 -0.1064  0.0482 -0.1053
21940W        W37749   6.095   1.396   1.799  0.2937  0.0234 -0.3729
21941W        W37750  10.504   8.767   0.495 -0.1802  0.1650  0.0979
21942W        W37751  17.355  11.178  10.794 -0.3151 -0.1367 -0.1157
21943W        W37752   4.761   6.068   3.233  0.2301 -0.1371 -0.2012
21944W        W37753   6.697  11.541  13.438  0.2310 -0.0328  0.2298
21945W        W37754   6.486  14.181   4.367 -0.0559  0.2502  0.1616
21946W        W37755  11.196  13.649  15.221 -0.4467  0.0669  0.0389
21947W        W37756  13.793   4.399  12.660  0.0135  0.0045 -0.1390
21948W        W37757  11.742  18.404  10.668  0.0147 -0.0475  0.0320
21949W        W37758  15.204   3.537  14.204 -0.3766  0.1719  0.1219
21950W        W37759   5.857  16.585   4.282 -0.1738  0.0985 -0.2245
21951W        W37760  10.896   3.695  14.050  0.2338  0.3823 -0.1116
21952W        W37761   6.420  17.322  12.671  0.2949 -0.2764 -0.1262
21953W        W37762   4.928  10.423  13.389 -0.0993  0.1674 -0.2796
21954W        W37763  12.970  17.983  13.436 -0.0789  0.4216 -0.2191
21955W        W37764  15.867   3.915   1.686 -0.0317 -0.0080 -0.0615
21956W        W37765  13.354  11.342   4.313  0.0816  0.0273 -0.1322
21957W        W37766   5.607  12.212  12.986 -0.1724  0.2857 -0.2450
21958W        W37767   5.613   9.515   4.207 -0.1571 -0.3508 -0.3619
21959W        W37768  11.755  16.144   0.158 -0.2971  0.1885 -0.0980
21960W        W37769  17.184  11.217   4.079 -0.0365 -0.0619  0.5111
21961W        W37770  10.094   7.981   2.938  0.0055 -0.0674  0.0288
21962W        W37771   9.100   4.833  12.357  0.2237  0.0056  0.1903
21963W        W37772  14.299   2.871   3.367 -0.0065 -0.2260  0.0302
21964W        W37773   7.581   3.223   3.654 -0.1733 -0.1717  0.2837
21965W        W37774   1.952  16.015  13.361 -0.0628  0.0216 -0.0799
21966W        W37775  11.724   9.425   0.871  0.0976 -0.2106  0.0987
21967W        W37776   2.190   0.831  12.572 -0.1359  0.1577  0.1212
21968W        W37777   4.322   2.776  12.215  0.1743 -0.1204  0.0306
21969W        W37778   9.933  17.570   1.670  0.0440  0.3118 -0.1768
21970W        W37779   6.138   5.178  14.953 -0.1849 -0.2079  0.2231
21971W        W37780   0.621   8.669  11.371  0.0097 -0.1986  0.2470
21972W        W37781  13.660   0.529   5.564 -0.0179  0.1323  0.1792
21973W        W37782   7.897   3.111   4.911  0.1424  0.1636 -0.1236
21974W        W37783   7.202  15.295  15.778  0.2335 -0.0241 -0.0324
21975W        W37784  10.998   9.063  10.907  0.3203 -0.0524  0.0055
21976W        W37785  11.328  11.875   4.206  0.2474  0.1155  0.2495
21977W        W37786   5.348   7.562  14.920  0.1036 -0.1753  0.1690
21978W        W37787  12.598  15.789   0.013 -0.1527  0.0117  0.2535
21979W        W37788   0.526   1.639  12.025  0.1114 -0.0983 -0.0725
21980W        W37789  15.188   0.955  10.098  0.2452 -0.2706  0.0497
21981W        W37790   8.843   4.548  14.248  0.1829  0.2424  0.0345
21982W        W37791  13.989  12.888   4.833  0.3173 -0.2196  0.1362
21983W        W37792   7.436  17.546   2.136  0.0526 -0.2402 -0.1910
21984W        W37793   4.278   1.286   0.941  0.0954  0.0635 -0.3189
21985W        W37794   5.626   5.615  13.388  0.1037 -0.0038 -0.3951
21986W        W37795   6.155   3.422   5.807 -0.1093  0.2122 -0.0571
21987W        W37796   1.545   2.335   4.330 -0.3854 -0.3982 -0.1554
21988W        W37797  15.904  13.229  15.060 -0.0772 -0.1438 -0.0270
21989W        W37798   6.281   0.816  12.177  0.0140  0.0548 -0.0019
21990W        W37799  15.465   5.210  15.232 -0.1344  0.1412 -0.1666
21991W        W37800  13.886  13.196   2.154  0.1800  0.0520  0.0559
21992W        W37801  13.293   4.272   4.844 -0.3083 -0.2238 -0.2184
21993W        W37802  17.011   6.848  12.177  0.0948  0.2718  0.2328
21994W        W37803  14.605  17.706  14.467 -0.0210 -0.0267  0.0008
21995W        W37804  10.706  12.474  11.609  0.0451 -0.0457  0.0165
21996W        W37805   7.654  13.653  11.104  0.2348 -0.1114  0.3311
21997W        W37806  13.691   8.531   4.813 -0.0313  0.3397 -0.1711
21998W        W37807   1.676   6.971  13.355 -0.3767  0.1153  0.2133
21999W        W37808  17.893   4.893  12.425 -0.0203 -0.0216 -0.0952
22000W        W37809  12.453  12.423  10.276  0.2063  0.0784  0.2091
22001W        W37810   0.662   3.541  13.095  0.0881  0.1303 -0.1119
22002W        W37811   4.695   2.086   2.514 -0.1312  0.0551 -0.2607
22003W        W37812   5.974   5.246  14.308  0.0775 -0.2334  0.2048
22004W        W37813  14.828   9.241  14.421  0.2178 -0.2025  0.1395
22005W        W37814  13.853  16.388   2.989 -0.0741  0.2516 -0.0516
22006W        W37815   8.258  13.943   4.625  0.0637 -0.1638 -0.0970
22007W        W37816  16.003  17.561   0.828  0.1729  0.0943  0.3701
22008W        W37817   1.403   6.801   4.433  0.0913 -0.0235  0.0335
22009W        W37818  15.466   3.814   3.752  0.3158  0.1723 -0.0382
22010W        W37819   0.021   2.435  13.980 -0.0205 -0.2419 -0.1174
22011W        W37820  11.478  18.300  13.745  0.0173 -0.3479 -0.2657
22012W        W37821   9.164  15.716  10.408 -0.4883 -0.0198 -0.2469
22013W        W37822  10.142  14.491  11.851  0.1856 -0.0300  0.1690
22014W        W37823   5.369  14.552  13.437  0.0019  0.1104 -0.3447
22015W        W37824   0.235   6.353   3.867 -0.0462 -0.2439 -0.0734
22016W        W37825  10.314   9.533  11.953  0.1916 -0.1306 -0.0440
22017W        W37826  16.143  17.211  14.702  0.0247  0.0700 -0.0681
22018W        W37827   7.835  16.509  12.671 -0.2069 -0.0424  0.1602
22019W        W37828  10.077  12.631   1.951  0.2059 -0.0534  0.1186
22020W        W37829   7.485   8.736   4.052 -0.3170 -0.0120 -0.3763
22021W        W37830   4.925  17.836  15.297 -0.1659 -0.2746 -0.1045
22022W        W37831   0.659  16.179  12.813 -0.0175  0.0870 -0.0585
22023W        W37832   4.194   8.317   1.082  0.0228  0.1012  0.0391
22024W        W37833   7.455   7.007   4.695  0.1423  0.0210  0.1627
22025W        W37834  17.161   0.530  11.819 -0.3107  0.1411 -0.0018
22026W        W37835  13.307   7.716  11.902 -0.2018 -0.1732  0.2514
22027W        W37836  10.934  12.369  11.123  0.1633 -0.0413  0.3309
22028W        W37837  15.693  17.980  13.102  0.1902  0.1420 -0.0505
22029W        W37838   4.996  16.720   2.782  0.1092  0.0461 -0.1443
22030W        W37839   1.487   2.677   1.128  0.0609 -0.2111 -0.0739
22031W        W37840   6.083  15.390   1.595  0.0987 -0.0130 -0.0056
22032W        W37841  14.899  14.030   4.017  0.2884  0.0624 -0.1100
22033W        W37842   6.204  11.569   2.800 -0.3056 -0.0040  0.0146
22034W        W37843  15.767  11.593  12.042  0.1289 -0.0502 -0.0723
22035W        W37844  18.079  17.609   3.068 -0.0505  0.0662  0.1267
22036W        W37845  13.013   4.184   5.247  0.1108 -0.2134 -0.0524
22037W        W37846   5.120   8.463   1.930 -0.4862 -0.1189 -0.2385
22038W        W37847  12.648   7.051   5.856 -0.0801 -0.1342  0.1190
22039W        W37848  12.707  17.909   5.061  0.1339  0.2801  0.0851
22040W        W37849   3.039   5.619   0.072 -0.0111  0.3721 -0.4164
22041W        W37850  14.672  13.906   2.329 -0.1391 -0.0686 -0.0353
22042W        W37851  17.358   4.604   4.591  0.0738 -0.3159  0.1742
22043W        W37852  13.990  17.600  15.412 -0.0373 -0.2682  0.0841
22044W        W37853   9.776  10.920   2.981  0.1121  0.3936  0.2160
22045W        W37854   7.491  10.818   0.797  0.2895 -0.0490  0.1272
22046W        W37855  14.693  15.797  11.189  0.0134 -0.1877 -0.0581
22047W        W37856   8.323  10.692  13.551 -0.2574  0.2339 -0.0734
22048W        W37857   4.522  11.268  14.777  0.0342 -0.0622  0.0856
22049W        W37858  17.370   8.802   3.768  0.0310  0.3430  0.0539
22050W        W37859   4.081  18.447   1.086  0.0663 -0.1218  0.0265
22051W        W37860   4.988  13.308   0.670 -0.3448 -0.1620  0.1295
22052W        W37861  17.211   6.162  10.068  0.1940  0.0196  0.0536
22053W        W37862   4.999   8.259   2.620 -0.1566  0.0720 -0.1987
22054W        W37863  14.442   7.163   2.193  0.3007 -0.2072 -0.0922
22055W        W37864   5.049   2.853   3.797  0.2155  0.2561 -0.1833
22056W        W37865  18.168   4.102  14.063  0.0004  0.1657 -0.1336
22057W        W37866   2.727   4.494   5.941 -0.1369 -0.0335 -0.3161
22058W        W37867  15.018   4.401  12.517 -0.0841 -0.0372 -0.0477
22059W        W37868  18.420   6.373   1.313 -0.0320  0.0905 -0.1897
22060W        W37869  12.672   6.296  14.764 -0.2363  0.0319  0.2015
22061W        W37870   9.818  16.474   2.038 -0.0192 -0.2167 -0.2523
22062W        W37871  11.320   8.627   1.925  0.0207  0.3258 -0.2875
22063W        W37872  13.928   8.793  14.963  0.0613 -0.1518 -0.0166
22064W        W37873   1.243  16.715  13.687 -0.0676  0.2496  0.2518
22065W        W37874  12.191  14.912   5.727 -0.1175 -0.0571 -0.2039
22066W        W37875   5.396   1.712  15.504 -0.0687  0.2676  0.3696
22067W        W37876  16.834   8.569   4.575 -0.1859 -0.0835 -0.0124
22068W        W37877   2.510  18.120  14.035 -0.1450  0.1989 -0.0898
22069W        W37878   4.962   7.423  11.959  0.0752 -0.0202 -0.0012
22070W        W37879  16.471   6.015   4.996  0.2511 -0.3550 -0.1518
22071W        W37880   0.229  15.575  12.835 -0.2153 -0.0769  0.2844
22072W        W37881   4.177   3.552   5.748 -0.3363  0.1349  0.0003
22073W        W37882   9.633  16.393  13.099  0.2041  0.0062  0.1685
22074W        W37883  17.202  10.984  14.956 -0.0356 -0.0331 -0.3347
22075W        W37884   6.873   3.328   2.322  0.2815 -0.0354  0.4950
22076W        W37885   1.704   2.674  11.799 -0.2085 -0.2624 -0.2037
22077W        W37886  12.309  14.026  10.442  0.0902 -0.1907 -0.1595
22078W        W37887   1.927  17.300  12.723  0.5168 -0.1255  0.2713
22079W        W37888  12.206   3.788   0.663 -0.0485 -0.0922  0.0103
22080W        W37889  10.085  13.992  11.552 -0.0206  0.2794  0.1166
22081W        W37890   5.371   5.645  11.665  0.0391  0.0568  0.0583
22082W        W37891   7.708   4.189  10.969 -0.0972  0.2345  0.1867
22083W        W37892  15.374   7.719   0.953  0.3263  0.1869 -0.0278
22084W        W37893  15.917  11.466   4.902 -0.1858 -0.3033  0.0446
22085W        W37894   6.996   7.781  12.080 -0.0716  0.0444 -0.0672
22086W        W37895   0.093   0.851  13.869  0.0390 -0.1181  0.0569
22087W        W37896  11.455  13.403   0.312  0.0045  0.0307 -0.1172
22088W        W37897   2.990   0.906  14.883 -0.5049  0.1729 -0.0415
22089W        W37898  16.764   3.151   1.989  0.0130 -0.0611 -0.1656
22090W        W37899   6.068  12.535  11.556 -0.2330 -0.1182  0.0837
22091W        W37900   9.642  10.767   4.559 -0.1311 -0.3075 -0.3269
22092W        W37901   6.178   3.622  14.861  0.0715  0.1625 -0.0087
22093W        W37902   0.190  17.275   3.842 -0.2453  0.2778 -0.1396
22094W        W37903   7.890  12.180   4.776 -0.2583 -0.0785  0.1673
22095W        W37904  15.317  16.225  13.220  0.1663 -0.2178 -0.1468
22096W        W37905  13.666  15.911  14.807 -0.1268 -0.1277  0.1191
22097W        W37906  16.034  16.454   3.050  0.1453  0.0772 -0.1296
22098W        W37907   8.877  14.615   2.830  0.0212  0.1125  0.1420
22099W        W37908  11.035  13.885   0.300  0.0321 -0.3765 -0.0200
22100W        W37909   8.318   7.771   2.061 -0.1404 -0.0357  0.0432
22101W        W37910  14.641  10.961   5.380  0.0689  0.1847 -0.1018
22102W        W37911   4.246  11.494   3.154 -0.1371  0.2119 -0.3636
22103W        W37912  16.096   3.754   4.682  0.1534  0.0392 -0.1707
22104W        W37913   8.169  12.981   5.595 -0.0404 -0.1161 -0.1374
22105W        W37914  16.263   6.300   2.766  0.0134 -0.1250  0.2315
22106W        W37915  16.147   2.316  13.946  0.0204  0.1461  0.1322
22107W        W37916   7.162   4.448   3.195 -0.3829  0.6410 -0.1528
22108W        W37917  17.136   7.432  13.908 -0.6357 -0.2010  0.1303
22109W        W37918  10.451   5.441   4.614  0.3822  0.0282 -0.2917
22110W        W37919   2.791  16.541   0.823  0.2873  0.0679 -0.3413
22111W        W37920   9.863   9.934   3.849 -0.1261 -0.1066 -0.0720
22112W        W37921   4.750  12.961  13.073 -0.3216 -0.2334 -0.1222
22113W        W37922   3.504   8.326   4.203  0.0448  0.1541 -0.4775
22114W        W37923   8.669   1.328  15.831  0.1319 -0.1348  0.4016
22115W        W37924   5.386   3.256   3.567 -0.0171 -0.0785  0.0858
22116W        W37925   3.022   7.020   0.472 -0.2354  0.2377  0.0030
22117W        W37926  13.332   3.699   6.121 -0.1937  0.4417 -0.0242
22118W        W37927   5.616   5.847  15.651  0.0678 -0.0755  0.0158
22119W        W37928  13.387   5.909  10.536 -0.0562  0.0795  0.0635
22120W        W37929  13.657  16.053  13.978 -0.2322 -0.4632 -0.2502
22121W        W37930   2.479   4.179   0.995 -0.0006 -0.0542 -0.0387
22122W        W37931  16.193  15.657  11.825  0.0929 -0.0615  0.0868
22123W        W37932   9.719  10.102  12.418  0.0871  0.0048 -0.2644
22124W        W37933   9.293   5.643  13.327  0.2829 -0.1092 -0.0077
22125W        W37934   8.317   2.284  13.778  0.0249  0.2566 -0.0391
22126W        W37935  10.184   6.231  12.498 -0.1915  0.1082  0.2819
22127W        W37936   1.883   8.161   3.291  0.3909  0.1894  0.2762
22128W        W37937   4.832   6.524   2.047  0.3857  0.1777  0.0513
22129W        W37938   6.348  10.882  13.054 -0.0939 -0.0336  0.1686
22130W        W37939  15.468   9.984   2.102  0.3500  0.0974 -0.1153
22131W        W37940   0.419  17.945   5.133 -0.2260  0.2181  0.0452
22132W        W37941   6.824  10.818  12.723  0.4400 -0.0541 -0.0831
22133W        W37942   9.579   9.713   1.956  0.2859 -0.1814 -0.0410
22134W        W37943   3.669   0.201   4.527 -0.2557 -0.2417  0.1444
22135W        W37944   7.505  15.288   2.444 -0.0634  0.2150  0.0774
22136W        W37945   6.406   7.954   2.347 -0.0991  0.1856 -0.0503
22137W        W37946   1.136   3.236   3.533  0.1050  0.0141  0.0351
22138W        W37947  17.235   1.476  15.399 -0.0835  0.2111 -0.1310
22139W        W37948  14.590  15.448  15.268 -0.2887  0.4077  0.1052
22140W        W37949   5.779   3.231   1.035 -0.5025 -0.1408  0.3771
22141W        W37950   4.856  12.890   1.865  0.0692 -0.0424  0.0808
22142W        W37951   6.720   5.975  11.082 -0.3873 -0.1396  0.1549
22143W        W37952   2.229  10.044  10.300  0.1076 -0.3010 -0.0055
22144W        W37953  10.057   5.140  14.458  0.1111  0.2848 -0.0270
22145W        W37954   3.059  16.800   4.740  0.1293  0.2946  0.2371
22146W        W37955  10.612  18.429  15.345  0.1464  0.0154  0.0637
22147W        W37956  12.243   4.906  15.690  0.4084  0.2377  0.1540
22148W        W37957  16.688   4.829   0.776  0.3566 -0.0712 -0.3692
22149W        W37958  13.555  14.024  13.031 -0.0389  0.0520  0.0397
22150W        W37959  15.323   9.509   2.795 -0.1020 -0.0012 -0.2908
22151W        W37960   3.927  16.935  11.105 -0.0833  0.4949 -0.2873
22152W        W37961   7.296   8.136  12.289  0.0967 -0.1066  0.0260
22153W        W37962   6.421  17.523   4.470 -0.3073  0.0235  0.1238
22154W        W37963   8.983   8.170   5.710 -0.1868 -0.1777 -0.1554
22155W        W37964  18.431   7.667   2.975 -0.1990  0.1470 -0.2186
22156W        W37965  17.425  15.113  13.731 -0.0101  0.5464 -0.0651
22157W        W37966   4.445   1.294   5.402  0.3213  0.5196  0.1332
22158W        W37967  10.809   6.117  15.732 -0.0972 -0.0463  0.1858
22159W        W37968   7.295   5.884  12.845  0.1533  0.0093  0.0524
22160W        W37969  17.727  14.630  11.593  0.1731  0.1846  0.0178
22161W        W37970   8.338   3.280   5.029 -0.0901 -0.5876  0.0797
22162W        W37971   4.149  11.571  10.683 -0.0993 -0.2133  0.0076
22163W        W37972  15.022   5.287  14.412 -0.1024  0.0319  0.3057
22164W        W37973  16.597   3.110  13.645  0.2349  0.1861  0.3120
22165W        W37974   7.658   8.354  11.306  0.0293  0.1114  0.0094
22166W        W37975   9.186   3.574  14.652  0.0942  0.0335  0.2081
22167W        W37976  13.862  14.405   2.292 -0.1015  0.1247 -0.1644
22168W        W37977   5.617   3.096   3.135  0.0071  0.2496 -0.0816
22169W        W37978   4.809  18.242  14.146 -0.1618  0.1285  0.2412
22170W        W37979   7.090   1.201   0.350 -0.0241 -0.1781 -0.4171
22171W        W37980  15.115   3.064   2.644 -0.0818 -0.1512 -0.0488
22172W        W37981  17.630  16.483  15.255 -0.0587  0.1629 -0.1853
22173W        W37982  16.004   0.247  11.516 -0.0091 -0.1842 -0.1900
22174W        W37983   9.014   6.568   1.808  0.2353 -0.1254  0.1800
22175W        W37984  13.429  15.354   3.036 -0.0833 -0.1359 -0.0109
22176W        W37985   5.804   0.874   0.093  0.0851 -0.0958  0.2365
22177W        W37986  10.847  16.143   3.950  0.2946  0.0526  0.0908
22178W        W37987  12.089  15.628  10.018 -0.1973 -0.0613  0.1868
22179W        W37988  10.726  10.460  15.039  0.0686 -0.1221 -0.0496
22180W        W37989   6.749  11.443  14.878 -0.2559 -0.1778 -0.0531
22181W        W37990   8.743   7.678   0.139  0.0444 -0.1471  0.1089
22182W        W37991   7.156  15.609   2.721 -0.1889  0.1765  0.2768
22183W        W37992  16.326  14.965  10.640  0.0844  0.0457  0.1182
22184W        W37993   7.745   5.974  14.846  0.1844  0.4320  0.0090
22185W        W37994   9.318  10.336  11.161 -0.0726  0.0677  0.3149
22186W        W37995  16.475  11.036  15.538  0.1035  0.0694  0.0964
22187W        W37996  16.171  15.878   1.887  0.0201 -0.0022  0.0814
22188W        W37997   2.352   9.036  13.620 -0.2614  0.2590  0.4774
22189W        W37998  12.931   2.578  10.282  0.0425  0.1028 -0.1729
22190W        W37999  13.477   2.717   4.039  0.2783  0.4165  0.0724
22191W        W38000   3.511   0.389  11.008  0.1857  0.2618  0.2754
22192W        W38001  17.025   4.606  15.223 -0.0206 -0.1417 -0.2107
22193W        W38002   0.740   9.504   3.072 -0.0923 -0.1414 -0.1731
22194W        W38003  10.454  16.357  11.651  0.1162 -0.2399 -0.2396
22195W        W38004  11.336   6.496   0.452  0.2758 -0.2429 -0.1804
22196W        W38005  13.707   1.586   4.212 -0.2187  0.2025 -0.1246
22197W        W38006   4.494   5.431  14.898 -0.1286 -0.1249  0.1568
22198W        W38007  15.051  15.786  15.149  0.1213  0.2530 -0.3320
22199W        W38008  17.462  12.173   3.834 -0.0740 -0.2193  0.1101
22200W        W38009  18.133   5.918  11.768 -0.0933  0.1754  0.1837
22201W        W38010  10.849   9.609   2.023 -0.0597 -0.1397 -0.0687
22202W        W38011   3.149  16.609  11.501  0.2399  0.0843 -0.0275
22203W        W38012  15.248   9.976  15.298  0.0591 -0.1132 -0.0889
22204W        W38013  18.166   5.245  13.220  0.0931 -0.2751  0.0057
22205W        W38014  13.272  17.725  13.830  0.1090 -0.1240 -0.0224
22206W        W38015   8.486   3.655   0.270  0.1037 -0.0926 -0.2195
22207W        W38016   8.418   6.114  15.442 -0.1143 -0.0582 -0.1346
22208W        W38017  17.990   9.388  11.594 -0.0364 -0.0190  0.1624
22209W        W38018  14.413  14.202   4.095 -0.1311 -0.3069 -0.0909
22210W        W38019  12.439   7.942  14.238 -0.0655 -0.2034 -0.2168
22211W        W38020   3.898  10.788  13.537  0.3699  0.1090  0.1449
22212W        W38021   6.484  11.831  11.364 -0.0713 -0.0696 -0.1466
22213W        W38022   4.622   6.988  11.816 -0.1365 -0.0996 -0.1251
22214W        W38023   9.363  11.193  11.523 -0.0961 -0.5056  0.1103
22215W        W38024   4.280  13.343  12.651 -0.0670 -0.1465  0.0908
22216W        W38025  17.399  12.878   0.027 -0.1244  0.1232 -0.3461
22217W        W38026   8.773   7.869  14.721 -0.2442  0.0710  0.0940
22218W        W38027  13.884   7.532  15.304  0.0089  0.0871  0.3991
22219W        W38028   1.363  16.409   5.469 -0.0722  0.4941  0.0557
22220W        W38029  12.024  16.919   3.714  0.2640 -0.0434  0.1784
22221W        W38030  11.182  17.843   0.529  0.2279 -0.3262 -0.1252
22222W        W38031   5.165  14.875   1.428 -0.2411  0.2641 -0.3724
22223W        W38032  17.047  12.939  12.500  0.1238  0.0802 -0.0839
22224W        W38033   3.817  10.021  11.917  0.0245  0.0225 -0.0356
22225W        W38034   4.915  11.294   2.500  0.2609  0.0224  0.4004
22226W        W38035  10.775  14.103   1.539 -0.0444 -0.0041  0.1051
22227W        W38036   6.830   3.295  12.254  0.1583  0.2944  0.1276
22228W        W38037   2.811  14.096   3.661 -0.0251 -0.0283 -0.0039
22229W        W38038   5.024   1.404   0.425 -0.1576  0.1329 -0.1340
22230W        W38039  16.191   1.241  13.074  0.0155  0.0075 -0.2427
22231W        W38040   0.418   8.103  15.257  0.1732 -0.1698 -0.1217
22232W        W38041  16.354   2.181  15.594 -0.1421  0.0989 -0.3983
22233W        W38042  10.024  10.931   5.004 -0.0195 -0.2624 -0.0321
22234W        W38043   3.504   1.236  15.308 -0.0604  0.0439 -0.2682
22235W        W38044  10.071  12.936  13.809  0.0864 -0.3656  0.0092
22236W        W38045   0.084  10.788   4.600  0.1553  0.0427  0.0609
22237W        W38046   8.672   4.668   1.146  0.0661 -0.0467  0.0943
22238W        W38047   3.952  14.812   4.832 -0.1419 -0.0417 -0.1122
22239W        W38048   9.470   5.805  15.725 -0.3577  0.0585  0.3211
22240W        W38049  13.951  17.539  12.008  0.0734 -0.1678  0.0546
22241W        W38050   4.791  13.468  11.841  0.3687  0.1983  0.5432
22242W        W38051  16.739   0.873  13.718  0.1761  0.0736 -0.0256
22243W        W38052  10.554   4.829   2.919 -0.1318 -0.0670  0.1505
22244W        W38053   0.958  12.503  14.713  0.1832 -0.2252 -0.2288
22245W        W38054  18.402  18.206   5.318  0.3829  0.2244  0.1322
22246W        W38055  17.241   4.459  13.243  0.4301  0.1320  0.0790
22247W        W38056  10.020   1.017  14.755  0.0379  0.0113  0.1879
22248W        W38057  10.521   4.450  14.985 -0.3755 -0.0501  0.1766
22249W        W38058   1.737  16.536  10.897 -0.0612  0.0618 -0.1760
22250W        W38059   2.173  10.161   2.423 -0.0354 -0.1167 -0.1557
22251W        W38060  12.096  11.640   5.234 -0.1036  0.0699  0.0283
22252W        W38061  12.781   5.123  13.011  0.0370  0.4141  0.0303
22253W        W38062  15.797  15.485   3.241  0.2117  0.0168  0.1429
22254W        W38063   0.550  10.692   6.234 -0.1278 -0.2398  0.0500
22255W        W38064  13.880   1.835  12.530 -0.1021  0.0106 -0.1013
22256W        W38065   5.006   5.424  11.163 -0.2402  0.2624  0.1795
22257W        W38066  11.582  18.224  12.081  0.1324  0.0844  0.2231
22258W        W38067  12.979   6.008   5.780  0.0144 -0.5326 -0.0638
22259W        W38068   9.194   8.772   4.616  0.0016 -0.0019  0.2095
22260W        W38069  13.513   8.079   4.116  0.1237 -0.1944 -0.1757
22261W        W38070   2.230  15.720  14.760 -0.0544  0.0276  0.2399
22262W        W38071  18.326   5.665  14.706  0.2777 -0.0314  0.4050
22263W        W38072   8.200  14.079  10.438  0.1112  0.1170 -0.0664
22264W        W38073  11.500  11.956   4.673  0.0315  0.3496  0.1246
22265W        W38074   5.805   6.629  13.534 -0.0819  0.1266 -0.3422
22266W        W38075  14.162  15.959  14.787  0.2398  0.0444 -0.0497
22267W        W38076   1.487  17.627  11.819 -0.0511  0.1316  0.0366
22268W        W38077   4.728  14.673  14.786 -0.2005 -0.0521  0.2396
22269W        W38078   6.340   3.984  14.527 -0.1569 -0.1867  0.1556
22270W        W38079   7.738   0.371   3.564  0.0036  0.2414  0.0913
22271W        W38080   7.786   8.285   0.528  0.2244 -0.0626 -0.3010
22272W        W38081  14.081  15.642  11.832  0.2189 -0.1605 -0.0765
22273W        W38082  12.252   6.929  15.580  0.2425  0.0426 -0.2205
22274W        W38083   7.985  16.322  11.815  0.0835 -0.0793 -0.0622
22275W        W38084   0.260  10.488  14.079  0.0306  0.0077  0.3613
22276W        W38085   7.197  10.179  15.375 -0.2303 -0.0428  0.1281
22277W        W38086   9.985  17.898  14.528  0.1540 -0.0007 -0.1417
22278W        W38087   7.957   7.224   4.471 -0.1510  0.3038 -0.3351
22279W        W38088   2.323   8.319   4.970 -0.1737 -0.0616  0.2467
22280W        W38089   9.041  11.561  10.922  0.0055 -0.0942  0.3526
22281W        W38090   3.977   9.061   4.383 -0.0605 -0.1499 -0.0257
22282W        W38091  12.971  14.053  15.753  0.0274  0.1091 -0.1834
22283W        W38092  11.963   4.937   2.315 -0.2951 -0.2045  0.2256
22284W        W38093   1.072  12.565   2.951 -0.1189  0.3354  0.0251
22285W        W38094   5.420  17.185  12.475 -0.1460  0.0068  0.0820
22286W        W38095   2.275  16.522  13.051 -0.2156  0.2774  0.2277
22287W        W38096   6.131   0.935   3.808 -0.2265  0.1350  0.2288
22288W        W38097   7.354   1.507  10.935  0.1824  0.3187  0.0546
22289W        W38098   1.584   3.607   5.368  0.0098  0.1354 -0.2946
22290W        W38099  11.635   5.320  10.714 -0.1798 -0.1427  0.0773
22291W        W38100  11.671   9.399   4.835  0.0037  0.2526  0.1225
22292W        W38101   9.774   3.072  14.410 -0.0369 -0.0334 -0.2814
22293W        W38102   4.911  17.922  13.650  0.1543 -0.0885 -0.0576
22294W        W38103  11.943   0.881  10.315 -0.0175  0.3917 -0.0367
22295W        W38104  13.145   1.492  11.285 -0.0733  0.1945 -0.2021
22296W        W38105   1.939   4.490   2.913  0.0033  0.2664 -0.0718
22297W        W38106  17.411  12.451   4.301 -0.3450 -0.0017 -0.3256
22298W        W38107  18.303   0.882   0.363  0.1008 -0.0745  0.1673
22299W        W38108  11.440   8.460   4.554 -0.2234 -0.3063 -0.1093
22300W        W38109   5.734  10.318   0.756  0.0964  0.0924  0.0239
22301W        W38110   7.600   4.125  12.985  0.1692 -0.0355 -0.1467
22302W        W38111  17.184  12.235  14.803  0.5362 -0.3010 -0.1748
22303W        W38112   6.898   7.336  12.756  0.0926  0.1961  0.2721
22304W        W38113   1.682   9.940   2.846 -0.0775  0.0784  0.1654
22305W        W38114   3.892   0.725  13.509 -0.0046  0.0372  0.0542
22306W        W38115   6.579  10.771  11.145 -0.0399 -0.0296 -0.4799
22307W        W38116   0.073  13.327  13.605  0.0176 -0.0465 -0.0263
22308W        W38117  11.711   1.985   0.377  0.0051  0.0700 -0.1441
22309W        W38118  12.340  12.617  13.484 -0.0495 -0.3258 -0.1050
22310W        W38119   0.856   9.002   4.039  0.0340 -0.0645  0.1088
22311W        W38120  14.102   2.967  11.724  0.2725 -0.2333 -0.0409
22312W        W38121   5.709  17.720  14.856  0.2834  0.3068  0.2289
22313W        W38122  16.595   5.486   1.868 -0.0981  0.0738  0.3702
22314W        W38123  16.992  10.574   4.681 -0.0698  0.1008  0.1466
22315W        W38124   0.688   8.371   4.462 -0.2175  0.1111  0.0898
22316W        W38125   1.084  17.169   3.370 -0.0493 -0.1173  0.3615
22317W        W38126  14.147   6.927  11.532 -0.1485 -0.1957  0.1061
22318W        W38127  12.399   3.854  15.678  0.0124  0.2289 -0.2007
22319W        W38128   3.670  13.364   0.945  0.2933  0.2206 -0.1214
22320W        W38129  17.572   0.011  12.588  0.1383  0.2158  0.3427
22321W        W38130  14.252   0.510  10.946 -0.0661 -0.2292  0.1519
22322W        W38131   7.071  11.810  13.316 -0.0293 -0.2475 -0.2284
22323W        W38132  14.045  13.085   4.279 -0.2462 -0.1488 -0.3229
22324W        W38133   2.992   3.266   0.130  0.0355  0.2835  0.0635
22325W        W38134   2.445  14.936  13.510  0.3066  0.0816 -0.3540
22326W        W38135  14.955   5.458  13.938  0.1249  0.1498 -0.2294
22327W        W38136   0.341   1.854  10.259  0.3369  0.1830 -0.1869
22328W        W38137  11.218   5.441  11.807 -0.0215 -0.1243 -0.0806
22329W        W38138   5.281   9.581  13.125 -0.2130 -0.1733 -0.1349
22330W        W38139  14.599  17.530   4.770  0.2140 -0.0896  0.0025
22331W        W38140  10.374  12.307  14.654 -0.2869 -0.1894 -0.0052
22332W        W38141   7.997   8.857   2.974 -0.2079 -0.2301 -0.0068
22333W        W38142   2.381  17.797  14.450  0.0979 -0.2534  0.0772
22334W        W38143   7.870  16.425   5.934 -0.2150  0.0131 -0.0758
22335W        W38144   5.655  12.300  14.672  0.2937  0.0339 -0.0920
22336W        W38145   9.659  13.709   2.121  0.1036 -0.1135  0.2089
22337W        W38146   8.903   3.223   4.780  0.1328  0.2046 -0.1200
22338W        W38147   5.436   1.692   2.833 -0.3070  0.0424  0.0725
22339W        W38148  10.590  17.155   2.473 -0.1522 -0.1567  0.0492
22340W        W38149   9.952  12.141   0.619  0.1089  0.0462 -0.1223
22341W        W38150  13.802  11.062   2.641  0.1487  0.1208  0.2524
22342W        W38151   2.140  14.534   1.056 -0.0460  0.0487  0.3523
22343W        W38152   9.827  11.901  12.353 -0.2273  0.1501 -0.0812
22344W        W38153   4.831   4.595  14.879  0.1905 -0.1643  0.1716
22345W        W38154  14.572   3.191  11.720 -0.3270 -0.0225  0.0504
22346W        W38155   5.491   4.251  13.283 -0.0782  0.1616  0.1327
22347W        W38156   9.565   6.503   4.093 -0.0263  0.3180  0.2881
22348W        W38157  18.077   8.859   1.963  0.3176  0.0692  0.2249
22349W        W38158  15.056  12.411   3.110 -0.2034 -0.1869 -0.0899
22350W        W38159  16.486  16.731  14.237 -0.1124 -0.0647  0.0550
22351W        W38160  10.825   6.313   4.785  0.3786 -0.2637 -0.0878
22352W        W38161  17.933   3.037  11.416  0.1829  0.0132 -0.2339
22353W        W38162   3.581  17.115  13.537 -0.3006 -0.1711 -0.0935
22354W        W38163   9.399  14.851   0.531  0.0988 -0.1037 -0.1446
22355W        W38164   1.039  12.297  12.879 -0.2142  0.1582  0.2094
22356W        W38165   7.095   2.526  11.212 -0.1031  0.0647  0.1235
22357W        W38166  11.443  15.330  12.880 -0.0217 -0.1031 -0.0778
22358W        W38167  18.463  10.550  14.930 -0.0480  0.0576  0.1719
22359W        W38168  15.554  14.762  11.811 -0.2457  0.0307  0.0728
22360W        W38169   4.339   6.757  13.576  0.1171 -0.1580 -0.2416
22361W        W38170   7.860   8.627   1.670 -0.1367 -0.0972  0.2724
22362W        W38171  13.272  15.376   2.107  0.0134  0.0854  0.3333
22363W        W38172   0.739  13.212   1.074 -0.2644 -0.2484  0.0272
22364W        W38173   2.123   0.894   2.305  0.0047  0.3380  0.0353
22365W        W38174   7.310  17.478  13.435 -0.1098  0.1695 -0.0178
22366W        W38175  14.385   2.115   5.661 -0.1778  0.1735  0.2029
22367W        W38176  11.054   1.218   1.707 -0.1812  0.3155  0.0567
22368W        W38177  10.060  17.877   2.098 -0.1338 -0.1336  0.0069
22369W        W38178  12.093  10.020   5.695  0.4528 -0.1229  0.1126
22370W        W38179   3.213   5.600  14.796  0.2541 -0.1411 -0.1846
22371W        W38180  16.250   8.849  14.359  0.0603  0.0889  0.1138
22372W        W38181   6.962   6.820  13.403 -0.0270 -0.1514  0.2353
22373W        W38182   3.900   2.315   4.424 -0.0356 -0.1500 -0.2447
22374W        W38183  11.442   2.705   2.546 -0.0079 -0.0657 -0.0363
22375W        W38184   2.094  12.045  15.315  0.0166 -0.0303  0.0139
22376W        W38185  12.476   3.759  10.821  0.0279  0.1528 -0.3363
22377W        W38186  14.056  15.087   3.582  0.1368 -0.0274  0.0563
22378W        W38187   2.634  10.892  11.297  0.0138  0.1759  0.3602
22379W        W38188  12.188  12.462  12.976 -0.0158  0.1059 -0.2313
22380W        W38189   8.500   0.776  10.187  0.0119  0.3875  0.1514
22381W        W38190  11.108  16.902  12.149  0.0586  0.0287  0.2163
22382W        W38191  13.289  13.688   0.195 -0.0776 -0.2205  0.2700
22383W        W38192   0.577  12.280  14.484  0.1894  0.1602  0.0382
22384W        W38193   4.152   4.436  11.885  0.1597 -0.0362 -0.1382
22385W        W38194   3.069   4.747  13.838  0.2338  0.2587 -0.0545
22386W        W38195   7.276  11.649   0.854  0.0386  0.0445 -0.0927
22387W        W38196   5.240  15.070   5.196  0.1806  0.0985 -0.0663
22388W        W38197  17.707  13.953   2.024 -0.1161  0.1970 -0.1565
22389W        W38198  11.609   6.001  11.047  0.0670 -0.0156  0.2925
22390W        W38199   0.722  18.026  11.481 -0.0228 -0.1539 -0.1178
22391W        W38200   9.256   0.686  11.117  0.1081 -0.1731 -0.2099
22392W        W38201   6.346  14.265   3.760 -0.1469  0.0479  0.3031
22393W        W38202  12.031   8.047   3.958  0.3338  0.1604 -0.2534
22394W        W38203   4.722  17.402  12.489 -0.2246 -0.1754 -0.0551
22395W        W38204   0.397  18.163   3.506  0.1405 -0.1277 -0.1840
22396W        W38205   8.389  11.653   3.991  0.1160  0.3054  0.2367
22397W        W38206  16.755  17.902   3.553  0.0173  0.3024 -0.1047
22398W        W38207   6.553   6.908  10.896 -0.0758  0.1780 -0.0069
22399W        W38208   0.486   7.043   4.811 -0.0682  0.0702  0.1872
22400W        W38209   0.255   3.798  12.222 -0.3993  0.3877  0.1462
22401W        W38210   9.792   8.591  15.719 -0.3187 -0.2519 -0.0445
22402W        W38211   8.188  10.148   5.091  0.1008 -0.0371  0.1158
22403W        W38212  11.953  13.858  10.900 -0.0888  0.0823  0.0827
22404W        W38213   5.468   8.469  10.153  0.0596  0.1412 -0.1275
22405W        W38214  12.147   0.916  13.245 -0.0392  0.3598  0.0717
22406W        W38215   5.621   3.454  12.769  0.0729 -0.0441 -0.1877
22407W        W38216  16.316   8.690   4.626 -0.1684 -0.0296  0.0139
22408W        W38217   8.637   1.885   4.310 -0.0752  0.0275  0.1620
22409W        W38218  18.459  14.439   1.820  0.1398 -0.2538  0.0538
22410W        W38219   7.514  11.234  11.586 -0.2223 -0.2510  0.2526
22411W        W38220   6.625   8.379  14.738  0.0456  0.1398  0.0252
22412W        W38221  16.491   0.403  13.853  0.0950  0.1862  0.1416
22413W        W38222  15.780   4.076  15.430  0.0248  0.1456  0.1043
22414W        W38223  15.540  12.442  15.794  0.0799  0.1654 -0.1691
22415W        W38224   5.319   0.768   4.373  0.3020 -0.1712  0.3195
22416W        W38225   0.453  12.631  12.450  0.2361 -0.0041 -0.1294
22417W        W38226  17.474   7.513   3.161 -0.1077 -0.2291  0.3761
22418W        W38227  15.969   0.269   4.273 -0.0286  0.0638 -0.0356
22419W        W38228   9.558  17.606  15.651  0.0345 -0.1473 -0.1247
22420W        W38229  15.007  10.884   4.875 -0.0596  0.0402 -0.1729
22421W        W38230   7.434   1.663  11.862 -0.0134 -0.2631 -0.0074
22422W        W38231   4.301   0.685   2.983 -0.1864 -0.0634 -0.0110
22423W        W38232   3.516   5.629   3.188 -0.3306  0.3437 -0.1092
22424W        W38233   9.168   4.504   3.234 -0.1508  0.1446  0.2243
22425W        W38234   1.801   6.639  13.733 -0.1540 -0.1428  0.0603
22426W        W38235  10.221  13.930  15.623  0.0770 -0.0922  0.1066
22427W        W38236   2.745   1.509   0.066 -0.0656  0.1488  0.0812
22428W        W38237   5.874   8.666  12.737 -0.1054  0.2359  0.0761
22429W        W38238   2.935   8.701   1.773 -0.3225 -0.0070  0.0325
22430W        W38239  14.713   0.486   3.636 -0.0505  0.1480 -0.0373
22431W        W38240   5.379  13.550   3.585 -0.0051  0.3515 -0.3311
22432W        W38241   1.307   7.419   0.607 -0.1622 -0.3758 -0.0791
22433W        W38242   2.513   9.844   1.077 -0.1579  0.0814  0.2626
22434W        W38243   8.541   8.112   5.451  0.2384 -0.3352 -0.1073
22435W        W38244   8.593  12.030   1.541 -0.2369 -0.2309  0.3192
22436W        W38245   9.302  11.235  15.014  0.3328  0.1439  0.1093
22437W        W38246   8.834  16.065  11.944 -0.2438 -0.0608 -0.0491
22438W        W38247   2.985   1.881  10.771 -0.0558 -0.1313  0.1415
22439W        W38248   4.895  15.030   0.534 -0.1673  0.0483  0.0682
22440W        W38249   9.398   1.849   4.932  0.1262 -0.0905  0.1410
22441W        W38250  16.323   9.946   1.020  0.4084  0.1108 -0.0593
22442W        W38251   6.271   7.958   1.262 -0.3446  0.0462  0.2986
22443W        W38252  17.803  11.769   3.725  0.1491 -0.1116  0.4080
22444W        W38253   3.665  15.811  13.648  0.2685  0.2210  0.2786
22445W        W38254   3.132   2.172  15.208  0.3194 -0.2099 -0.1747
22446W        W38255  11.793  11.703  10.400 -0.3285  0.0658 -0.0483
22447W        W38256  15.906   9.324  14.640  0.3257  0.1499  0.1936
22448W        W38257   6.999   3.560  15.558 -0.0854 -0.0109 -0.1968
22449W        W38258  15.780  17.045  11.302  0.0201 -0.1188 -0.0908
22450W        W38259   2.923   2.619  10.564 -0.0776  0.0355  0.0759
22451W        W38260   3.583  16.768  12.617  0.1785  0.0155  0.2978
22452W        W38261  16.707   3.720   4.708 -0.0873  0.0116 -0.2335
22453W        W38262   3.060   5.178  14.393 -0.1134 -0.4595  0.1430
22454W        W38263   5.374   8.073  15.789 -0.1474 -0.1432  0.0861
22455W        W38264   4.618   7.662  13.634  0.2696 -0.1509 -0.2407
22456W        W38265  12.333  16.767   5.013  0.3711  0.1848 -0.0396
22457W        W38266   8.698  11.847  14.437  0.0483  0.0016 -0.2212
22458W        W38267  10.649  10.017   3.276 -0.1761  0.0731  0.1702
22459W        W38268   5.605  11.434  13.481 -0.1155 -0.0793 -0.2462
22460W        W38269  12.558   6.606   2.832 -0.0634  0.0167 -0.2451
22461W        W38270   6.564   9.812   1.201  0.1897 -0.1563 -0.0296
22462W        W38271   7.232  14.679  11.298  0.1014 -0.4552  0.1961
22463W        W38272  10.072   0.466   4.129 -0.0260  0.1528  0.2634
22464W        W38273   6.024   7.971  14.163  0.0036 -0.0062  0.0840
22465W        W38274  15.948   9.056   3.442 -0.0065 -0.1195  0.0063
22466W        W38275   7.487   9.202   3.816  0.4403 -0.1411  0.0632
22467W        W38276   1.682  14.788   1.103  0.0830  0.0446  0.2079
22468W        W38277  12.735   7.180  12.402  0.2007  0.1805  0.0942
22469W        W38278  14.572   4.848  14.895 -0.2090 -0.0011 -0.0457
22470W        W38279   3.926  10.918   1.287 -0.1107  0.0467  0.2196
22471W        W38280   8.161   6.041   2.474 -0.0189  0.1486  0.0183
22472W        W38281   1.362  16.652   4.399 -0.0615 -0.0491 -0.2224
22473W        W38282  10.036  15.653   2.906  0.0326 -0.1413 -0.0857
22474W        W38283  15.853  15.407   1.706 -0.3236  0.0068  0.0477
22475W        W38284   3.746  13.298  12.378  0.0001  0.1549 -0.0588
22476W        W38285  10.814   4.086  14.704  0.1211  0.4044  0.2840
22477W        W38286   7.333   9.964  12.131 -0.0014  0.0139 -0.3036
22478W        W38287  16.470  11.711  12.216 -0.2008 -0.1373  0.1044
22479W        W38288   4.758   4.045  13.990 -0.0304 -0.0377 -0.0836
22480W        W38289   4.692  10.455  13.822 -0.2281 -0.0579 -0.3243
22481W        W38290  12.559   5.894   0.078 -0.1880  0.2992 -0.1515
22482W        W38291  12.176   2.818  14.084  0.2132  0.1278  0.0322
22483W        W38292  13.456   1.649  12.703  0.2082 -0.0469 -0.1637
22484W        W38293   5.452   4.573   2.924  0.1537  0.0314  0.1482
22485W        W38294  10.460   7.406  10.334 -0.1534 -0.3921  0.1039
22486W        W38295  11.147  10.549   2.119  0.0224  0.2832  0.4269
22487W        W38296  13.328   8.600   1.286  0.2228  0.0112 -0.0748
22488W        W38297   0.780   0.209   0.266 -0.0460  0.0903 -0.0003
22489W        W38298  17.383   7.093   3.391  0.0846 -0.0650 -0.0686
22490W        W38299   4.559   7.259  12.254 -0.1435  0.1246 -0.0237
22491W        W38300   6.502   6.155   3.889  0.0021  0.1775  0.0041
22492W        W38301  18.030   0.069  14.370  0.4651 -0.0981 -0.0911
22493W        W38302  14.210  13.547  10.733 -0.1099 -0.0729 -0.1770
22494W        W38303   6.112  13.728   0.799  0.2731  0.2617  0.3634
22495W        W38304   5.014  17.999  14.515  0.0117  0.0737  0.3033
22496W        W38305   6.028   1.602   3.789  0.0430 -0.1085 -0.1015
22497W        W38306  11.822   2.064   5.198  0.0182  0.1246  0.2434
22498W        W38307  13.087  12.333  14.783 -0.0704 -0.2475  0.3748
22499W        W38308   5.412   8.546   1.468 -0.1311  0.0234 -0.2652
22500W        W38309   5.495   5.741  12.766 -0.3036  0.0768  0.2224
22501W        W38310  10.879  13.218   5.096 -0.1685  0.3075 -0.1286
22502W        W38311   9.890   3.508   3.364  0.0275  0.1506  0.0086
22503W        W38312  15.753  16.981  13.147 -0.0336  0.2417  0.1831
22504W        W38313  12.462  12.982  14.401 -0.0316 -0.0508  0.1241
22505W        W38314   5.524  10.148  14.747 -0.1025  0.1573 -0.2095
22506W        W38315   5.842  12.021  10.797 -0.1081 -0.2515  0.1094
22507W        W38316   4.817  17.682   3.580  0.0347  0.0890  0.0316
22508W        W38317  15.453   2.511  12.504  0.0198 -0.0865  0.2230
22509W        W38318  12.016  14.348  11.164 -0.1697 -0.0624 -0.0658
22510W        W38319  16.788   9.820   4.198  0.0130 -0.1016 -0.2954
22511W        W38320  14.083   1.908  10.944  0.2496  0.0753  0.2674
22512W        W38321  10.629   2.856   3.778 -0.1618  0.1848  0.3537
22513W        W38322   6.204   8.948  14.778  0.0169 -0.1735 -0.5032
22514W        W38323  16.161  14.349  12.131  0.0302 -0.0487  0.0129
22515W        W38324   5.304   4.502  12.783  0.0056  0.2543  0.1332
22516W        W38325  13.929   5.359  12.051  0.1565 -0.2672 -0.1389
22517W        W38326   7.062   7.015  12.373 -0.0171 -0.2150 -0.0002
22518W        W38327   6.617   2.384  11.489  0.1065 -0.1034 -0.0342
22519W        W38328  10.801  11.256   4.963 -0.0226  0.2120 -0.2353
22520W        W38329   9.102  17.664   3.883 -0.1388  0.0976  0.1840
22521W        W38330  14.425  10.903  13.746  0.2206 -0.3808  0.2364
22522W        W38331   1.219   9.969  15.110  0.0470  0.1438 -0.0497
22523W        W38332  15.816  12.744  14.867 -0.2775 -0.0805 -0.0502
22524W        W38333   4.909  17.370  15.454 -0.0795  0.0234  0.0143
22525W        W38334  10.165   9.644  13.344 -0.0818  0.1067 -0.1994
22526W        W38335  17.175  11.024   1.827  0.0255  0.0313 -0.3517
22527W        W38336  12.447  11.126   5.290  0.1093  0.1766  0.0389
22528W        W38337   2.382   3.094  15.326  0.1568 -0.0661  0.0469
22529W        W38338   7.480   8.998   5.543 -0.2032 -0.2473 -0.0413
22530W        W38339   4.721   2.373  13.144  0.0848  0.0112  0.2513
22531W        W38340   0.938   0.672  12.765  0.2731 -0.2719 -0.0414
22532W        W38341  11.890   8.062   3.017 -0.0259 -0.1074 -0.1518
22533W        W38342   9.932  13.005  13.245  0.4052 -0.3400 -0.0231
22534W        W38343  14.649  10.428  12.868 -0.2893 -0.0202  0.2231
22535W        W38344   5.115  17.621  11.118  0.3190 -0.0084 -0.0239
22536W        W38345  16.256   9.292   4.491 -0.1630  0.0355  0.1259
22537W        W38346  12.721  15.655   4.498 -0.0223  0.1824  0.1388
22538W        W38347   7.234  12.402   6.093 -0.0929 -0.2117  0.1018
22539W        W38348  13.596  17.658   4.643  0.0512 -0.0121 -0.1190
22540W        W38349   1.959   3.223   0.985  0.1878 -0.1733 -0.2012
22541W        W38350  11.575  13.782   1.260  0.0329 -0.4659  0.2670
22542W        W38351  17.059   4.539  12.048 -0.0509  0.1774  0.3019
22543W        W38352  17.655  10.424   4.906  0.0276  0.0853 -0.0492
22544W        W38353   6.555   2.766  10.950 -0.0436 -0.5342  0.3267
22545W        W38354  12.067   7.600   3.258 -0.0164  0.1692 -0.0450
22546W        W38355   7.944   5.034   4.161 -0.1897 -0.3476 -0.2965
22547W        W38356  15.971  17.203   4.677  0.2539 -0.1456 -0.0794
22548W        W38357   7.677   3.981   1.557  0.2087  0.1325 -0.0598
22549W        W38358   9.215   1.442  14.268  0.3851 -0.1545  0.0646
22550W        W38359   5.342  11.585  12.429  0.2363  0.3061 -0.0806
22551W        W38360  16.770   6.429   4.250  0.0874 -0.1368  0.4389
22552W        W38361   0.683   3.625   0.757 -0.3608 -0.0956 -0.2232
22553W        W38362   7.087   8.564   1.090  0.1268 -0.0548  0.1548
22554W        W38363  16.173  12.247   5.192  0.2247  0.0247 -0.1694
22555W        W38364   1.194  14.016   2.867 -0.5308  0.1498 -0.4604
22556W        W38365  17.394   1.633   0.048 -0.0697 -0.0287  0.1353
22557W        W38366  11.498   6.413  11.350 -0.1427  0.2012 -0.1946
22558W        W38367   4.306  14.906   0.434  0.1866  0.0478  0.0188
22559W        W38368  11.131   8.443  11.643 -0.1962  0.0551 -0.0432
22560W        W38369   7.052   9.703  10.080  0.0165  0.1475  0.0280
22561W        W38370  16.643  10.972  14.995  0.1942  0.0886 -0.3465
22562W        W38371  16.454  17.434   1.153  0.2740  0.2060 -0.2605
22563W        W38372  14.888   7.641   0.270  0.2274  0.4283  0.2074
22564W        W38373   5.226  11.616  14.308 -0.0723  0.0605  0.1079
22565W        W38374  15.236  15.317  13.424  0.1579 -0.2083 -0.4813
22566W        W38375   7.658   5.468   3.137 -0.1044  0.0880 -0.0808
22567W        W38376   5.428   6.459  14.796  0.0896 -0.0944  0.0160
22568W        W38377   9.720   0.656  11.259 -0.0238 -0.1351  0.2707
22569W        W38378   0.552   8.965  14.024  0.2099  0.4833 -0.2960
22570W        W38379   3.996   2.964  13.818 -0.0533 -0.2708  0.2272
22571W        W38380  14.605   2.207  15.630  0.1138 -0.1553  0.1006
22572W        W38381   8.747   4.300   0.829  0.0213  0.2713 -0.0926
22573W        W38382  12.019  14.547   3.031 -0.0709  0.0195 -0.1745
22574W        W38383  11.047   4.731  11.711  0.1333 -0.0265  0.2453
22575W        W38384  10.736  17.007   4.363  0.2267  0.1287  0.0296
22576W        W38385  16.157  15.243  13.633  0.2227  0.2110 -0.1105
22577W        W38386  13.396   6.998   4.748 -0.0619 -0.1724  0.0028
22578W        W38387   7.879  18.177   4.977 -0.0703  0.1868  0.0423
22579W        W38388   0.609   1.507  13.811  0.2201  0.0625 -0.0187
22580W        W38389  16.236  10.781   0.376 -0.2424 -0.1184 -0.2491
22581W        W38390  11.840   6.954  14.651  0.0512  0.0191  0.3526
22582W        W38391  11.051  16.051   5.278  0.2751 -0.0867 -0.2717
22583W        W38392   0.962   4.455   0.607  0.1196 -0.1886 -0.2060
22584W        W38393   5.406   9.942   1.636  0.0338 -0.0788  0.0015
22585W        W38394   7.338   0.289  13.402  0.1439 -0.0192 -0.0876
22586W        W38395  12.934  15.948  11.842 -0.2031  0.2400 -0.2030
22587W        W38396  17.323  15.152  14.303 -0.2152  0.2521 -0.1524
22588W        W38397  14.114  14.554  12.310 -0.1239 -0.0408 -0.0684
22589W        W38398   8.102   0.131   4.496  0.1634 -0.1163  0.1402
22590W        W38399  16.563   3.987   2.449  0.0484  0.0059  0.1847
22591W        W38400  10.820  16.477  11.941  0.2949  0.0298  0.1115
22592W        W38401  17.590  14.839   9.627  0.0201 -0.1838 -0.4925
22593W        W38402   7.922   1.108  15.293  0.1184  0.0691  0.1729
22594W        W38403  12.674   4.506   0.549  0.0982  0.2003 -0.0478
22595W        W38404   2.411   9.439  15.045  0.0578 -0.0366  0.0138
22596W        W38405   6.831  14.389  11.435 -0.0373 -0.0285 -0.0065
22597W        W38406   1.507  13.245  15.707  0.2170 -0.0762 -0.0529
22598W        W38407   1.125   7.288  12.584  0.1458 -0.3445 -0.0789
22599W        W38408   1.703   0.601  11.885  0.2220  0.0768 -0.1170
22600W        W38409   9.897   5.882  11.378 -0.2404  0.2584 -0.0995
22601W        W38410   1.371   7.797  10.689  0.0309 -0.0019 -0.3104
22602W        W38411   3.254   3.653  14.970  0.0905  0.0827 -0.0344
22603W        W38412   3.232   3.270   1.277 -0.2128  0.1608  0.1095
22604W        W38413  17.993  10.089  11.421 -0.2027  0.2447  0.1582
22605W        W38414  15.288   5.680   1.294  0.1888  0.1141 -0.2034
22606W        W38415   5.610  14.957  12.600 -0.0171 -0.1221 -0.0960
22607W        W38416  16.419  12.858  14.318  0.0735 -0.1181  0.0546
22608W        W38417   9.180   0.301  10.671  0.2851 -0.3287 -0.1766
22609W        W38418   9.704  18.192  15.455 -0.1258 -0.2376 -0.0290
22610W        W38419  12.733  13.199   5.125 -0.0334 -0.0547  0.1583
22611W        W38420  16.661   0.852   2.397  0.0547  0.1928  0.0707
22612W        W38421   2.264  13.574  12.882  0.0349  0.3759  0.2429
22613W        W38422   7.481   5.213  10.157  0.0638  0.1106 -0.2679
22614W        W38423   0.524  14.996   3.951  0.3278 -0.0351  0.0010
22615W        W38424  11.645   7.813  15.015  0.0036  0.0351 -0.0706
22616W        W38425  11.058   8.035   2.651 -0.0261  0.4543  0.1401
22617W        W38426   5.331   2.720  13.656 -0.1565 -0.1105  0.3677
22618W        W38427  16.601   0.255   3.600  0.1044  0.1176  0.0140
22619W        W38428  12.262  10.591  12.357 -0.2079 -0.1468 -0.0417
22620W        W38429   4.656   1.072  10.820 -0.3494  0.2154  0.0697
22621W        W38430   5.266   4.940   3.175 -0.0793  0.0300 -0.1888
22622W        W38431  14.295  13.772  14.473 -0.0930  0.1006 -0.0896
22623W        W38432  13.163   0.464   3.435  0.0663  0.1261 -0.0791
22624W        W38433  12.810   4.986  14.969  0.2682  0.1262  0.0229
22625W        W38434   3.268  16.421   1.064 -0.1666 -0.0218  0.4206
22626W        W38435   8.797  11.488  12.788 -0.3251 -0.0130 -0.0231
22627W        W38436  13.234   5.949   0.434 -0.0128  0.1378 -0.0361
22628W        W38437   4.730   9.532   4.723  0.0206 -0.0317 -0.0144
22629W        W38438  14.115  18.338  13.725 -0.0523 -0.0792  0.0707
22630W        W38439   2.438  12.761   2.788  0.2850  0.0143 -0.1345
22631W        W38440  13.487   4.625   2.334  0.0068 -0.2626 -0.0120
22632W        W38441   7.444  11.011   5.054  0.1320  0.0498  0.1277
22633W        W38442  11.134   9.367  11.291  0.2519 -0.2220  0.0390
22634W        W38443  14.368  11.522  11.138 -0.3587 -0.2916 -0.2500
22635W        W38444  11.355  11.271  13.624  0.0825  0.0290  0.3495
22636W        W38445  15.740   5.705   4.327 -0.1331  0.0996 -0.0479
22637W        W38446  15.196   2.166   0.560 -0.0694 -0.1558 -0.1136
22638W        W38447  12.654  17.441  12.136 -0.0614  0.0641  0.1210
22639W        W38448   1.104   3.132   2.494  0.0916  0.0014  0.2721
22640W        W38449  18.276   1.499   4.890  0.2009  0.2500 -0.1489
22641W        W38450   7.218   1.674  15.194 -0.2736 -0.3654  0.0017
22642W        W38451   7.160  14.572  14.219  0.0860  0.0017  0.2628
22643W        W38452   2.186   8.335  15.613 -0.1112  0.0627 -0.0357
22644W        W38453   1.891  16.162  14.662 -0.0573 -0.1160  0.1714
22645W        W38454   7.071   1.904   0.888 -0.0507  0.0485  0.0396
22646W        W38455  17.811  13.060   1.492 -0.2874 -0.1562 -0.1471
22647W        W38456  17.770  13.607  11.989  0.0107 -0.1258 -0.1723
22648W        W38457   7.727   4.451  10.178 -0.1687  0.0983 -0.2171
22649W        W38458   7.802  10.878  15.835  0.0933 -0.3434 -0.0823
22650W        W38459  13.785   0.592   2.799  0.0178 -0.0151  0.0079
22651W        W38460   7.188  13.355  10.760 -0.2200 -0.0493  0.1517
22652W        W38461   9.046   6.426   4.293  0.1739  0.1511 -0.0729
22653W        W38462  15.105  18.145   0.187 -0.1020  0.1211 -0.1685
22654W        W38463   8.833  17.500   2.219  0.0046  0.1200  0.1854
22655W        W38464   5.448  16.784  14.029  0.1092  0.3443 -0.0963
22656W        W38465   7.324   6.036  15.096 -0.2232 -0.1852  0.2980
22657W        W38466  13.732  17.239   4.857  0.4219 -0.0410  0.0449
22658W        W38467   6.056   9.367   1.969  0.0956  0.0540 -0.2736
22659W        W38468   7.238   0.237  15.564  0.2479  0.2094  0.0356
22660W        W38469   7.682  10.563  14.714 -0.2054  0.0694  0.0564
22661W        W38470   7.303   6.756   0.751 -0.0747  0.1741 -0.0525
22662W        W38471   2.405  13.744  15.626 -0.1712 -0.2961  0.3000
22663W        W38472   9.710  15.936  15.179  0.2089 -0.2992 -0.0076
22664W        W38473   3.834   3.394   1.937 -0.2986  0.1942  0.1668
22665W        W38474  15.868  16.214   3.840  0.1086 -0.0351  0.0834
22666W        W38475  13.689  15.347   2.397 -0.1841  0.0284 -0.0788
22667W        W38476   7.906  14.435   3.829  0.0394  0.0832 -0.2045
22668W        W38477   2.851  11.820   4.852 -0.0677  0.0564 -0.0435
22669W        W38478  15.481  15.494  11.357 -0.1676 -0.0837 -0.0607
22670W        W38479  12.699   6.059   3.599 -0.1059  0.0762 -0.0705
22671W        W38480   2.739   1.169   1.610 -0.1911 -0.1780  0.2976
22672W        W38481   6.339  17.839  12.323 -0.1285 -0.1897  0.0561
22673W        W38482  16.934  18.057  12.886  0.1446  0.0702 -0.1600
22674W        W38483  11.119  15.313   1.571  0.2355  0.2674 -0.3226
22675W        W38484   9.098   9.595  10.631  0.1392  0.3366 -0.0046
22676W        W38485  11.685   7.220   3.518 -0.3112  0.0670 -0.1510
22677W        W38486   6.936   4.539  12.324 -0.0179 -0.0507  0.0381
22678W        W38487   9.311   4.262   1.609  0.0186  0.1015  0.0619
22679W        W38488   4.139   3.234   4.949 -0.0810 -0.0718  0.1546
22680W        W38489   0.616  10.803   2.413 -0.2237 -0.1686 -0.2759
22681W        W38490   2.451  13.114   1.383 -0.1351  0.0539 -0.1843
22682W        W38491   9.466   4.833   2.890  0.1537  0.1172  0.1241
22683W        W38492  10.730   2.540  12.014 -0.1976  0.2453  0.1107
22684W        W38493   1.487   8.900   2.318  0.1800 -0.4329 -0.0150
22685W        W38494  15.627   8.111   2.680  0.1412 -0.1054  0.0229
22686W        W38495  12.441  16.444  11.119  0.0265  0.0208 -0.2273
22687W        W38496  14.743   9.749  11.604 -0.3935  0.1770  0.2927
22688W        W38497  11.184  13.444  12.817 -0.0803  0.0031  0.1913
22689W        W38498   8.580  14.982  12.027 -0.1348  0.0542  0.2532
22690W        W38499   8.726  12.949   0.667  0.2152 -0.3437 -0.1111
22691W        W38500  15.139  11.448  15.638 -0.1224 -0.1887  0.0807
22692W        W38501  11.967  11.922  15.351 -0.0012 -0.0734 -0.3295
22693W        W38502   4.730  11.923  10.347  0.0250 -0.0286  0.0995
22694W        W38503  15.933   9.250  10.865  0.2417  0.1104  0.0953
22695W        W38504  16.893   8.556  11.656 -0.2432  0.0594  0.2597
22696W        W38505   0.200  10.077  12.937 -0.1985  0.1920  0.0708
22697W        W38506   4.361   6.309   3.350  0.1532 -0.1919  0.1904
22698W        W38507  17.435   0.717   5.344 -0.0965 -0.1881  0.1833
22699W        W38508   2.997  18.129   4.706  0.0818  0.1468 -0.0950
22700W        W38509   2.582   8.040  15.690 -0.4306  0.0337 -0.1494
22701W        W38510   7.461   2.960   0.548  0.0204  0.0740  0.1450
22702W        W38511   7.245   8.770   5.936  0.1197  0.0476 -0.3684
22703W        W38512   7.526   2.061   3.417 -0.1317  0.0572  0.3162
22704W        W38513   2.314   3.278   2.192 -0.1614  0.0486 -0.3469
22705W        W38514   5.228   8.412  11.879  0.2005  0.0592 -0.0795
22706W        W38515   9.451   5.123  12.564 -0.2153 -0.1743 -0.0028
22707W        W38516   8.238  13.423   2.395  0.1483  0.3433 -0.0408
22708W        W38517  11.032   2.853  14.984  0.0372 -0.0827  0.1158
22709W        W38518   3.886  14.867  12.181  0.1498 -0.2134 -0.0491
22710W        W38519   7.183   7.317  14.964 -0.1492  0.0377 -0.0087
22711W        W38520  12.172   6.648  11.312  0.0825  0.0283  0.1997
22712W        W38521   5.697   9.435  12.813 -0.0241  0.1743  0.1910
22713W        W38522   2.252   9.013  15.306 -0.3165  0.3834 -0.2388
22714W        W38523  10.089  12.704  15.286  0.0271  0.0365  0.0439
22715W        W38524   0.232   7.326   1.638 -0.2066  0.1637  0.2475
22716W        W38525   4.011   3.313  12.471  0.1274 -0.3250 -0.0347
22717W        W38526   5.208  16.209   5.735  0.1462 -0.3562  0.0429
22718W        W38527  14.952   4.965   2.582  0.1571 -0.2155  0.0855
22719W        W38528   1.488  11.546   5.800  0.0339 -0.1680 -0.0470
22720W        W38529  12.200  14.018   2.244  0.3117  0.3737  0.0157
22721W        W38530  17.292  15.474  11.842 -0.1879 -0.0126 -0.1826
22722W        W38531   2.010   3.923  14.924 -0.3392  0.1776 -0.0725
22723W        W38532  17.384   7.728  12.080  0.0044 -0.0932  0.0456
22724W        W38533   5.386  15.189   3.378 -0.0566 -0.2177  0.2263
22725W        W38534   7.665   7.734   1.348  0.0561  0.2122 -0.2482
22726W        W38535   3.704   0.784  10.695  0.1148  0.1139 -0.0991
22727W        W38536  10.238  14.741   2.970  0.0568  0.0975 -0.3327
22728W        W38537   5.545  17.988  14.470 -0.0008  0.0142 -0.3904
22729W        W38538  16.551  11.722   5.018  0.1427  0.1568 -0.0734
22730W        W38539  15.004  17.096   1.083 -0.1457  0.1193 -0.1694
22731W        W38540  10.452  14.133   4.062 -0.0480 -0.1833 -0.0366
22732W        W38541   7.409  15.368  13.302  0.3526  0.0563 -0.0382
22733W        W38542   2.302   6.759  11.433  0.0029  0.0807  0.0238
22734W        W38543  10.908   3.931   2.746  0.1508  0.0858 -0.1586
22735W        W38544  18.294   1.379  13.036 -0.0315 -0.1387 -0.2317
22736W        W38545  17.824   5.310  12.881 -0.1000 -0.1721  0.2357
22737W        W38546  13.985   4.141   1.129  0.1231  0.4881  0.0494
22738W        W38547  15.664   6.344  14.033  0.0811  0.2338  0.0771
22739W        W38548   0.855   5.414   5.686  0.1165  0.0976  0.0770
22740W        W38549   2.129  12.680  12.536 -0.2001 -0.0377  0.2809
22741W        W38550   8.891   9.111   4.064  0.1126  0.0614 -0.2670
22742W        W38551  18.447  17.649  15.850  0.0451 -0.1658 -0.2789
22743W        W38552   2.847  13.860   2.703 -0.2809 -0.1152 -0.2785
22744W        W38553   4.727   9.984  15.623 -0.1837 -0.0875 -0.0157
22745W        W38554  11.870   7.447  14.731  0.1886 -0.3954 -0.0417
22746W        W38555  13.230   7.928   2.414  0.1088 -0.0571  0.0037
22747W        W38556   7.140   2.339  13.160 -0.1923  0.1338  0.0215
22748W        W38557   2.911   5.254   3.534  0.1008  0.0970 -0.0055
22749W        W38558  17.221  18.009   5.300  0.2603  0.0400  0.2661
22750W        W38559   9.325  13.770  15.096 -0.0941 -0.2213  0.1655
22751W        W38560  13.074  14.563  12.503  0.1151  0.0945 -0.4268
22752W        W38561   9.733  14.410   0.942 -0.0106 -0.3575 -0.0748
22753W        W38562   3.964  16.833  15.195 -0.1254 -0.0916  0.2175
22754W        W38563  13.787  16.349   2.117  0.1391  0.1401  0.2929
22755W        W38564  18.387   4.783   4.721 -0.0690  0.2181 -0.1109
22756W        W38565   7.245  15.726  11.332  0.0014 -0.2202  0.2519
22757W        W38566  18.349  17.857   3.418  0.1026 -0.3658  0.0645
22758W        W38567   3.097   5.993  13.780 -0.0326  0.0191  0.0582
22759W        W38568   0.438   8.960  10.284  0.1287 -0.0151 -0.1075
22760W        W38569  17.867   9.657  13.167 -0.2774  0.0657  0.0085
22761W        W38570  11.892  15.456   2.702  0.0356 -0.1104  0.1456
22762W        W38571   1.005  16.174   2.301 -0.1032 -0.0437 -0.1906
22763W        W38572   1.056   5.391  15.425  0.1277 -0.2882  0.0786
22764W        W38573  12.781   9.429   0.072  0.0091 -0.0113  0.1066
22765W        W38574   7.006   6.660   2.433  0.0274 -0.1407 -0.0982
22766W        W38575   6.986   6.800   1.958  0.0298  0.1875  0.1328
22767W        W38576  12.557   8.168  13.836  0.1473  0.1028 -0.2531
22768W        W38577  13.481   6.323  15.042  0.1134 -0.1769 -0.2211
22769W        W38578   4.632  12.247   3.790 -0.2256 -0.0491 -0.0597
22770W        W38579   0.611  11.902   2.920 -0.1948  0.0788 -0.0718
22771W        W38580  12.915   8.838   2.967 -0.0503  0.1864 -0.3535
22772W        W38581  10.993   0.844  15.646  0.2701  0.0730 -0.3321
22773W        W38582  16.037  17.179   1.191  0.2790  0.2936 -0.0098
22774W        W38583   9.048   8.107   1.123  0.2534  0.0463 -0.2735
22775W        W38584   0.984   6.174   2.801 -0.2635 -0.0866  0.0417
22776W        W38585  12.516  10.363  12.682  0.3642  0.0109  0.0295
22777W        W38586  18.396   8.003  13.133 -0.1732  0.0287 -0.5841
22778W        W38587   2.728  14.128  11.214 -0.2414 -0.1093  0.1713
22779W        W38588  17.392   5.215  14.880 -0.2096  0.0926  0.1035
22780W        W38589   4.397  11.290   2.654 -0.2093  0.0455 -0.0537
22781W        W38590  10.341   7.781  15.697  0.1087 -0.2778  0.1858
22782W        W38591   9.020  14.967  13.910  0.1985 -0.0713  0.0524
22783W        W38592  12.235   5.141   0.280  0.0215 -0.2994 -0.1007
22784W        W38593   7.404   5.146  14.994 -0.1060 -0.2190  0.0719
22785W        W38594  15.771  17.378  14.416  0.1094  0.1240  0.0834
22786W        W38595  14.314   9.828   4.758  0.2172 -0.1368  0.5826
22787W        W38596  18.114  10.718  12.543 -0.3063  0.2871 -0.1538
22788W        W38597  11.009  13.607   2.800  0.2846  0.0887 -0.1397
22789W        W38598   0.993   1.676   2.785  0.2127  0.2002 -0.1182
22790W        W38599  11.697   8.113  11.919 -0.0236  0.2519  0.0165
22791W        W38600  14.089  12.823   3.135 -0.1244  0.1712  0.1672
22792W        W38601  16.692  12.747   4.065  0.0319 -0.0568  0.0405
22793W        W38602   5.836   2.502   1.719 -0.0440 -0.0818  0.0804
22794W        W38603   2.255   9.270   2.578 -0.0577 -0.0082  0.2137
22795W        W38604   9.371   9.794   1.366 -0.0656 -0.0192 -0.1016
22796W        W38605  11.703   5.850   3.466  0.1275 -0.1032  0.0425
22797W        W38606   0.694   6.680  15.099 -0.0772 -0.1472 -0.0017
22798W        W38607   5.142   7.280   0.181 -0.0564 -0.1116  0.0775
22799W        W38608  16.562  11.850  11.741 -0.1353 -0.0524  0.0102
22800W        W38609  17.063   1.306  13.690  0.0054 -0.2259 -0.1792
22801W        W38610  10.639   0.282  14.501 -0.0436  0.2877 -0.1980
22802W        W38611  13.396  15.534  11.479  0.1145  0.0974  0.0773
22803W        W38612  13.723   9.357  12.514 -0.1414  0.2023  0.1229
22804W        W38613  12.144   6.474   2.334  0.0608  0.0280 -0.0336
22805W        W38614   7.403  17.455   4.605 -0.2828  0.0072 -0.1848
22806W        W38615   3.527  16.657   0.204 -0.0579  0.0326  0.1036
22807W        W38616   1.141   4.972   5.463  0.0148 -0.3689 -0.1004
22808W        W38617  12.860   6.072  11.452 -0.0503 -0.0894  0.1633
22809W        W38618   7.539   8.126  15.303 -0.4525 -0.3827 -0.1208
22810W        W38619   1.222  12.581  12.029 -0.1632 -0.0371 -0.1837
22811W        W38620   2.298   8.252   1.157  0.1392  0.0113  0.0141
22812W        W38621   3.413   6.659   0.218 -0.1703  0.0119  0.2427
22813W        W38622   4.572   3.115  10.863 -0.4879 -0.1086 -0.0568
22814W        W38623  11.250   6.810   5.498 -0.2123 -0.1539 -0.1553
22815W        W38624   1.027  13.024   1.891  0.0377 -0.0242 -0.0962
22816W        W38625   9.736  11.419  13.265  0.0683 -0.1801 -0.0302
22817W        W38626  13.047  12.594   2.951 -0.1734  0.4955  0.0082
22818W        W38627  17.790  18.011  13.426 -0.1490  0.2324 -0.1084
22819W        W38628   1.082  11.758  11.403  0.0210 -0.0867  0.4771
22820W        W38629   2.370   0.392  10.388 -0.0717 -0.0518 -0.1511
22821W        W38630  16.339   5.145  15.631 -0.0195 -0.1360 -0.2844
22822W        W38631   1.639  10.339   2.490 -0.2757 -0.1258 -0.1630
22823W        W38632   2.674  16.910  13.554  0.2515 -0.0141  0.2767
22824W        W38633   3.769  17.549  11.385  0.0599 -0.1337  0.0121
22825W        W38634  12.167  18.228  15.360 -0.4330 -0.1270 -0.2945
22826W        W38635   9.825   0.240  11.529  0.3489 -0.2168  0.1344
22827W        W38636  13.859   4.877  12.739  0.0300  0.1031  0.1415
22828W        W38637   7.643   0.594   5.863 -0.0469  0.0651 -0.0246
22829W        W38638   0.468  11.413  15.143 -0.0094 -0.0646  0.2643
22830W        W38639  14.263   3.266  12.116  0.2487  0.1771  0.2141
22831W        W38640   3.528   5.657  13.892  0.0166  0.0442 -0.3161
22832W        W38641  16.306  11.959   1.611  0.3203  0.0112  0.1235
22833W        W38642  14.487  17.588  11.568  0.0958 -0.3730  0.1794
22834W        W38643  17.737   8.545  14.435 -0.0498 -0.0034  0.0249
22835W        W38644   7.011   2.625  12.780  0.0340 -0.1602  0.2518
22836W        W38645  10.259   7.653  12.969 -0.1184  0.1776 -0.2170
22837W        W38646   8.325  15.002   1.001 -0.0664  0.3892 -0.0317
22838W        W38647   1.433  16.042   5.065 -0.2310  0.0960 -0.2066
22839W        W38648   3.936   0.704  12.701  0.1000 -0.3771 -0.1518
22840W        W38649   1.532  15.336  10.237 -0.0618  0.0744  0.0445
22841W        W38650   8.648   6.069  12.519 -0.1607  0.2521 -0.1520
22842W        W38651   2.686   8.555  15.392  0.0820  0.0433  0.0645
22843W        W38652   2.532  16.403  13.441 -0.0353  0.1164 -0.3117
22844W        W38653   4.322  10.799  15.850 -0.1004 -0.2120 -0.0455
22845W        W38654  16.822  12.893   9.920 -0.1960  0.1656 -0.0674
22846W        W38655  14.051   4.265  13.523 -0.0021  0.3268  0.1695
22847W        W38656   4.479   1.834  11.441  0.3379 -0.1472 -0.3380
22848W        W38657   3.809  10.556   0.083 -0.0355 -0.0005  0.1215
22849W        W38658   1.662   1.204  14.544  0.1568 -0.0009 -0.2093
22850W        W38659   4.092   6.776  12.648  0.4188  0.2578 -0.1418
22851W        W38660   9.792   7.408  13.099 -0.0468 -0.1832  0.1981
22852W        W38661  12.695   0.357   5.072  0.0752  0.0958 -0.0631
22853W        W38662   4.521   1.175  13.029  0.1588  0.0572 -0.1051
22854W        W38663  14.867  17.499   3.834  0.2799 -0.1341 -0.1991
22855W        W38664   3.047   4.501  14.280 -0.1284  0.1640  0.2968
22856W        W38665   7.793   9.661  10.603  0.1985  0.0200  0.0849
22857W        W38666  15.992   6.330   3.194 -0.0484  0.2235 -0.2449
22858W        W38667  14.408   3.748  12.988  0.0119  0.2236  0.1452
22859W        W38668  13.058  11.949   5.262  0.2305 -0.0343  0.2841
22860W        W38669  10.190  11.409  13.466 -0.1664  0.0632 -0.0714
22861W        W38670   4.097  15.813  13.921  0.3579 -0.1628  0.1597
22862W        W38671   2.085  10.414  15.258  0.3619  0.1734 -0.3577
22863W        W38672   2.510  11.552   0.215  0.1755 -0.0941 -0.0954
22864W        W38673   2.925   0.288  12.760  0.4158 -0.0479 -0.0411
22865W        W38674   3.690  14.326   4.801  0.2130 -0.1145  0.3449
22866W        W38675   6.723   0.956  13.949 -0.0650 -0.1093  0.0145
22867W        W38676  16.212  10.151  13.100  0.2428  0.1238 -0.0576
22868W        W38677   1.180   4.014  15.355 -0.1299  0.1149 -0.0904
22869W        W38678  12.345  13.132   1.245 -0.0426 -0.1142  0.1132
22870W        W38679  12.742   7.604  11.613 -0.0565  0.0341  0.0294
22871W        W38680   0.730   2.333  10.881 -0.1718  0.0906  0.2101
22872W        W38681   1.696  18.366   4.647 -0.2908  0.4094 -0.0280
22873W        W38682  13.435  16.826   4.768 -0.0848 -0.0820 -0.0287
22874W        W38683  17.298  11.730   0.871 -0.1608 -0.2180  0.1309
22875W        W38684   4.303  16.734  11.651 -0.0200 -0.1771 -0.1553
22876W        W38685   6.084   9.375  11.705 -0.0775 -0.1640  0.0645
22877W        W38686   2.647  13.428   4.957 -0.0093 -0.0535 -0.2129
22878W        W38687  16.920   7.398  12.082  0.1500  0.2243 -0.2767
22879W        W38688   8.594  16.886  14.011  0.0853  0.1941  0.2593
22880W        W38689   3.811  12.140   4.846 -0.0297  0.0014 -0.1335
22881W        W38690  16.073   2.167   6.204  0.1071 -0.0085  0.0438
22882W        W38691   2.163   6.035  14.014  0.1999 -0.1991 -0.0019
22883W        W38692   4.850   0.698   2.140 -0.2378 -0.0821 -0.3093
22884W        W38693  11.609   3.665   1.629 -0.5258  0.1317  0.0497
22885W        W38694  14.627  17.947  10.854 -0.0729  0.0341  0.0343
22886W        W38695   5.171  15.396   2.711  0.1216 -0.0989  0.0300
22887W        W38696  17.275  14.804   0.433  0.1287  0.0858  0.3802
22888W        W38697  14.145  11.599   4.217 -0.4968  0.1167  0.0721
22889W        W38698  15.368   3.810  15.754 -0.0754  0.2061  0.0611
22890W        W38699  17.917   6.536   1.065  0.0380 -0.1726  0.1162
22891W        W38700  15.999   9.240   3.908 -0.0581  0.0539  0.3862
22892W        W38701  13.059   1.642   3.123  0.0175 -0.0586 -0.2941
22893W        W38702  15.458   4.957   0.767 -0.0974 -0.0306  0.1761
22894W        W38703   4.470   9.130   2.366 -0.2261  0.2490 -0.0247
22895W        W38704   1.033   4.361  12.647 -0.1646 -0.2457  0.3706
22896W        W38705   9.641   5.971   1.438 -0.0442 -0.1954 -0.1505
22897W        W38706  14.601   1.028   4.396  0.2739  0.4052  0.0105
22898W        W38707  14.366  10.059   1.036  0.0908  0.0021 -0.2009
22899W        W38708   1.153  15.312   0.478 -0.0289  0.2572  0.0539
22900W        W38709   2.182   3.081   4.649  0.0653  0.0069  0.2145
22901W        W38710  12.786  13.276  12.904 -0.0563 -0.3687  0.0027
22902W        W38711   9.171  10.232   5.049 -0.0741  0.2618  0.2410
22903W        W38712  15.489  10.712  13.280  0.4155  0.0277 -0.3003
22904W        W38713  12.129   2.052  15.348  0.0066 -0.0348 -0.1404
22905W        W38714  16.544  13.620  13.789 -0.2288 -0.1086  0.1917
22906W        W38715   1.548   1.757   0.045 -0.0880  0.2890  0.0590
22907W        W38716   8.078   8.812  13.260 -0.1571  0.0272 -0.3023
22908W        W38717  16.686  11.057   2.175 -0.1103 -0.1186 -0.2150
22909W        W38718  12.133   0.834  15.625 -0.1376 -0.1508 -0.3551
22910W        W38719   5.244   6.412  13.337 -0.2027 -0.3398  0.0411
22911W        W38720  12.415  12.816   4.062 -0.1141 -0.1236  0.0324
22912W        W38721  12.774   2.603  15.228 -0.1343  0.0487  0.1826
22913W        W38722  12.395  13.562   3.507 -0.2785  0.3419  0.0304
22914W        W38723   6.880   4.607  12.829 -0.0632 -0.2841 -0.3759
22915W        W38724   9.929   4.491  13.296 -0.0152  0.2312 -0.2253
22916W        W38725   8.192  11.723  14.143  0.2049  0.2503  0.1027
22917W        W38726  15.143   0.833   5.322  0.0997 -0.0393  0.2123
22918W        W38727   1.819  15.769   3.251  0.0335 -0.1053 -0.0778
22919W        W38728  15.158   3.238   3.330 -0.2250 -0.1836  0.0273
22920W        W38729   3.115   7.528   4.236 -0.1317  0.3594 -0.0280
22921W        W38730   2.859  10.501   3.527  0.0081  0.1249 -0.2349
22922W        W38731   6.020   5.864   2.638  0.0291 -0.0910 -0.2334
22923W        W38732   0.725   4.963  11.310 -0.0761 -0.2359 -0.1387
22924W        W38733  18.005  10.844   3.097  0.0277  0.1668  0.0476
22925W        W38734   9.279   2.142   5.386 -0.1066  0.1445 -0.0976
22926W        W38735  12.622  14.133  10.105 -0.1564  0.0333 -0.2079
22927W        W38736   9.427   4.053   5.063 -0.0929  0.1220  0.2213
22928W        W38737   4.738   4.809   2.043  0.2151  0.0578  0.0873
22929W        W38738  17.858  15.235  12.005  0.0413 -0.0294 -0.2728
22930W        W38739   3.754  17.819  10.152  0.3407  0.1071 -0.2038
22931W        W38740   4.065  15.234  13.154  0.0645 -0.2846  0.1877
22932W        W38741   1.502   4.262  12.914  0.1687 -0.1488 -0.1118
22933W        W38742  15.525  14.291  11.462 -0.0857  0.1575 -0.1253
22934W        W38743   0.668  17.855  15.433  0.1663  0.1696  0.2069
22935W        W38744  11.776   0.644  12.392 -0.0620 -0.1745  0.1531
22936W        W38745  10.210   4.845  12.303 -0.0744 -0.1709 -0.1088
22937W        W38746   8.718   6.147  10.838 -0.2392 -0.1315  0.0252
22938W        W38747  11.373  13.325   2.476 -0.1765  0.0654 -0.2060
22939W        W38748   7.215   3.982  15.602  0.0531  0.1533 -0.0701
22940W        W38749   3.914  15.655  14.667 -0.0923 -0.1089  0.1390
22941W        W38750   9.550   0.896  14.008  0.0372 -0.1041 -0.3321
22942W        W38751   6.264  11.236   1.852  0.1197 -0.1430  0.1244
22943W        W38752   7.342  14.889   0.858  0.0059  0.1892 -0.2016
22944W        W38753   4.058   6.895  13.143  0.0441  0.2295 -0.1242
22945W        W38754  10.976   3.305  13.641 -0.0699  0.3179 -0.1163
22946W        W38755   9.606   1.072   3.466  0.3696  0.2208 -0.3718
22947W        W38756   3.386  17.315  14.915  0.1896 -0.0672 -0.2270
22948W        W38757   2.526  13.554   3.540 -0.0010 -0.4404 -0.2622
22949W        W38758  10.898  12.568   0.217  0.0206  0.0319 -0.0577
22950W        W38759   1.932   0.880  13.628 -0.3132 -0.1349 -0.2320
22951W        W38760  18.029  16.423  10.311 -0.0567 -0.4015 -0.2905
22952W        W38761  12.109  14.559   4.036  0.1189 -0.4440  0.0572
22953W        W38762   0.854  18.293   1.349  0.1807  0.1543  0.2098
22954W        W38763   5.131   7.142   4.456  0.0863  0.0008 -0.0468
22955W        W38764   4.458   6.372  13.919  0.1977  0.0078  0.0203
22956W        W38765  12.990   7.665  14.406 -0.0213 -0.4754 -0.0035
22957W        W38766   5.887  12.690  10.509 -0.3935  0.4380 -0.2861
22958W        W38767   8.103   9.574   0.670  0.2260  0.5190 -0.1489
22959W        W38768  15.679   2.172   4.539  0.1829 -0.0700  0.0632
22960W        W38769   1.487  10.674   2.083  0.0670 -0.0510  0.3667
22961W        W38770   8.249  10.150  15.767  0.0845  0.1718 -0.0001
22962W        W38771  16.725  11.497  12.584  0.0594  0.0782 -0.3326
22963W        W38772   6.910  16.751   0.937 -0.4010  0.0223  0.2221
22964W        W38773   9.034   6.128   0.143 -0.0419 -0.1647 -0.0061
22965W        W38774  11.937   4.256  12.285 -0.2900  0.1509  0.0109
22966W        W38775   3.407   7.938   5.133  0.1540  0.2272  0.1583
22967W        W38776  10.127  16.188  13.114  0.1053  0.2203 -0.0186
22968W        W38777   7.766  10.464   0.692  0.0379  0.1596  0.2315
22969W        W38778   2.034   4.148  14.347  0.1545  0.1854 -0.3535
22970W        W38779  17.499  12.836   4.020  0.0294  0.1523  0.1129
22971W        W38780   6.584   6.573   2.697  0.1874 -0.2699 -0.0934
22972W        W38781   2.818  15.854  12.571  0.0224  0.2111 -0.0751
22973W        W38782   9.962   7.163  13.476 -0.0247 -0.1261 -0.0151
22974W        W38783   2.509  16.397   3.872 -0.0392  0.0460 -0.0174
22975W        W38784   1.057   7.475  11.926  0.3447  0.0298 -0.3992
22976W        W38785   6.126  17.219   1.069  0.1417 -0.0336 -0.3259
22977W        W38786  17.242   9.778   3.853 -0.0712 -0.1933 -0.0675
22978W        W38787  10.955  13.330   3.388  0.1544  0.0822 -0.2297
22979W        W38788   9.895  16.447   3.935  0.0620 -0.1916  0.1216
22980W        W38789   9.846  10.755  11.628  0.0042  0.4135 -0.2288
22981W        W38790   8.410  14.887   2.845 -0.0742  0.2248  0.0307
22982W        W38791   1.740   3.038   0.127  0.0320  0.1849  0.0663
22983W        W38792  16.487  16.003   3.367 -0.3068 -0.0934  0.1857
22984W        W38793  12.844   2.329  10.798 -0.0983 -0.2160 -0.1687
22985W        W38794  17.857  17.189   2.758 -0.0528 -0.2173 -0.0217
22986W        W38795  15.564   5.344  13.874  0.2859  0.1849  0.0446
22987W        W38796   9.938   6.176   3.880  0.0520 -0.0777  0.4266
22988W        W38797   5.100  16.044   2.907  0.0153 -0.0384  0.1880
22989W        W38798  11.295   5.843  13.251 -0.0460 -0.1155 -0.1535
22990W        W38799  12.305   4.530  13.754  0.2485  0.4071 -0.2142
22991W        W38800   0.292   6.608   0.424  0.1102 -0.1966  0.1101
22992W        W38801   1.575   9.936  13.462 -0.2039  0.1954  0.0353
22993W        W38802   2.639   7.551   2.494  0.3434 -0.0346 -0.0611
22994W        W38803   4.398   0.831   0.791  0.2373  0.0956  0.1464
22995W        W38804  15.008  15.699   1.722 -0.0449 -0.0479  0.2443
22996W        W38805  14.894  11.686   3.399 -0.3089  0.1879  0.2613
22997W        W38806   9.719  11.534  11.702  0.1141  0.0550  0.0093
22998W        W38807   1.180   4.899  11.556 -0.1292 -0.1175 -0.2550
22999W        W38808   5.981  15.189   1.156  0.1208  0.2271 -0.0168
23000W        W38809  16.173   6.938  12.384 -0.1746  0.2071  0.1121
23001W        W38810  18.281  10.978  11.511  0.1230  0.0682 -0.0925
23002W        W38811   7.840   9.294   0.309 -0.1639  0.2501  0.0394
23003W        W38812   4.135   0.037  15.462 -0.0890  0.1318  0.0548
23004W        W38813   7.780  17.683  14.811 -0.1792 -0.0834  0.3547
23005W        W38814   9.320  15.088   1.508  0.1148  0.1320 -0.0195
23006W        W38815   3.286  14.339   0.693  0.3085  0.0894  0.2526
23007W        W38816   1.142   3.450   0.696 -0.0516  0.3270  0.1289
23008W        W38817   9.077  16.024  12.565 -0.1866  0.0417  0.5122
23009W        W38818   1.150   7.647  13.757 -0.0150 -0.0626  0.1133
23010W        W38819  18.391   3.523  12.598 -0.0432 -0.1434  0.0671
23011W        W38820   3.268   4.020   0.453  0.0646  0.2221  0.1383
23012W        W38821   5.117   6.200  10.082  0.4004  0.1081 -0.2695
23013W        W38822  16.819   2.588   2.763  0.1288 -0.2718  0.3306
23014W        W38823  11.333  17.959   0.958 -0.1258  0.3273 -0.1154
23015W        W38824  13.164   5.883  11.046 -0.1201 -0.1032 -0.1479
23016W        W38825   1.257  11.295  11.786  0.0517  0.0734 -0.3041
23017W        W38826  14.170   6.692  15.811 -0.1081 -0.0988 -0.0799
23018W        W38827  11.728   9.883   3.412  0.0631 -0.2991  0.0435
23019W        W38828   2.035   0.626   3.656 -0.0232  0.0035 -0.0807
23020W        W38829  16.497  10.984  11.655  0.2085  0.1078  0.3614
23021W        W38830  10.823  13.424  14.969  0.0817  0.1381  0.0076
23022W        W38831   0.531  13.135  11.595  0.3824 -0.1808  0.0054
23023W        W38832  16.005  14.202   0.227 -0.3194  0.1016  0.2055
23024W        W38833  18.006   0.936  15.168 -0.1785  0.1260 -0.0694
23025W        W38834   4.974  14.573   1.866 -0.1852  0.0409 -0.1091
23026W        W38835  11.848  13.159  12.211  0.1810  0.0587 -0.0062
23027W        W38836  11.412   4.117  12.353 -0.0822 -0.0214 -0.1254
23028W        W38837   4.854   9.685   2.905 -0.2188 -0.1221 -0.0434
23029W        W38838  12.904  11.707   0.691 -0.2491 -0.1088 -0.1855
23030W        W38839  16.242  15.979  10.952  0.0855 -0.0228 -0.0997
23031W        W38840   5.427   1.702   4.563 -0.2603  0.1803  0.0602
23032W        W38841  13.182   4.627  11.228 -0.2435  0.2544  0.0231
23033W        W38842  12.354  12.725   1.672 -0.1831  0.2521  0.0444
23034W        W38843   4.435  10.430   2.545 -0.2349  0.2390 -0.0805
23035W        W38844  15.616  17.457  11.682 -0.1173 -0.0346  0.0833
23036W        W38845   9.248  15.372   5.396  0.1852 -0.1828 -0.1614
23037W        W38846   6.237   3.397   3.224  0.0178 -0.2653 -0.0890
23038W        W38847  16.338   7.435   2.729 -0.0266 -0.0597  0.1641
23039W        W38848  15.997  17.194   2.516 -0.0915  0.0634  0.0487
23040W        W38849   3.464  16.257  15.768  0.0848 -0.1196 -0.0913
23041W        W38850   2.106  15.026  15.570  0.0165  0.1273  0.0898
23042W        W38851   5.616  14.725   3.520 -0.0173 -0.0415  0.5719
23043W        W38852  15.169  14.043   2.325 -0.0578  0.0190 -0.0848
23044W        W38853   9.233   7.185   3.507 -0.1108 -0.2052 -0.3449
23045W        W38854   3.412  18.439  11.324  0.0096  0.1828  0.0769
23046W        W38855   4.724   1.307  12.553 -0.0322  0.0981  0.1487
23047W        W38856   0.111  10.384  12.038 -0.1636  0.1296 -0.1229
23048W        W38857  15.274   9.438  10.366 -0.4752  0.0316  0.0895
23049W        W38858   6.472   1.334   4.024 -0.0852 -0.1638 -0.5322
23050W        W38859   6.192   3.423   4.805 -0.3257  0.3879  0.2234
23051W        W38860   0.167  11.983  15.604 -0.2664 -0.1559  0.1315
23052W        W38861   6.988  16.469   1.720  0.1615  0.1765  0.1410
23053W        W38862  12.004   9.689  14.388  0.2235  0.4672 -0.1751
23054W        W38863  14.555  13.816   3.168  0.0056 -0.2929 -0.0826
23055W        W38864   4.428  15.645  15.741 -0.0667  0.0508  0.0923
23056W        W38865  10.495   6.005   4.450 -0.1607  0.0496  0.0532
23057W        W38866   7.280  17.893   3.613  0.1021 -0.0485  0.0302
23058W        W38867   1.653   2.857   2.476  0.1933 -0.1896  0.3547
23059W        W38868   7.991  16.546   5.197  0.0383 -0.2504 -0.1638
23060W        W38869   4.831   2.639   4.248 -0.2351  0.0053 -0.0272
23061W        W38870   0.736  11.930   5.488  0.0280  0.1804  0.2382
23062W        W38871  12.549  17.656  13.325  0.0678  0.0593 -0.1521
23063W        W38872   4.726  10.539  12.286 -0.0859  0.0725  0.2980
23064W        W38873   2.497  13.993   4.544 -0.0854 -0.1671  0.3818
23065W        W38874   4.482   9.384   4.145 -0.2445  0.1545 -0.0499
23066W        W38875  11.497   4.598  13.504  0.0220 -0.3372 -0.1932
23067W        W38876  13.238  17.649   5.899 -0.1987 -0.1991  0.1340
23068W        W38877   7.603   1.891  13.205 -0.1404 -0.0288 -0.0418
23069W        W38878   1.404   0.386   4.695 -0.2777 -0.0879 -0.1509
23070W        W38879   1.718   3.470  13.405 -0.0363 -0.1816 -0.2674
23071W        W38880  16.232  15.248  13.135  0.2435 -0.0103  0.2528
23072W        W38881   7.550  13.515   1.682 -0.0719  0.0300 -0.4118
23073W        W38882   6.543  10.406   5.638 -0.2487 -0.0675 -0.3337
23074W        W38883   3.715   1.098   2.843  0.0469 -0.2597  0.0437
23075W        W38884  14.503  17.672  12.053  0.4293 -0.0849 -0.2827
23076W        W38885   0.736   6.379   5.529 -0.1428  0.0952 -0.1062
23077W        W38886  11.001   6.507   5.197  0.1399 -0.1739  0.0977
23078W        W38887   3.973  12.945  12.667 -0.0469 -0.2952  0.1633
23079W        W38888  16.794   0.545  12.819 -0.2070  0.1799  0.3171
23080W        W38889  10.432  10.690   4.957 -0.1059 -0.1816  0.0995
23081W        W38890   4.328   0.989  11.911 -0.1260 -0.4283 -0.0117
23082W        W38891  12.482   3.061  15.346 -0.0410 -0.0443  0.0258
23083W        W38892  11.136  18.370  15.561 -0.0592 -0.2420 -0.2207
23084W        W38893   1.900   4.937  15.103 -0.3285 -0.2666  0.3252
23085W        W38894   2.453  15.464   1.857  0.2342  0.0247 -0.0795
23086W        W38895   4.434  13.788   1.446 -0.2731  0.0314 -0.4797
23087W        W38896   3.634  16.628   0.719  0.0378  0.1622  0.1121
23088W        W38897  17.590  10.756   4.544 -0.0586 -0.0353 -0.0928
23089W        W38898  16.629   5.378  11.313  0.1608 -0.0330  0.0398
23090W        W38899  17.265  13.589   5.117 -0.0461 -0.0449  0.0379
23091W        W38900  15.625  18.375   5.167 -0.1327 -0.0888 -0.2541
23092W        W38901   3.821  17.085  12.870  0.1879  0.0513 -0.0368
23093W        W38902  10.074   3.437  15.037 -0.4207 -0.0716 -0.2707
23094W        W38903  18.098   4.381   6.211 -0.0345  0.3373  0.0234
23095W        W38904  16.694   4.134  14.117  0.2296  0.1722 -0.2851
23096W        W38905   8.562  12.323  14.698 -0.2246  0.3871  0.1875
23097W        W38906   9.138  13.917   3.538 -0.1140 -0.3167 -0.0803
23098W        W38907  15.807  17.405  13.890 -0.0038  0.3346 -0.2787
23099W        W38908   3.089  10.272  10.668 -0.1938 -0.1618 -0.0302
23100W        W38909  16.366  18.152  13.139  0.3320 -0.2591 -0.2363
23101W        W38910  14.560   0.886  12.329 -0.1730  0.0940 -0.1590
23102W        W38911  16.621  12.882  12.916 -0.0478 -0.0384  0.0844
23103W        W38912  17.234   6.412  13.232  0.0248  0.1151  0.1798
23104W        W38913   9.896   3.905  14.961 -0.0170 -0.1970  0.2980
23105W        W38914   4.178   1.029   5.020  0.1578  0.1310  0.1969
23106W        W38915   7.645   5.898   5.188 -0.1710  0.1336 -0.0624
23107W        W38916   6.978   8.021   0.923  0.2909  0.2311  0.0158
23108W        W38917  15.474   5.219  14.705  0.0421 -0.3194  0.1443
23109W        W38918  12.291  11.098   0.803 -0.1395  0.1928  0.2509
23110W        W38919  15.276  12.383   9.970 -0.0047 -0.4099  0.2436
23111W        W38920   9.252  12.770  12.944 -0.2226  0.2262  0.0681
23112W        W38921   0.153  17.611   3.029 -0.1551  0.3150 -0.0534
23113W        W38922  14.717  12.968   0.851  0.2113 -0.0059  0.2394
23114W        W38923  10.071   8.857  13.400  0.0971 -0.0349  0.0944
23115W        W38924  15.846   1.259  12.007  0.0184 -0.2340  0.0534
23116W        W38925   6.859  13.769  14.302 -0.0388  0.3014  0.1980
23117W        W38926  18.352  14.045   0.702  0.0125  0.1091 -0.0963
23118W        W38927  13.495  14.623   5.045 -0.2856 -0.0348 -0.1441
23119W        W38928   7.457  18.387  13.080 -0.2020  0.1825 -0.1035
23120W        W38929   2.324  11.133   3.900 -0.0188 -0.0888 -0.2644
23121W        W38930   4.105   5.660  10.235 -0.4219  0.0816  0.1398
23122W        W38931  16.958  10.266   2.469 -0.0715 -0.0304 -0.2677
23123W        W38932   9.397  14.417  15.738 -0.1243 -0.1265 -0.0397
23124W        W38933   7.212   3.183   1.334  0.0369 -0.0546 -0.2875
23125W        W38934  12.652   5.970  14.382  0.1904 -0.0905 -0.0695
23126W        W38935   4.855   4.323  15.316  0.2363  0.3028  0.5092
23127W        W38936  16.925  16.027   5.231  0.0562 -0.3950 -0.3251
23128W        W38937   1.119  18.315   0.431 -0.0256 -0.0297  0.1568
23129W        W38938  14.450  16.479   3.928  0.0111  0.3375  0.0465
23130W        W38939  15.852  10.135   5.270 -0.0449 -0.2431  0.0375
23131W        W38940  15.355   8.162   1.487 -0.1762 -0.1063  0.0131
23132W        W38941   9.902  14.378  13.089  0.1043  0.3783  0.2045
23133W        W38942  18.000   0.464   0.086  0.0261 -0.0612  0.2637
23134W        W38943   9.892  17.627  11.362 -0.1264  0.1530  0.3325
23135W        W38944  15.488   6.369   3.104 -0.0978  0.0504  0.1409
23136W        W38945   2.252   0.506  14.304 -0.0339 -0.0524  0.0358
23137W        W38946  12.260   9.595  13.090 -0.3653 -0.0342 -0.1675
23138W        W38947   1.611   8.261  15.486 -0.1919  0.4381  0.0367
23139W        W38948  14.983  15.274  12.952  0.5877 -0.3198 -0.0133
23140W        W38949   2.553  12.582   9.943 -0.0587 -0.2977  0.3505
23141W        W38950   6.388   7.986  12.747 -0.2358  0.0184 -0.0989
23142W        W38951   2.105   4.222   1.312 -0.2557  0.1251 -0.1208
23143W        W38952  13.256  13.797   0.679 -0.0365  0.0484 -0.0270
23144W        W38953  13.818   9.369   4.789 -0.1486  0.1242 -0.1303
23145W        W38954   1.233   0.379   0.624 -0.1487  0.2441 -0.2247
23146W        W38955  18.169   9.297  10.713 -0.2977 -0.1518 -0.2600
23147W        W38956  16.400  11.522  13.048  0.2006 -0.2746 -0.0458
23148W        W38957   6.546   8.138  14.026 -0.4291  0.0976 -0.2803
23149W        W38958   4.814   1.733   5.510 -0.4713  0.3646  0.1987
23150W        W38959  15.405  16.913   4.749 -0.3458 -0.2355  0.0231
23151W        W38960  17.427  17.614   3.185 -0.3215 -0.3805 -0.0517
23152W        W38961   2.185  13.836   0.215  0.0130  0.2392  0.0340
23153W        W38962   0.318  15.464   3.888 -0.0717 -0.1197  0.2555
23154W        W38963   1.161  15.728  11.016 -0.2284  0.1249 -0.1343
23155W        W38964   3.247   0.371   5.934 -0.2376  0.0488  0.0573
23156W        W38965  12.362   8.515  10.787 -0.0424 -0.0605 -0.0022
23157W        W38966   2.351  14.146  10.942  0.1650 -0.0691 -0.0825
23158W        W38967   7.703   9.302   5.209  0.0256 -0.0343  0.0726
23159W        W38968  15.895  15.753   4.071  0.1614 -0.0665  0.1034
23160W        W38969  16.500  11.419  10.381 -0.0411  0.0911 -0.1212
23161W        W38970  13.418  18.125   3.804  0.0817 -0.2023 -0.0655
23162W        W38971  15.213   4.492   3.843 -0.0286  0.0666  0.3054
23163W        W38972   8.651   6.337   5.022 -0.2140  0.1950  0.2603
23164W        W38973   5.376   3.950  11.172 -0.3845 -0.0141 -0.0398
23165W        W38974  10.380  17.764   4.838  0.3927 -0.0424 -0.2120
23166W        W38975   0.691   4.110  14.861  0.0055  0.1726  0.1782
23167W        W38976   0.938  11.944   1.589 -0.0820  0.3699 -0.0514
23168W        W38977  17.861   3.222   0.483  0.0669 -0.1385  0.1473
23169W        W38978  10.604  12.855  13.758 -0.0903 -0.0686  0.0698
23170W        W38979  10.843   9.816  11.359 -0.0235 -0.1104  0.1534
23171W        W38980   9.927   1.261  13.106  0.0207 -0.2732 -0.0372
23172W        W38981   1.905  14.236   5.843  0.2308 -0.1673 -0.0630
23173W        W38982   5.172   3.539  13.007  0.1279 -0.0311  0.2642
23174W        W38983  10.212   3.202  12.328 -0.0984  0.2579 -0.0618
23175W        W38984  10.108   3.962   3.409 -0.2960 -0.2217 -0.0343
23176W        W38985  12.958  11.133  15.264 -0.3196 -0.3035  0.1092
23177W        W38986  16.850  13.906  11.539 -0.1347 -0.1564  0.1942
23178W        W38987   7.054   7.588  11.641  0.0148 -0.0582 -0.0519
23179W        W38988   3.199  13.468  14.491  0.0241  0.1244  0.2860
23180W        W38989  17.495   8.839   0.769 -0.0257 -0.2559 -0.3051
23181W        W38990   9.641   4.273   2.033 -0.0540 -0.0023  0.0677
23182W        W38991   2.434  13.014  11.773  0.1299 -0.3323 -0.2680
23183W        W38992   9.312   8.351   4.811 -0.1029  0.0078 -0.1594
23184W        W38993   1.438   7.074   1.245 -0.0428  0.1644 -0.4268
23185W        W38994   1.775  14.914  12.848  0.1776 -0.1670  0.0688
23186W        W38995  17.554   2.103   3.998 -0.3428  0.1606  0.1789
23187W        W38996   6.219  18.256   3.007 -0.1932 -0.0492 -0.0496
23188W        W38997   7.384   1.038   5.801  0.1506  0.3732  0.0471
23189W        W38998   0.708   2.018   0.946  0.1153  0.1565  0.2397
23190W        W38999   5.674   1.562  11.991 -0.3793 -0.2509 -0.3095
23191W        W39000   5.735  17.079  15.377  0.1568  0.1008  0.1198
23192W        W39001  13.105  14.768   0.708  0.0744 -0.0116  0.2684
23193W        W39002   6.534   4.798   4.494  0.4467 -0.0610 -0.2290
23194W        W39003  10.625  10.127  15.382 -0.1100  0.0085 -0.2377
23195W        W39004  13.811  13.551  13.166 -0.3473 -0.2053 -0.1281
23196W        W39005   3.677   5.806  12.647  0.2382  0.0211  0.2723
23197W        W39006   1.846  11.265   1.096  0.3772 -0.1129 -0.1385
23198W        W39007  15.718   0.591  14.323 -0.0398  0.1381  0.1056
23199W        W39008   8.976   7.272   1.400  0.0954  0.0629  0.2189
23200W        W39009   3.103   5.726   3.883 -0.0829 -0.3136  0.1622
23201W        W39010  17.174   9.464  15.386 -0.0499 -0.1595 -0.1262
23202W        W39011   8.347  17.878   4.983  0.0233  0.2228 -0.1457
23203W        W39012   2.457   8.569   0.729  0.1625 -0.0435  0.1058
23204W        W39013  18.450  13.785   5.020 -0.0535 -0.1375 -0.0169
23205W        W39014  16.480  11.286   5.296  0.1379  0.1424 -0.0096
23206W        W39015   3.879  11.794  13.112 -0.0575 -0.0257 -0.2803
23207W        W39016  10.236  11.174   1.232  0.2048 -0.1556 -0.2645
23208W        W39017   6.914   8.015   3.740 -0.0675  0.0025 -0.1731
23209W        W39018   8.065  10.215   2.749 -0.1633  0.2689 -0.2868
23210W        W39019  14.773  15.767   5.021 -0.1784  0.0100  0.0415
23211W        W39020   6.679  13.638   1.310  0.3612 -0.2011  0.2285
23212W        W39021  16.089   7.858  11.850  0.5010  0.0418  0.1789
23213W        W39022   9.645  11.979  14.139  0.1101 -0.2531  0.1163
23214W        W39023  12.839  14.531   1.830  0.1349 -0.0076 -0.3170
23215W        W39024   4.321   5.302  13.867 -0.0513 -0.1792  0.1117
23216W        W39025   7.529   0.703  13.578 -0.3361  0.1222 -0.2992
23217W        W39026  11.870  13.522   2.444  0.0846 -0.3806 -0.2487
23218W        W39027   0.255  15.745   0.373  0.0145  0.1187  0.2643
23219W        W39028  11.533   8.192  12.474  0.1455 -0.4199  0.3961
23220W        W39029   3.435  13.727  11.439 -0.2157 -0.1653  0.1478
23221W        W39030   2.574   3.159   5.632 -0.0053 -0.0693 -0.0152
23222W        W39031   1.677   3.384   0.533  0.2293  0.1811 -0.0483
23223W        W39032   7.390   6.704   3.686  0.2280 -0.0462 -0.1982
23224W        W39033   9.556  13.295  15.052  0.0684  0.2061  0.0895
23225W        W39034  13.679  13.268   3.036  0.3345 -0.1280 -0.0657
23226W        W39035  11.971   6.544  12.226  0.1549 -0.0331  0.1326
23227W        W39036   0.530  15.254   1.781  0.1354 -0.1316 -0.3073
23228W        W39037  18.176   9.735   2.442 -0.3385  0.1075 -0.3140
23229W        W39038   8.874   9.932   0.612  0.3088 -0.0217 -0.0698
23230W        W39039  11.047   1.117  14.830  0.2937 -0.0094 -0.1005
23231W        W39040  12.023   8.036  11.463  0.0435  0.0114  0.0215
23232W        W39041   7.575   7.159   1.137  0.0224 -0.2751  0.1595
23233W        W39042   5.188   5.011  13.452  0.0733 -0.1791 -0.2339
23234W        W39043  11.718  18.014  15.060  0.1531 -0.2203 -0.2347
23235W        W39044   0.999  17.725   0.002 -0.0633  0.0497  0.1570
23236W        W39045  16.157   3.402   0.410  0.0745  0.0319 -0.1599
23237W        W39046   6.904   4.468  13.481  0.3438 -0.1679 -0.2523
23238W        W39047   2.105  15.141   4.854  0.1834 -0.0444 -0.0793
23239W        W39048  14.303  14.975  12.542 -0.0031  0.1401  0.1847
23240W        W39049  16.109  15.594   3.653  0.0559  0.2586 -0.1910
23241W        W39050   2.294   8.080   0.661 -0.1469  0.0105  0.0226
23242W        W39051  11.197  13.213  12.282  0.2855  0.0329  0.2177
23243W        W39052  11.191  11.773   5.175 -0.0994  0.1597 -0.2408
23244W        W39053  16.194  18.211   4.245 -0.2528 -0.0796  0.1335
23245W        W39054  17.874  17.448  15.097  0.0679 -0.0068 -0.1492
23246W        W39055   0.407  16.756   2.647 -0.0887 -0.0790  0.2987
23247W        W39056   6.488   3.629  12.183 -0.0154  0.6107  0.1326
23248W        W39057  18.372   7.042   5.589  0.3994 -0.1773 -0.2761
23249W        W39058  15.035  11.898   2.865  0.2236  0.1013 -0.0727
23250W        W39059   3.648  12.480  15.001  0.0307  0.1336  0.0121
23251W        W39060   0.074   6.501  10.725 -0.1099 -0.0877  0.1269
23252W        W39061   9.813   6.120   0.093 -0.0454  0.3088 -0.3768
23253W        W39062   7.485   9.309  10.215 -0.2706  0.0227  0.1551
23254W        W39063   3.125   3.668  13.180 -0.0244  0.1351  0.0391
23255W        W39064  13.576  16.853  13.345 -0.0438  0.0284 -0.2325
23256W        W39065  14.319   4.531  12.000  0.1181 -0.2688 -0.0472
23257W        W39066   3.383   3.132  12.121  0.2278 -0.1321  0.1984
23258W        W39067   0.378  11.456   2.976 -0.0141  0.0158 -0.1079
23259W        W39068  12.069   1.599   0.722  0.3898 -0.1588  0.1799
23260W        W39069  10.450   0.298  15.050  0.0684  0.1362 -0.1760
23261W        W39070   4.942  12.335  14.894  0.2097 -0.1996  0.4300
23262W        W39071  16.459  11.512  14.244  0.0896  0.0818 -0.0995
23263W        W39072   3.598   3.371   2.349 -0.2319  0.0109 -0.0450
23264W        W39073  10.900   9.440  12.794  0.1153  0.4468  0.1730
23265W        W39074  10.324   6.057  14.813  0.0513 -0.1050  0.1792
23266W        W39075   6.084   2.701  12.887 -0.2399  0.0211 -0.0520
23267W        W39076  15.693   1.315   4.662 -0.0291  0.1714 -0.1920
23268W        W39077   6.488   0.877  10.681 -0.2511  0.1936 -0.2730
23269W        W39078  15.238   7.937   2.291  0.1912 -0.0674  0.3103
23270W        W39079   5.615   9.224   4.699 -0.2642  0.0611  0.0858
23271W        W39080   4.470   3.077   0.716 -0.0335  0.2677 -0.3591
23272W        W39081  13.664   9.137   2.414 -0.2059 -0.0651  0.4009
23273W        W39082   7.273  15.836   0.639 -0.0636 -0.0416 -0.4853
23274W        W39083  12.828   3.156   5.440  0.1709  0.0098 -0.1645
23275W        W39084  18.418  17.600  14.145 -0.1892 -0.2653  0.1032
23276W        W39085  13.287  14.871  14.726 -0.0676  0.0994  0.1432
23277W        W39086   4.131  13.592   5.149  0.1499 -0.0854  0.0270
23278W        W39087   2.570   0.562  11.291  0.1531  0.2884  0.2336
23279W        W39088  12.157  15.891   0.310 -0.0539 -0.1338 -0.2361
23280W        W39089   6.349   8.470  11.340  0.0048 -0.0337 -0.0186
23281W        W39090  17.301   8.730   6.193  0.3217 -0.0699  0.1647
23282W        W39091   8.511   9.811   4.699 -0.3792 -0.0346  0.2416
23283W        W39092   0.763  18.263  10.029  0.0921  0.1060  0.0565
23284W        W39093   1.657  13.090  12.489 -0.2722 -0.0917 -0.0313
23285W        W39094  17.536   3.110   2.882  0.3613  0.0703 -0.1953
23286W        W39095  11.945   4.553   1.943 -0.0249 -0.3805 -0.2316
23287W        W39096   7.131   6.303  11.821 -0.1914  0.0203 -0.0222
23288W        W39097   0.040   3.317   2.073  0.0763  0.2454 -0.2610
23289W        W39098  15.212  17.431  11.983  0.1681  0.3405  0.2260
23290W        W39099   3.508   4.090   4.466  0.1461 -0.3332  0.0444
23291W        W39100   9.328  17.680  12.539  0.0772  0.3923  0.0335
23292W        W39101   4.132  13.917   0.217 -0.0667 -0.1798  0.2269
23293W        W39102  12.766  13.949  14.575 -0.2347 -0.2292  0.1534
23294W        W39103  10.641  11.019   3.058  0.1852 -0.1342  0.0031
23295W        W39104   7.945   4.753  14.632  0.1308 -0.1834 -0.1993
23296W        W39105   9.924  11.037   4.150 -0.1392 -0.0064 -0.1236
23297W        W39106  11.095  13.113   2.861 -0.0179  0.1849 -0.2810
23298W        W39107   7.828  10.332   1.253 -0.0402 -0.3892 -0.0433
23299W        W39108   3.466  11.823  14.421  0.0722  0.2770 -0.0887
23300W        W39109   2.784   2.388  14.879  0.0823 -0.3360 -0.3257
23301W        W39110   7.785   0.950  14.853 -0.1212  0.2293 -0.0269
23302W        W39111  13.981   7.880  10.468 -0.0935 -0.0199 -0.2427
23303W        W39112  11.843  15.334  11.510 -0.2150 -0.2576 -0.2249
23304W        W39113  11.733   4.014   0.803 -0.0632  0.2286  0.0213
23305W        W39114  16.492   6.964   1.303  0.1095 -0.1132  0.2664
23306W        W39115   2.901   0.000  14.994 -0.2143  0.0796  0.0356
23307W        W39116  15.428   4.310  15.760 -0.0225 -0.2378  0.1406
23308W        W39117  11.301   9.945   2.408  0.1590 -0.1589 -0.3511
23309W        W39118   9.394   8.388   0.106 -0.2136  0.0382 -0.0960
23310W        W39119  16.445   2.586  10.599  0.1100  0.0635 -0.0183
23311W        W39120  16.402  12.598  10.825 -0.3158 -0.2112  0.0026
23312W        W39121  15.182  11.033  12.011  0.0634  0.2298 -0.2168
23313W        W39122   4.071   5.547  15.224  0.0289  0.3471 -0.4245
23314W        W39123  17.120   6.309  14.983  0.0632  0.2637  0.0359
23315W        W39124   0.374  17.495   1.246 -0.2173  0.3487 -0.2351
23316W        W39125  17.292   6.322   3.630 -0.1384  0.1760 -0.1879
23317W        W39126  17.634  13.934   9.642  0.0570  0.3679 -0.1264
23318W        W39127  14.766  11.872   0.969 -0.4088 -0.3572 -0.1504
23319W        W39128   0.377  17.718  13.292  0.3732 -0.0133 -0.1480
23320W        W39129  14.186   5.936   4.308 -0.2801  0.0753  0.4777
23321W        W39130  16.019  14.293   2.508  0.3111  0.0855 -0.1091
23322W        W39131   0.419   9.431   1.151  0.1506  0.2184 -0.2359
23323W        W39132   9.443   3.811   0.578 -0.2006 -0.1650  0.2047
23324W        W39133   0.354  11.885   1.429 -0.1413  0.2057 -0.0195
23325W        W39134   9.459   1.894   3.244 -0.1636 -0.2048  0.2822
23326W        W39135   9.684   3.125   1.201  0.1078  0.0688 -0.0921
23327W        W39136   5.100  16.277  14.604 -0.2544 -0.1256  0.0401
23328W        W39137   1.331   0.174  13.889  0.0111  0.0731 -0.1629
23329W        W39138  13.931   3.259   4.816 -0.0857 -0.0528 -0.0566
23330W        W39139  13.179  12.520  15.289  0.0072  0.1728  0.0066
23331W        W39140  15.258   3.626  13.561 -0.4681 -0.1268 -0.0155
23332W        W39141   0.896   0.616   2.877 -0.1714  0.1031 -0.0491
23333W        W39142  10.953   3.232   2.040  0.3184 -0.1681  0.0047
23334W        W39143  16.158   6.453   3.686  0.1513  0.1119  0.3110
23335W        W39144   1.223   4.216   1.904  0.2277  0.0595 -0.1896
23336W        W39145   2.770  13.548   4.475  0.1750 -0.0978  0.0645
23337W        W39146  12.980   8.804  11.642 -0.0935  0.1328  0.0513
23338W        W39147  13.361   2.303   5.291  0.2830 -0.1999  0.1321
23339W        W39148   9.322   8.397   3.244  0.1116 -0.1570  0.1204
23340W        W39149  13.006   1.018  11.288  0.3847  0.1246  0.1212
23341W        W39150   4.986   8.848   5.207  0.1612  0.0034 -0.0269
23342W        W39151   3.666   8.752   5.297 -0.0899  0.1940  0.1759
23343W        W39152  13.698   2.908   0.839  0.1171  0.0849  0.0886
23344W        W39153   5.505  15.959   3.521  0.0002 -0.1187  0.0458
23345W        W39154   1.029   8.264   2.785  0.2481 -0.1716  0.3776
23346W        W39155   3.190   6.908   2.862 -0.2303  0.2801 -0.1637
23347W        W39156  10.029   8.109   1.897 -0.1861  0.2654 -0.0751
23348W        W39157   9.558  10.232   2.464  0.2856  0.0560  0.0172
23349W        W39158  17.561  15.502  11.379  0.2611 -0.1172  0.1458
23350W        W39159   7.897   7.146   4.963 -0.0349  0.0485 -0.1781
23351W        W39160   8.426  13.231  11.046 -0.3608  0.0491 -0.0890
23352W        W39161  11.119   8.046   3.460 -0.3422 -0.1557  0.0113
23353W        W39162  17.277   3.787   5.084 -0.0534 -0.6110  0.2735
23354W        W39163   5.202   1.064   3.492 -0.0324  0.0518  0.0815
23355W        W39164   4.867   3.649  12.593  0.0639  0.2686 -0.2114
23356W        W39165  17.651   5.939   5.041 -0.1219  0.1939  0.0448
23357W        W39166  13.686  15.825  10.437 -0.1742  0.5386  0.1392
23358W        W39167   0.268   6.039   0.412 -0.1560 -0.1041  0.1372
23359W        W39168   2.893   3.229  11.523  0.1788 -0.0778 -0.0796
23360W        W39169   8.651  10.328  15.505  0.0565  0.4703  0.0834
23361W        W39170  16.944  12.924   0.814 -0.0868  0.2186 -0.2381
23362W        W39171  16.446   7.738   4.210 -0.1008 -0.1545 -0.1254
23363W        W39172   2.982   5.455   1.906  0.2116  0.1452  0.2025
23364W        W39173  17.663  10.023  12.800  0.1200 -0.1486  0.0056
23365W        W39174  16.517   1.326   2.794  0.0926 -0.2477  0.1206
23366W        W39175   3.314   3.142  15.020 -0.3167 -0.0308  0.1934
23367W        W39176   4.070  15.386  12.150 -0.2584  0.1685 -0.0156
23368W        W39177  14.299   7.372  13.205 -0.0134  0.1604 -0.1454
23369W        W39178  16.243   9.284   0.130  0.4170  0.2050  0.0296
23370W        W39179  11.994  17.859   2.327 -0.1388 -0.0838 -0.2871
23371W        W39180  10.017   5.252  12.635 -0.1995 -0.3331  0.1130
23372W        W39181   9.610  17.478   0.829  0.2422  0.0776 -0.3922
23373W        W39182  12.344  10.677  14.522  0.1097  0.0132 -0.0649
23374W        W39183  17.130   0.825  10.625 -0.0336 -0.3000  0.0937
23375W        W39184   0.200  18.363   4.414  0.0299  0.3921 -0.2931
23376W        W39185  12.606   1.768   2.879 -0.1801  0.0610 -0.0230
23377W        W39186   0.854   3.737  12.002 -0.1206  0.0218 -0.1779
23378W        W39187   5.918   6.792   0.232  0.1410  0.0187  0.3693
23379W        W39188  15.156  12.329   2.618 -0.0978 -0.2033  0.0104
23380W        W39189   8.970   7.201   4.021  0.1051 -0.0150 -0.2634
23381W        W39190   0.854   6.531  12.442 -0.1512 -0.0340  0.2112
23382W        W39191   4.646   0.200  15.495  0.2290 -0.0349  0.0032
23383W        W39192  13.655   4.622   0.936 -0.3907  0.1091 -0.3435
23384W        W39193   1.134   9.655  13.890 -0.2471  0.1161 -0.1627
23385W        W39194  12.681   4.710   4.635 -0.0654  0.0689 -0.0799
23386W        W39195   0.942  17.415  10.915  0.1876  0.1706  0.0927
23387W        W39196   5.349  10.175  13.696 -0.2743  0.1136  0.1607
23388W        W39197   0.558   3.070  14.559 -0.2169 -0.2671  0.0610
23389W        W39198   7.682  16.832  14.952  0.1994  0.2454  0.1337
23390W        W39199  13.682   6.586  11.550  0.1857 -0.2204 -0.0605
23391W        W39200   9.915   6.690   4.433 -0.0735  0.0044 -0.1335
23392W        W39201  11.629   5.460   1.079 -0.0226 -0.0233  0.2313
23393W        W39202  17.120   1.152   2.541 -0.0897 -0.1989  0.2464
23394W        W39203   3.304   9.003   3.876 -0.1111 -0.1811 -0.0829
23395W        W39204   0.317  15.693  14.903 -0.1982  0.2145  0.0464
23396W        W39205  15.004   9.465  13.184  0.1111 -0.0207 -0.1175
23397W        W39206   1.416   9.680  14.369 -0.1049 -0.3384 -0.2657
23398W        W39207   0.399  15.678  13.660  0.1285 -0.0357 -0.1216
23399W        W39208   6.426  18.450  13.394 -0.1173  0.2579 -0.1069
23400W        W39209   3.295  17.277   4.515 -0.2553 -0.1542  0.1675
23401W        W39210   7.214   5.723   3.539  0.0855 -0.0364  0.1618
23402W        W39211   6.635   0.386   4.825  0.0921 -0.0723  0.1084
23403W        W39212  11.465   1.974  12.090 -0.1864 -0.1009  0.0512
23404W        W39213  10.743  18.010   0.276  0.2097 -0.0326 -0.1411
23405W        W39214   5.415   9.117   1.383  0.1956  0.3698  0.1515
23406W        W39215   4.665  11.156  15.552 -0.1060  0.2109 -0.1063
23407W        W39216   1.846   2.112   0.200  0.1755 -0.0832 -0.0078
23408W        W39217  12.697  14.986   5.602  0.0713 -0.0549  0.0929
23409W        W39218  16.179   7.658   2.291  0.1942  0.1844  0.2418
23410W        W39219  14.052  16.246  11.735  0.0126  0.0657 -0.0199
23411W        W39220  12.060  18.013  11.217 -0.1717 -0.2366  0.1686
23412W        W39221  14.621  15.490  13.825 -0.0582 -0.1885 -0.2386
23413W        W39222   5.549  11.844  15.147 -0.3531  0.2184 -0.0551
23414W        W39223   9.475   7.828   3.998  0.0772 -0.3329  0.0263
23415W        W39224   5.220   6.860   0.818 -0.2101 -0.0346 -0.1918
23416W        W39225   6.936   7.851   2.176 -0.0254  0.1584  0.1230
23417W        W39226  15.467   1.382  15.816 -0.2972 -0.0015  0.1975
23418W        W39227   9.578   9.323   1.114 -0.0919  0.0006  0.1412
23419W        W39228   2.993   7.409   3.590 -0.0265  0.2021  0.3634
23420W        W39229  15.186   5.198   5.808  0.1874  0.2413 -0.0060
23421W        W39230   4.477   9.899   3.740 -0.2011  0.1427 -0.1165
23422W        W39231   9.023  15.408  15.192  0.0593 -0.2226 -0.0495
23423W        W39232   4.931  13.069  12.523  0.1405 -0.0772  0.0024
23424W        W39233   0.030  15.050   5.149 -0.2945 -0.1237 -0.1360
23425W        W39234   1.917   2.008  14.778  0.4861  0.0563  0.0161
23426W        W39235  15.676  11.620   5.560 -0.1709  0.0868  0.5092
23427W        W39236  16.366   3.139   4.014  0.0946 -0.0752 -0.0342
23428W        W39237  14.322   7.615   2.472 -0.1847 -0.0211 -0.1753
23429W        W39238   7.280   5.524  15.358 -0.0700 -0.2294  0.3493
23430W        W39239  16.787  13.267   3.375  0.6215  0.0257 -0.1274
23431W        W39240   6.309  12.536   4.236 -0.1899 -0.0564 -0.0633
23432W        W39241  16.015  10.227  11.878 -0.0709 -0.0118 -0.2411
23433W        W39242  15.425   5.917  13.873 -0.0605  0.0177 -0.0162
23434W        W39243  10.667   3.112  12.422 -0.0417 -0.2141 -0.0210
23435W        W39244  11.405  10.247   0.270 -0.0654  0.2656 -0.1120
23436W        W39245   4.442   4.532   0.269  0.1863 -0.1320  0.2298
23437W        W39246   7.782   7.507  13.896  0.1205  0.3969 -0.3250
23438W        W39247  10.670  11.925  13.319  0.0682  0.0744 -0.0392
23439W        W39248   8.433  10.643   1.288  0.1463  0.2977  0.2528
23440W        W39249   7.524  17.281   3.659  0.1087 -0.1845  0.1307
23441W        W39250   5.890  11.093   1.038 -0.0951 -0.0160  0.0127
23442W        W39251  11.165   4.743  12.246  0.1164  0.0418  0.0676
23443W        W39252  13.470   1.414   2.775  0.0289  0.0180 -0.1981
23444W        W39253   1.118  16.275   0.315  0.0239 -0.0460  0.0122
23445W        W39254   8.217  17.494   2.507 -0.0803 -0.4097  0.1303
23446W        W39255  17.325   7.974   4.205 -0.0770  0.1802  0.0237
23447W        W39256  13.013   4.133   5.768 -0.1746  0.1067 -0.0998
23448W        W39257  12.705   4.580   3.476 -0.1054  0.1297  0.1809
23449W        W39258   6.155  17.624   0.063 -0.2155 -0.1321  0.0052
23450W        W39259  13.558   6.744  10.370  0.0451 -0.3328 -0.2262
23451W        W39260   8.249   2.203   1.642  0.3017  0.1699  0.2463
23452W        W39261   6.369   3.559  11.310  0.1184  0.1533  0.1553
23453W        W39262   4.513   4.093  11.005  0.0921 -0.2602  0.1151
23454W        W39263   3.538  17.941   0.065  0.0505 -0.2209  0.1147
23455W        W39264   9.637   2.292   0.105  0.1333 -0.0887 -0.0752
23456W        W39265  15.155  15.092   1.689  0.0714  0.1071  0.2087
23457W        W39266  17.923   4.344  12.770  0.0115 -0.1970 -0.0740
23458W        W39267   3.391   2.192   4.380 -0.0001  0.0570  0.0771
23459W        W39268   2.527   5.653  14.054 -0.0824  0.2030  0.1506
23460W        W39269  17.428   6.791   2.209 -0.1664 -0.0398  0.2901
23461W        W39270   9.279   5.684   0.336  0.0211  0.0675  0.1652
23462W        W39271  10.560  18.110   1.367  0.0110 -0.1257 -0.3447
23463W        W39272  18.390   3.141   0.399  0.3176 -0.0083 -0.0176
23464W        W39273  15.045   9.471  15.222 -0.0699  0.0022  0.0930
23465W        W39274  10.138   6.776  15.237 -0.2025  0.0165  0.1882
23466W        W39275   7.403  17.529   4.109 -0.0014  0.0509  0.0791
23467W        W39276   8.113  13.638   2.828 -0.1065  0.1062  0.1999
23468W        W39277  12.970  10.170  13.417 -0.0151  0.1446 -0.2914
23469W        W39278   2.020   1.227   4.336  0.1459  0.0199  0.1561
23470W        W39279   9.438   5.764   1.850  0.0284  0.1548 -0.3942
23471W        W39280   8.596   0.245   1.446 -0.2908  0.2591  0.0742
23472W        W39281  10.152   4.205  15.266 -0.0859 -0.5309 -0.0458
23473W        W39282  10.842   3.849  11.828 -0.3525 -0.3057 -0.1873
23474W        W39283   6.220  16.754   3.726  0.3121 -0.0837  0.3595
23475W        W39284  10.737   2.839  11.576  0.0597  0.0622  0.0782
23476W        W39285  16.647   4.281  15.178  0.0855 -0.1072 -0.1766
23477W        W39286  15.801   5.662  13.582  0.1975  0.1003 -0.2604
23478W        W39287  11.383  14.338   6.256  0.0570 -0.3254 -0.1102
23479W        W39288  11.934   1.299  12.846 -0.1324  0.1049  0.1903
23480W        W39289   9.759  17.876   3.330 -0.0566 -0.1259 -0.2855
23481W        W39290   8.196  15.818   2.867 -0.1415 -0.0131 -0.2280
23482W        W39291   4.108   5.105   0.698 -0.0601  0.1629 -0.1160
23483W        W39292   8.203  17.699   3.363  0.0472 -0.1196  0.2468
23484W        W39293  18.039   5.365  12.407  0.2304  0.4348  0.2818
23485W        W39294  11.442  18.450  10.289 -0.1441  0.3854 -0.3000
23486W        W39295   3.946  17.913   3.582 -0.2300 -0.1598 -0.0170
23487W        W39296   6.346   7.462   3.567 -0.0338 -0.1756 -0.2046
23488W        W39297  10.016  14.524   1.815  0.2440 -0.1874  0.0960
23489W        W39298  17.683  15.250   2.305 -0.2446 -0.0573  0.1042
23490W        W39299   8.822  13.718   5.385  0.2770  0.1241 -0.1580
23491W        W39300   2.993   5.731  11.892 -0.3061  0.2957 -0.2699
23492W        W39301   0.942  15.998  15.141  0.1427  0.0437  0.1023
23493W        W39302  16.949   6.765   2.273 -0.0819 -0.0011  0.0448
23494W        W39303   2.081   2.540   4.494  0.1076  0.4611 -0.1182
23495W        W39304   2.806  10.924  15.343 -0.3169 -0.2425 -0.2443
23496W        W39305   0.546  18.238   4.052  0.4021 -0.1007 -0.1896
23497W        W39306  13.833   1.125   3.911 -0.1929 -0.0520 -0.2624
23498W        W39307  14.360  16.774  15.271  0.0650 -0.1906  0.3259
23499W        W39308   1.261  14.584  11.463  0.0946  0.2360 -0.0460
23500W        W39309  15.162   0.141   1.295  0.1801 -0.0590 -0.1993
23501W        W39310   4.246   8.719  14.515 -0.1855 -0.1780  0.3229
23502W        W39311   7.657   8.985  13.002 -0.2708 -0.0033 -0.0983
23503W        W39312  14.212  17.553   0.887  0.1838 -0.0911 -0.3009
23504W        W39313  15.414   0.755  13.197  0.4120 -0.0683  0.0309
23505W        W39314   3.535  10.398  14.417 -0.1991  0.1236 -0.1164
23506W        W39315   7.941   2.544  13.583  0.0763 -0.0255  0.0582
23507W        W39316   0.360   2.954  14.131 -0.1068  0.1525 -0.0083
23508W        W39317   6.158   6.458   3.878  0.1287 -0.0308 -0.0284
23509W        W39318   5.879   9.085   4.261  0.0327  0.0598  0.3619
23510W        W39319  12.924   7.339  13.316 -0.0366 -0.2114  0.3499
23511W        W39320  17.470   0.959   1.200 -0.2549  0.0132  0.2831
23512W        W39321   9.661   8.617   4.521 -0.0779  0.0672 -0.2820
23513W        W39322   9.160   5.756  14.941  0.2094 -0.0389  0.1634
23514W        W39323  16.612  13.404  12.720 -0.0203 -0.0079  0.0187
23515W        W39324   1.257   6.009  13.236 -0.1164 -0.2187  0.1183
23516W        W39325   8.570  12.584   1.568  0.1372 -0.0364 -0.0331
23517W        W39326  14.074  16.002   9.639 -0.0280 -0.0126 -0.1873
23518W        W39327  14.174   5.684   1.459 -0.1075 -0.0599  0.1945
23519W        W39328  14.875   8.337   2.245  0.1563 -0.1362 -0.0944
23520W        W39329   9.960  15.065  12.427  0.0204  0.0270  0.0331
23521W        W39330  16.431  13.409   2.488  0.0444  0.0258 -0.0359
23522W        W39331  14.038   9.210   1.495  0.2690  0.4890 -0.0948
23523W        W39332   5.715   5.000   2.939 -0.3855 -0.2364  0.1442
23524W        W39333  11.461   5.499  11.199 -0.1972 -0.0361  0.0064
23525W        W39334   5.282   2.525  12.379  0.1472  0.0624 -0.1188
23526W        W39335  14.716   9.126   5.233 -0.1919  0.3788  0.0163
23527W        W39336   0.265   6.981  15.326 -0.0400 -0.1228 -0.0668
23528W        W39337  10.283   0.246  10.678  0.1035 -0.0903  0.0356
23529W        W39338  12.346  11.448  14.141  0.1744 -0.2403 -0.0891
23530W        W39339   3.862   1.841   4.744  0.1472 -0.0144  0.0296
23531W        W39340  14.025  12.631  14.690  0.1528  0.0847 -0.3596
23532W        W39341  15.297   6.241   4.964  0.0168 -0.0535 -0.0311
23533W        W39342   5.641  15.296   2.913 -0.1432 -0.1192 -0.0160
23534W        W39343  11.002  14.182  11.967 -0.2195  0.1166  0.0831
23535W        W39344   8.137  13.693   2.025  0.0689 -0.0109  0.1694
23536W        W39345   8.975  13.107  11.914  0.2847  0.0217  0.1685
23537W        W39346   6.554  10.175  10.878  0.2357 -0.0850 -0.2058
23538W        W39347   9.310   6.265   2.183 -0.0628 -0.0145 -0.0903
23539W        W39348  12.883   7.889   0.281  0.2269 -0.1876  0.3749
23540W        W39349   3.007   1.218  12.555 -0.0310 -0.1818 -0.1498
23541W        W39350   4.588  11.519   5.152  0.0021  0.0024  0.0737
23542W        W39351   1.775  10.271   3.286  0.1750 -0.1575 -0.1133
23543W        W39352  10.805   8.526  15.074 -0.0983 -0.2187  0.1187
23544W        W39353  12.579  10.230   0.883 -0.0459  0.3016  0.0246
23545W        W39354  15.943  13.314   2.291  0.0698 -0.0903 -0.1384
23546W        W39355   6.664   0.908  13.039  0.1608  0.0511 -0.1970
23547W        W39356   5.048   5.232   2.198 -0.3497 -0.1325 -0.1594
23548W        W39357  16.991  16.965  14.840 -0.2068  0.1394 -0.0991
23549W        W39358   8.195  16.822   4.866  0.2735  0.2736  0.0055
23550W        W39359  14.569  16.346  12.052 -0.0047 -0.1906  0.1833
23551W        W39360  10.251  14.454   4.936 -0.1138  0.1839 -0.0389
23552W        W39361   7.820  14.140  12.494 -0.2141  0.1035 -0.2817
23553W        W39362  10.119  15.513   3.457  0.1275  0.2856 -0.0522
23554W        W39363   5.327  17.251   2.415 -0.0226  0.0055 -0.2040
23555W        W39364   7.475   5.088  13.259 -0.1346  0.0107  0.1031
23556W        W39365   2.256  16.852  12.685  0.0950 -0.0308 -0.1542
23557W        W39366   9.541  18.282   4.632  0.2795 -0.1708 -0.0810
23558W        W39367   6.821  14.844  13.131 -0.0728 -0.0369 -0.2801
23559W        W39368   6.332  12.974  13.274  0.3110 -0.2258  0.1900
23560W        W39369   2.076   1.036   0.449  0.1528  0.1140  0.0299
23561W        W39370  13.258   1.189  12.930  0.2061  0.1015 -0.1390
23562W        W39371   0.573  14.822  14.762  0.1058  0.0108  0.0109
23563W        W39372  10.698  11.552   0.180 -0.0699 -0.1370  0.1345
23564W        W39373   9.356  16.300   4.629 -0.0090  0.0800 -0.0062
23565W        W39374  10.526   8.629   2.159 -0.6127 -0.0074  0.0402
23566W        W39375   2.548   1.685   2.726 -0.2923 -0.0233  0.0986
23567W        W39376   4.273   1.520   4.942  0.0805 -0.1574 -0.1712
23568W        W39377   3.808  14.331  14.147  0.1030 -0.2405 -0.1258
23569W        W39378   7.006   8.167  12.992 -0.0411  0.2882 -0.1472
23570W        W39379  18.140  13.611  10.432 -0.1799 -0.0521  0.1457
23571W        W39380   5.597   7.540  11.850 -0.0046  0.1206 -0.1928
23572W        W39381   7.951  14.914   0.130  0.2103  0.1562 -0.2153
23573W        W39382  13.202  16.644  15.452  0.2870 -0.2001 -0.1821
23574W        W39383  11.927   1.361  13.390 -0.0277  0.1622 -0.1501
23575W        W39384  16.750  11.097  12.922  0.4663 -0.5002 -0.2369
23576W        W39385   5.885   1.405  13.720  0.2719 -0.1370 -0.0837
23577W        W39386  11.503  17.723   1.632 -0.0243  0.1715  0.2196
23578W        W39387  13.143  11.706  13.021  0.0161 -0.3828  0.2015
23579W        W39388  15.288   1.881   2.947  0.1004  0.1073 -0.0385
23580W        W39389  13.686   7.246  10.872 -0.1486  0.0303 -0.5373
23581W        W39390   4.159  16.085   4.400  0.0836  0.2756 -0.1844
23582W        W39391  11.239   5.820  15.809 -0.3356  0.1477  0.1218
23583W        W39392  15.875   4.921   9.856  0.1944  0.1304  0.0064
23584W        W39393   5.278   8.503   0.186  0.1018  0.1593 -0.0548
23585W        W39394  17.293   0.912   1.738 -0.0871  0.0835  0.1865
23586W        W39395   1.514  14.398   3.008  0.0279  0.0151 -0.2731
23587W        W39396   1.390  12.578  13.191  0.1329 -0.0911  0.1021
23588W        W39397  13.442   4.154   1.110 -0.2164 -0.0720 -0.0060
23589W        W39398   1.140   7.291  10.688  0.1525  0.2275  0.1075
23590W        W39399  16.892   6.296   3.140  0.0027 -0.2569 -0.0299
23591W        W39400   4.878   4.526  12.084  0.0800 -0.1214 -0.1086
23592W        W39401  11.748  16.547   2.569  0.1500 -0.0482  0.3392
23593W        W39402  13.877   8.821  11.075  0.1258 -0.2163  0.1674
23594W        W39403   3.528   7.577   1.157 -0.0356  0.1876  0.1245
23595W        W39404   4.261  12.163  12.036 -0.2030 -0.0804 -0.1145
23596W        W39405   9.621   6.636   1.383  0.0917  0.1472  0.0016
23597W        W39406   6.968  16.811   2.562  0.2335  0.1063 -0.0227
23598W        W39407   4.709   0.072   4.254 -0.2102 -0.1763 -0.1474
23599W        W39408  14.644   9.886  10.793  0.0275 -0.0373 -0.1444
23600W        W39409  17.999  11.381   4.825  0.2773  0.2639  0.0484
23601W        W39410   1.554  14.970   9.776 -0.1897 -0.1674  0.0094
23602W        W39411   4.823   4.552  10.245 -0.3501  0.2316  0.1297
23603W        W39412   1.642   0.578  10.799 -0.0125 -0.2201  0.1800
23604W        W39413   3.396  12.297   0.925  0.3588  0.2616  0.1101
23605W        W39414  12.314  12.134   3.397 -0.1851  0.1777  0.1772
23606W        W39415  12.804   3.367  11.038  0.0291  0.0415  0.4274
23607W        W39416   2.360  15.539   3.893 -0.0874 -0.2071  0.0750
23608W        W39417  14.640  18.121  12.285 -0.2069  0.0862 -0.2605
23609W        W39418   6.554  12.462   1.692 -0.1338  0.1786  0.2144
23610W        W39419  13.960  15.361   4.509  0.0012  0.0013 -0.3306
23611W        W39420  13.055  17.160  14.927 -0.1540  0.4864 -0.0443
23612W        W39421   3.320   6.833  14.115 -0.2658 -0.0435  0.2710
23613W        W39422   6.211   6.930  15.684 -0.0458 -0.0179 -0.0571
23614W        W39423   6.970   3.917  11.559 -0.0059 -0.2927  0.0285
23615W        W39424   9.972   4.245   2.872 -0.0184 -0.2517  0.0748
23616W        W39425   7.337  15.756   2.145  0.2829 -0.1684 -0.1319
23617W        W39426   8.210   1.500   3.287  0.0997 -0.3678 -0.0331
23618W        W39427  16.313  17.580   4.820 -0.2453  0.0576 -0.0556
23619W        W39428   0.187  18.179  13.441  0.3207 -0.3769 -0.0161
23620W        W39429  13.333   1.518   6.035 -0.0111  0.2096  0.1148
23621W        W39430  10.921   0.353   0.019  0.1156  0.0913 -0.0200
23622W        W39431   9.378   4.930   2.140  0.0263  0.0076  0.1250
23623W        W39432   3.394   0.716   1.160 -0.1021 -0.0303  0.0407
23624W        W39433   1.638   0.109  13.037 -0.0719 -0.3484  0.0315
23625W        W39434  16.055   6.943   1.528 -0.0059 -0.0258  0.0689
23626W        W39435   8.202   2.229   4.061  0.0865 -0.2385 -0.3419
23627W        W39436   3.256   3.316   9.550 -0.1405 -0.1948 -0.0586
23628W        W39437   8.794  14.177   4.593  0.3362  0.3278 -0.0383
23629W        W39438   8.349  12.818  14.139 -0.2076  0.0839  0.1076
23630W        W39439  12.770  12.606  11.749 -0.1759  0.0691  0.1577
23631W        W39440   8.972   4.392  10.219  0.1424 -0.0970 -0.0586
23632W        W39441   3.804  11.230  13.117  0.2120  0.0222  0.3514
23633W        W39442   4.491  14.642  13.324  0.0910 -0.0982 -0.1715
23634W        W39443  10.957   7.133  11.094  0.1742 -0.0992  0.1891
23635W        W39444   2.087  17.928   4.635 -0.0104  0.1645 -0.0120
23636W        W39445   5.442  11.926  11.148  0.0618  0.1927  0.3670
23637W        W39446  13.087   8.798  13.426  0.4392 -0.3168 -0.2444
23638W        W39447   9.715  12.422  15.487 -0.1049 -0.1718  0.0164
23639W        W39448   3.780   1.032   1.376  0.1523  0.2260  0.0473
23640W        W39449  14.881   5.981   1.161  0.1082  0.1479 -0.0711
23641W        W39450   1.827  18.130   3.168 -0.2175 -0.2174  0.1054
23642W        W39451  11.546  18.238  15.853 -0.2401  0.2955  0.0556
23643W        W39452   8.462   4.792  14.005  0.0754 -0.2359  0.0585
23644W        W39453   8.361  10.846   1.768 -0.1102 -0.0322  0.0897
23645W        W39454   5.699  18.206  12.988 -0.2643 -0.0001  0.0395
23646W        W39455  18.141  11.923   5.854  0.2141  0.0416  0.0212
23647W        W39456   2.004   1.598   0.403  0.1021 -0.0050 -0.1903
23648W        W39457   5.064   1.175   0.004  0.1079 -0.2530 -0.1749
23649W        W39458  13.856  11.260  15.826  0.1441 -0.1134 -0.0945
23650W        W39459   7.520   2.839  15.296 -0.1234 -0.3900 -0.1993
23651W        W39460  11.010   1.970  11.839 -0.0436  0.1812  0.1680
23652W        W39461  13.782   0.150   2.517 -0.0592  0.4155  0.0123
23653W        W39462   0.598   1.873   0.019  0.2727 -0.1537 -0.0491
23654W        W39463   4.055   8.832  12.174  0.1787  0.1436 -0.1548
23655W        W39464  14.687   7.985  14.788  0.1916 -0.2149 -0.0144
23656W        W39465   2.038  14.789  11.938 -0.0677 -0.0467  0.1778
23657W        W39466  18.343   7.003  12.591  0.1466 -0.0329 -0.1560
23658W        W39467   4.887   1.793   2.925  0.2283  0.0447  0.2149
23659W        W39468   2.495  17.284  14.878  0.2177 -0.2228 -0.3454
23660W        W39469  10.921   3.670  14.907 -0.0076  0.2784 -0.1981
23661W        W39470   0.795  15.855   1.525 -0.0896  0.1628  0.0298
23662W        W39471   4.314   9.363   3.675  0.0897  0.0851  0.2754
23663W        W39472  17.060  10.282   0.488  0.1260 -0.2792 -0.0478
23664W        W39473   4.493   3.214   3.924  0.5619  0.1724  0.0415
23665W        W39474  10.071  13.423   5.227 -0.3883 -0.0891 -0.2451
23666W        W39475   4.846   2.860   1.998  0.3168  0.1090  0.1203
23667W        W39476  10.227   9.569   0.037 -0.0644  0.0639  0.2719
23668W        W39477   7.543   7.052  10.417 -0.1409 -0.2776 -0.1304
23669W        W39478   4.126   2.163  11.666  0.0459  0.0492  0.0206
23670W        W39479  12.953   4.279   1.377  0.0816 -0.1567  0.0239
23671W        W39480   8.794   0.113   3.929 -0.1611  0.0334 -0.1585
23672W        W39481   0.080  18.421   3.902  0.0598 -0.0870  0.0938
23673W        W39482  15.411   2.400   0.184  0.1745  0.1584 -0.3685
23674W        W39483   9.754   4.547   1.496  0.2174 -0.0386  0.1649
23675W        W39484   8.184  16.012  11.129  0.1508 -0.2052  0.2361
23676W        W39485   0.823   7.198   3.795  0.1458  0.0009  0.0480
23677W        W39486  15.386  16.476   2.782 -0.0305  0.2607  0.2148
23678W        W39487   7.331   9.322  14.882  0.0557  0.1904 -0.3839
23679W        W39488  10.181   0.284  10.055  0.2738 -0.0086 -0.2415
23680W        W39489   6.315  13.811   4.666  0.1164  0.2892  0.2409
23681W        W39490   9.226  10.763  11.690  0.3559  0.4076 -0.4449
23682W        W39491  11.683   7.301  12.542 -0.0310 -0.2166  0.1114
23683W        W39492   6.927  10.984   3.862 -0.2953  0.3025  0.0136
23684W        W39493  14.505   0.247  15.139  0.0246 -0.2189  0.2112
23685W        W39494   0.580   2.574   0.655  0.3568  0.0187 -0.0265
23686W        W39495  10.799   6.098   2.183  0.0273 -0.0678 -0.2005
23687W        W39496  16.654  10.591   3.901  0.1779  0.1526  0.0385
23688W        W39497   8.136   1.306  14.848 -0.0724 -0.2325 -0.0625
23689W        W39498  15.631  13.480   3.839 -0.3056  0.0723 -0.0929
23690W        W39499   7.701   9.996  14.701 -0.0511 -0.3397  0.0513
23691W        W39500  15.675  18.157  11.664  0.1260  0.0794  0.3458
23692W        W39501  10.509   3.157   1.775 -0.0891  0.0894  0.2836
23693W        W39502  17.375  14.108  11.414  0.0676  0.0303 -0.0262
23694W        W39503  12.194   9.363   2.594 -0.0972 -0.1246 -0.1306
23695W        W39504  16.407  15.235  12.598 -0.1563  0.0500 -0.0339
23696W        W39505   3.444   0.641  15.108 -0.0788  0.0934  0.1742
23697W        W39506   2.403   2.215  15.223 -0.2458 -0.0664 -0.0972
23698W        W39507  16.046  12.624   4.843 -0.0045 -0.0488 -0.1208
23699W        W39508   6.426  12.141  10.962  0.1166  0.0136  0.1369
23700W        W39509  16.380   4.022   1.506 -0.0892  0.0659 -0.0806
23701W        W39510  12.557  14.184  13.423 -0.0587 -0.0993  0.1495
23702W        W39511   8.289   5.248   3.853  0.1356  0.4147  0.3222
23703W        W39512  13.624  12.375  13.920 -0.1865 -0.0234  0.1022
23704W        W39513   5.004  16.270  13.308  0.2093 -0.1184 -0.1368
23705W        W39514   1.657  17.060   0.415 -0.2078 -0.0554  0.3249
23706W        W39515   5.254  12.170   5.240  0.4436  0.3098  0.1114
23707W        W39516  12.298  15.920   4.694 -0.1030 -0.1508 -0.0864
23708W        W39517  15.461  14.775   4.148 -0.2166  0.0593 -0.1905
23709W        W39518  11.331  10.363  11.152 -0.2268  0.1588 -0.3910
23710W        W39519   4.461   4.376  10.582 -0.1503  0.0536  0.0446
23711W        W39520  13.640   7.937  11.504 -0.0155  0.2052  0.2282
23712W        W39521   0.571  11.689  15.550  0.2931  0.2148  0.1185
23713W        W39522   4.525  13.297  10.251 -0.0990 -0.1206  0.0257
23714W        W39523   8.252   1.450  15.484  0.0042 -0.0477 -0.2967
23715W        W39524  18.448   6.912  14.598  0.1877  0.1215  0.0890
23716W        W39525   2.163  12.588   2.348  0.1382 -0.3839 -0.0280
23717W        W39526   2.220   9.558  11.332 -0.0149  0.1577  0.2438
23718W        W39527  15.839   6.579  14.527  0.2345  0.3287 -0.3700
23719W        W39528   0.056   5.497  11.547  0.0413  0.0123 -0.0003
23720W        W39529  17.576   4.849  12.805  0.0795  0.0300  0.1786
23721W        W39530   0.708   8.151  10.531 -0.0316  0.0751  0.3414
23722W        W39531  13.866   1.238  11.691  0.0885 -0.1798  0.0318
23723W        W39532  11.067   9.450  15.535 -0.1840  0.0290  0.1582
23724W        W39533   1.123   1.947   4.219  0.1614  0.2303  0.0337
23725W        W39534   5.009   8.632  11.417  0.1544 -0.0427 -0.1901
23726W        W39535  18.288   9.029  12.920  0.0841 -0.0588 -0.1343
23727W        W39536   6.108   8.214   5.554  0.4264  0.1764 -0.2855
23728W        W39537   1.143  16.256  13.979 -0.2723  0.1316  0.2886
23729W        W39538  10.374   0.256   3.773  0.1199 -0.1444  0.4724
23730W        W39539  12.831   2.162   4.979  0.0282 -0.1843  0.2638
23731W        W39540  15.126  16.861   3.105  0.3467 -0.0448 -0.1450
23732W        W39541  14.162   5.861   0.500  0.2256  0.0753 -0.1475
23733W        W39542  12.084  17.741   3.236  0.1907 -0.0138 -0.0769
23734W        W39543   1.581   9.784   1.220 -0.0029 -0.2401 -0.1189
23735W        W39544  17.215   7.646   1.933 -0.1779 -0.1300  0.1666
23736W        W39545  17.384   5.095   5.523 -0.1341 -0.0194  0.2645
23737W        W39546  17.443  11.094   1.414 -0.3798  0.1062 -0.0337
23738W        W39547   8.875   4.111   4.483  0.0663 -0.0076 -0.1852
23739W        W39548   3.679   9.309   0.940  0.1974 -0.2397 -0.2402
23740W        W39549   2.632   5.166  15.797  0.1561 -0.2494  0.1129
23741W        W39550   1.758  13.116  15.213 -0.1052  0.0127 -0.1804
23742W        W39551  14.832   4.205   5.902 -0.0831 -0.0433 -0.0008
23743W        W39552  13.235   3.446  14.160  0.0919 -0.2815  0.2192
23744W        W39553   0.366   3.568   1.622  0.3171  0.1575  0.2036
23745W        W39554  17.194   3.727  14.265 -0.3028  0.0480  0.2610
23746W        W39555   0.646   0.470   3.371 -0.1173  0.1303  0.1544
23747W        W39556   4.902  15.241  11.567  0.0952 -0.0167  0.1102
23748W        W39557  13.268  17.286   4.575  0.1658  0.1681  0.1246
23749W        W39558   0.980   5.525  13.271 -0.0860 -0.0169  0.0045
23750W        W39559  11.162   1.563   2.187 -0.0399  0.1323 -0.0609
23751W        W39560   0.595   5.157  15.402  0.1491  0.0477  0.0672
23752W        W39561   9.954   0.943   2.971 -0.1276 -0.0764  0.0295
23753W        W39562  12.133   6.968   1.206 -0.1638 -0.4986  0.2366
23754W        W39563  12.877  16.116  13.230 -0.3118  0.0254  0.1572
23755W        W39564   4.325  15.104   1.669  0.3124 -0.1657  0.0095
23756W        W39565  13.572   3.755  15.575  0.2101 -0.0091  0.0366
23757W        W39566   3.855   4.759   4.914  0.0769  0.2782 -0.0443
23758W        W39567   7.432   5.546   1.750 -0.0021  0.0342 -0.0554
23759W        W39568  15.278   4.702  15.400 -0.0593  0.1295 -0.1049
23760W        W39569  16.353  10.685  14.402 -0.0091  0.0213  0.1259
23761W        W39570   8.546   9.140  15.725 -0.0078  0.0149 -0.0707
23762W        W39571  15.285  10.260   4.957 -0.1000 -0.3467  0.0968
23763W        W39572   5.023  16.676   0.141 -0.1698  0.0027  0.0832
23764W        W39573   2.541   5.502  11.226  0.0353  0.1281  0.0721
23765W        W39574   4.811   0.748  11.179  0.2373  0.0207  0.0364
23766W        W39575  17.084   3.057   4.998 -0.2006  0.2075  0.0483
23767W        W39576   9.744   4.157   0.304  0.1361  0.1344 -0.3587
23768W        W39577  17.332  10.446  13.544  0.0937 -0.0761  0.1924
23769W        W39578   1.735  15.109   5.200 -0.1794  0.0174 -0.0030
23770W        W39579  12.786   3.417  15.681 -0.1326 -0.1568 -0.1317
23771W        W39580   6.084   5.922  15.763  0.2247 -0.2699 -0.2742
23772W        W39581   4.548   7.642   0.820 -0.0273  0.4768 -0.0183
23773W        W39582  14.119  17.586   3.364 -0.1981  0.1721 -0.0805
23774W        W39583   9.990  17.231  14.105  0.0894 -0.0445  0.2719
23775W        W39584  11.524  15.958  12.232 -0.1821  0.3104 -0.0667
23776W        W39585   0.496   8.366   1.837  0.2909 -0.4018  0.2428
23777W        W39586   0.597   1.048   0.646 -0.0954  0.0893 -0.1780
23778W        W39587  17.233  18.041  10.808 -0.0866  0.2265 -0.2602
23779W        W39588   5.100   2.106   4.287 -0.0555 -0.0529  0.0586
23780W        W39589   8.323  13.679   0.721 -0.2130 -0.2434 -0.1740
23781W        W39590   3.715  17.413  14.418  0.1506  0.0081  0.1585
23782W        W39591   0.721  16.594   4.763  0.2475  0.1199  0.1239
23783W        W39592   3.653  13.833   1.293  0.1690 -0.2340  0.4017
23784W        W39593  11.617   6.159  15.797 -0.0263  0.0114 -0.1932
23785W        W39594   2.025  18.090  15.088 -0.4306  0.1874 -0.0311
23786W        W39595   8.663   5.357  15.442 -0.1891  0.1888 -0.2070
23787W        W39596   5.892   3.405  14.121  0.0791  0.0008  0.0120
23788W        W39597  15.577   8.020  14.556  0.0103  0.0537 -0.0116
23789W        W39598  10.056   8.510  10.964 -0.0717  0.1240 -0.0511
23790W        W39599   7.880   0.971   4.899 -0.3410  0.0593 -0.1058
23791W        W39600  14.141   2.364  13.736  0.1896 -0.1401 -0.2969
23792W        W39601   4.408  12.479  15.597  0.2502  0.1810 -0.1318
23793W        W39602  11.344   4.795   5.392  0.0485  0.1621 -0.0486
23794W        W39603   1.044   3.930  11.569  0.1684 -0.2554  0.0195
23795W        W39604  15.854   0.163   4.759 -0.0149 -0.1351  0.2227
23796W        W39605  15.816  13.491   1.833  0.3880 -0.1778  0.2670
23797W        W39606  13.730  13.921   1.379  0.3302  0.0878 -0.1993
23798W        W39607   4.185  11.242   2.218  0.1145  0.0513  0.1531
23799W        W39608   1.083   4.904  15.007  0.2027 -0.2944  0.1009
23800W        W39609  16.638  13.005   0.447 -0.1547 -0.4367  0.1919
23801W        W39610   5.518   6.207  14.292 -0.1998 -0.0708 -0.1767
23802W        W39611  13.311   8.885  13.843  0.5069 -0.0599  0.2414
23803W        W39612   1.474   1.865   2.951  0.2310  0.0828 -0.2707
23804W        W39613  13.887   1.469   3.499 -0.0119  0.1115 -0.0016
23805W        W39614   8.180  10.615  14.243 -0.4051 -0.2694  0.0404
23806W        W39615   2.959  16.187   2.628  0.1110 -0.0590 -0.1010
23807W        W39616  11.409   3.977   0.495 -0.0324 -0.0861  0.2369
23808W        W39617   8.264   3.355   1.570  0.1254  0.0917  0.1912
23809W        W39618   8.538   5.420  14.819 -0.0224  0.1229 -0.0023
23810W        W39619  13.230   7.384   2.200 -0.5029  0.1774 -0.1060
23811W        W39620   2.549  10.356  11.313  0.1461  0.1330  0.2417
23812W        W39621  13.515   6.352  11.100  0.2404 -0.2381  0.3153
23813W        W39622   7.086   1.522   1.673 -0.1790 -0.0022 -0.1437
23814W        W39623  11.436  13.903  12.746  0.0071 -0.1467  0.1744
23815W        W39624  11.358   4.466  10.255 -0.3586  0.0851 -0.3565
23816W        W39625   6.718  18.007   0.390  0.1992  0.1942  0.2323
23817W        W39626   1.714   5.804   4.250  0.0244 -0.0899  0.1847
23818W        W39627   4.528   6.896  14.902 -0.0732  0.3555  0.0674
23819W        W39628  10.998  12.127   0.429  0.2707  0.1440  0.0375
23820W        W39629  16.853  15.411  14.331 -0.1207 -0.0048 -0.0518
23821W        W39630   2.038  13.764  10.780 -0.0279  0.0487  0.0145
23822W        W39631   7.781  13.998   3.516 -0.2484  0.1308  0.3822
23823W        W39632   3.287   1.246   1.176  0.0858 -0.3593 -0.0483
23824W        W39633   3.967   1.708  11.408 -0.2097  0.3464  0.0952
23825W        W39634   7.412   6.616  13.190 -0.2992  0.2580  0.0722
23826W        W39635   0.205  11.219  12.305  0.0098  0.2495 -0.1167
23827W        W39636  13.977  16.344   1.270  0.0031 -0.0211  0.0082
23828W        W39637  11.476   5.413  14.904  0.1871  0.1007 -0.2498
23829W        W39638  12.771   5.841  13.717 -0.2882  0.0006 -0.0251
23830W        W39639  18.150   2.936  14.577  0.1476  0.0350 -0.0827
23831W        W39640  11.952  16.646   0.719  0.1552 -0.2580 -0.2710
23832W        W39641  16.894   3.462   5.175 -0.4210 -0.0290  0.0892
23833W        W39642   2.914  16.426  13.817  0.0728  0.0156  0.0132
23834W        W39643  12.972  16.664   3.864 -0.1939 -0.2174 -0.0108
23835W        W39644  15.679   8.354  15.272  0.1162  0.1226  0.0006
23836W        W39645  13.762   7.085  15.010  0.0595 -0.2328 -0.1149
23837W        W39646  17.450   8.307   0.644 -0.1098 -0.2306 -0.0538
23838W        W39647   7.106   0.782  14.292  0.1177 -0.0229 -0.1957
23839W        W39648  14.615  15.819   1.399 -0.2330 -0.1608 -0.1358
23840W        W39649   7.609  10.372  15.692  0.1093 -0.0301 -0.2279
23841W        W39650  10.886   6.119   0.820 -0.1335 -0.2108 -0.1339
23842W        W39651  13.354  13.602   3.922 -0.0610 -0.2238 -0.0020
23843W        W39652  15.712  10.238  11.456 -0.0233  0.0263  0.0309
23844W        W39653  14.130  14.619   0.869 -0.0854  0.2058  0.1292
23845W        W39654   7.684  18.439  15.168 -0.2707 -0.1199 -0.0527
23846W        W39655  15.111   4.614   0.175  0.0662 -0.1073  0.0974
23847W        W39656  16.851  14.751   3.436  0.1084  0.0101  0.1387
23848W        W39657  12.730  12.395  15.087 -0.0986  0.1614 -0.0213
23849W        W39658   1.550  18.334  14.892 -0.0781  0.1554 -0.0807
23850W        W39659  16.834  10.271   5.305  0.1714 -0.1718 -0.2085
23851W        W39660  16.114   8.177  11.041  0.1471  0.2872 -0.0635
23852W        W39661  13.460  10.285  12.297 -0.1818 -0.1282 -0.1750
23853W        W39662   1.280   5.439   4.427  0.0177  0.1728 -0.3300
23854W        W39663   4.560  14.852   3.113 -0.1114  0.0629 -0.1950
23855W        W39664  16.246   3.915   4.121  0.1778  0.0400  0.1403
23856W        W39665  11.258   1.508  13.164  0.0572 -0.0502  0.0896
23857W        W39666  17.068  12.531   3.800  0.1395  0.0219  0.0256
23858W        W39667  11.415  16.430  13.571 -0.1613  0.3166 -0.0228
23859W        W39668   4.233   0.805   2.271  0.1083  0.2020 -0.1156
23860W        W39669  16.437   1.018  14.080 -0.2124 -0.1837  0.1286
23861W        W39670  10.498  12.025   4.464  0.0169  0.0672 -0.1210
23862W        W39671   4.433   6.355  10.815  0.1310 -0.0870 -0.3335
23863W        W39672  14.667  13.023  15.837  0.1403  0.0733 -0.1739
23864W        W39673  17.641   7.194  13.853 -0.2976  0.0894  0.0535
23865W        W39674   4.702   1.840   3.973  0.0132 -0.0665 -0.2527
23866W        W39675  13.317   2.180   1.728 -0.2924  0.3931 -0.0239
23867W        W39676  10.837   8.438   3.277  0.0205  0.1426 -0.1311
23868W        W39677  15.959  13.838  11.941 -0.1382  0.0447  0.1293
23869W        W39678   7.222   0.091   5.400 -0.0443  0.3544 -0.1821
23870W        W39679  18.047   9.584   5.540 -0.4745 -0.0729  0.1829
23871W        W39680  16.918  11.697  13.868  0.1874 -0.0042  0.0204
23872W        W39681  14.469   0.698  14.697  0.2366  0.0989  0.2061
23873W        W39682   4.185  13.401   1.020 -0.2002  0.1732 -0.1672
23874W        W39683   4.991   1.036   2.541  0.0142  0.1174  0.2802
23875W        W39684   0.757   1.430  15.731 -0.2136  0.1312 -0.0965
23876W        W39685   5.779   7.360   1.809 -0.3387 -0.2748  0.1338
23877W        W39686  13.910   1.382   2.510 -0.2150  0.1169 -0.1405
23878W        W39687   3.181   6.907   3.539  0.0275 -0.1398 -0.2188
23879W        W39688   5.386   8.415   4.569  0.1016 -0.1946 -0.0436
23880W        W39689  10.925  10.476  14.023  0.2169  0.2081 -0.0199
23881W        W39690  13.724  12.711   0.205  0.1105  0.1846 -0.0513
23882W        W39691   8.316  17.739   4.045  0.2405  0.0303  0.0050
23883W        W39692  13.189   5.847   4.364 -0.0040 -0.2473 -0.0773
23884W        W39693  16.003   5.287   1.630  0.0579  0.0055  0.0255
23885W        W39694   6.181   5.519  11.014 -0.0279  0.0644 -0.1253
23886W        W39695   6.974  12.738   1.942  0.3139 -0.3791 -0.1528
23887W        W39696   0.418   0.753   3.020 -0.3272 -0.1019 -0.0320
23888W        W39697  16.604   0.805   4.770  0.0310  0.1060 -0.2635
23889W        W39698  16.642  10.332   4.864  0.3727  0.0277 -0.0558
23890W        W39699   1.159   5.904  15.377  0.1965 -0.1242  0.1966
23891W        W39700   4.253   4.142   1.487 -0.1692 -0.1531  0.0355
23892W        W39701  12.647   1.279   5.352  0.0968  0.3162  0.0383
23893W        W39702  11.835  10.725   2.697  0.0092  0.0385 -0.0154
23894W        W39703  12.968   0.812  11.788 -0.0042  0.1657  0.1354
23895W        W39704   3.726   5.961  15.045 -0.1065  0.0063 -0.0031
23896W        W39705   3.373   7.906   3.994 -0.0262 -0.0556 -0.1204
23897W        W39706   1.047   5.400  14.468  0.2037  0.1468  0.4354
23898W        W39707   4.736   7.065   3.547  0.0663 -0.1834  0.0698
23899W        W39708  11.702   5.499   3.986  0.0180  0.1911  0.2233
23900W        W39709  18.356   3.088  11.126  0.1259 -0.1757 -0.0109
23901W        W39710   2.789   2.207   4.805  0.1422 -0.0876 -0.3639
23902W        W39711   8.654   5.074   0.909  0.0902 -0.0874 -0.0362
23903W        W39712   6.740  15.326   3.135 -0.1363 -0.5153 -0.1221
23904W        W39713  12.163  11.749   1.822  0.1461 -0.0085 -0.1953
23905W        W39714  16.321   8.717   1.438 -0.1435 -0.1705  0.0904
23906W        W39715   1.695  15.990  12.669 -0.1373  0.2159  0.1078
23907W        W39716   3.674  18.414   5.059  0.1369  0.1409  0.0054
23908W        W39717  11.027  15.717  11.537 -0.2247  0.1577 -0.1630
23909W        W39718   1.655   1.325   3.670 -0.3619  0.1332  0.2830
23910W        W39719   6.198   7.744  15.381  0.0804  0.0558  0.1861
23911W        W39720   8.098   8.712   0.350  0.0727 -0.0786  0.3485
23912W        W39721  15.943  13.800  15.753  0.0959  0.4562  0.0575
23913W        W39722  10.631  13.452  14.412  0.1707  0.2229 -0.0174
23914W        W39723  10.518   8.086   5.304  0.1025 -0.0268 -0.0544
23915W        W39724   6.554   9.894   3.415 -0.0762  0.0647  0.2842
23916W        W39725   0.768   5.801   1.288  0.1600  0.2363 -0.0665
23917W        W39726   8.073   6.462   1.344 -0.0633  0.0655 -0.1605
23918W        W39727   4.297  10.268  15.659 -0.1312  0.1581  0.3139
23919W        W39728   9.456   5.840   2.392 -0.2140 -0.3483  0.2020
23920W        W39729   3.527   2.014  12.516 -0.1155  0.0512  0.0521
23921W        W39730   0.321   9.710  12.620  0.1768 -0.0714 -0.3152
23922W        W39731   3.031  18.181   9.656  0.2781  0.1514  0.0357
23923W        W39732   0.400  11.705  10.804 -0.0610  0.0692 -0.1022
23924W        W39733   2.361   7.514  11.376  0.0156 -0.4355 -0.1340
23925W        W39734   5.570   0.359  12.056 -0.0559 -0.2374 -0.4221
23926W        W39735  12.462  13.896  10.914 -0.2325  0.0332 -0.0231
23927W        W39736  17.464   3.521  11.030  0.0170  0.1540  0.1293
23928W        W39737   4.028  14.784   2.359 -0.2361  0.2290 -0.0422
23929W        W39738  14.140  15.455   2.181 -0.1173  0.0740 -0.1670
23930W        W39739   2.626   5.594   3.753 -0.0749  0.3341  0.0176
23931W        W39740   4.931   3.410  15.355 -0.3318  0.2387  0.0636
23932W        W39741  15.448   0.189  14.091  0.1450  0.0594  0.0929
23933W        W39742  15.548  11.761   2.150  0.1089  0.0325  0.0408
23934W        W39743   7.891  16.278   0.606  0.0475  0.0972 -0.1914
23935W        W39744  11.272  12.912   0.149  0.0074  0.1024 -0.1759
23936W        W39745   6.181   4.093   3.935 -0.1905  0.0814  0.0575
23937W        W39746   9.769  13.786  13.792  0.0217  0.0610  0.0590
23938W        W39747   6.407  18.406   4.811  0.0186  0.0216 -0.0210
23939W        W39748  16.010   7.155   0.022 -0.1204  0.2047 -0.1193
23940W        W39749   5.886  17.746   3.626 -0.0904  0.1045  0.1964
23941W        W39750   8.006   2.743  14.030  0.0439 -0.0136 -0.0499
23942W        W39751  17.068   8.552  13.700 -0.2187  0.1168  0.0720
23943W        W39752   7.305   9.364   1.291  0.1313  0.0720  0.1189
23944W        W39753  16.776  16.105  12.503  0.1126 -0.1375  0.2940
23945W        W39754  12.639   1.002   0.378 -0.0622  0.3276 -0.2255
23946W        W39755  10.655   9.377  11.618  0.0547  0.0619  0.1788
23947W        W39756  17.709   2.788   1.392 -0.1207  0.0820 -0.0078
23948W        W39757   5.903  14.859  14.609  0.0723 -0.0423 -0.0794
23949W        W39758   5.152  10.929   0.776 -0.1431 -0.0682  0.3142
23950W        W39759  15.612   1.886  13.251 -0.0614 -0.1465 -0.0232
23951W        W39760   5.574  14.815   5.378 -0.4337  0.5323 -0.1213
23952W        W39761  16.724   5.003  15.292 -0.4038 -0.0032  0.0254
23953W        W39762   9.441   1.129   2.784 -0.0109  0.1237 -0.0709
23954W        W39763  11.353   1.158  11.133 -0.1810 -0.3542  0.1427
23955W        W39764  16.205  13.089  11.987 -0.1408 -0.1708 -0.0538
23956W        W39765  12.544  10.065   3.818  0.0564 -0.1611 -0.0363
23957W        W39766   0.411   9.788  10.204 -0.0608  0.3268  0.2452
23958W        W39767   4.828   7.689  12.398 -0.3874 -0.1863 -0.2328
23959W        W39768  17.384  13.765  12.277 -0.0148  0.0079  0.1417
23960W        W39769  12.528  17.642  11.183  0.0034 -0.1932 -0.0086
23961W        W39770   8.901  12.392   2.898  0.1270 -0.3108 -0.0232
23962W        W39771  15.898  16.990   3.928 -0.1640 -0.0914 -0.1764
23963W        W39772   2.505   2.760   3.521 -0.2830  0.1879 -0.1616
23964W        W39773   3.348   5.018   4.733 -0.0848 -0.0313  0.0646
23965W        W39774   6.591   8.407   0.192 -0.0616 -0.0342 -0.0876
23966W        W39775   8.364   2.366   5.122 -0.0296 -0.0962 -0.3036
23967W        W39776  15.162   4.023   5.101 -0.3619  0.4949  0.3501
23968W        W39777   3.041  10.456  11.812 -0.1447  0.0073  0.2216
23969W        W39778   7.919  10.500   0.239  0.0967 -0.3304 -0.0135
23970W        W39779   4.298  17.775   3.096 -0.1092 -0.2710  0.0451
23971W        W39780   0.089   7.469   2.131  0.0656  0.0441 -0.0036
23972W        W39781   8.232   2.727  15.185  0.0185  0.1402 -0.2247
23973W        W39782  17.589   9.541  11.938  0.3660  0.0924 -0.0032
23974W        W39783   5.223   3.247  12.518 -0.2108 -0.1291  0.2615
23975W        W39784   6.876  10.518  10.787  0.2177  0.0997  0.0641
23976W        W39785  13.404   5.536   2.376 -0.0041 -0.0136  0.1672
23977W        W39786  14.253  13.992   5.325  0.2213 -0.0897 -0.3173
23978W        W39787  16.942   8.027   5.140  0.0343  0.0130  0.0503
23979W        W39788  16.695   5.518  15.555  0.0802  0.0526 -0.1315
23980W        W39789   8.737   1.024   0.973 -0.1458  0.0350 -0.0262
23981W        W39790  17.482  18.007   4.286  0.1128 -0.0732  0.1807
23982W        W39791   4.209   8.314  14.232  0.2102  0.2663  0.0823
23983W        W39792   9.562   0.299  14.179  0.1173  0.1605 -0.3426
23984W        W39793   6.047  18.305  10.645  0.1077 -0.3407 -0.0359
23985W        W39794   1.576   1.537  12.912 -0.2249 -0.2042 -0.0885
23986W        W39795  18.036   1.864  12.988  0.0869 -0.1027  0.2875
23987W        W39796   9.767   5.583   0.210 -0.1072 -0.1823 -0.2372
23988W        W39797   9.241   1.991   0.222  0.0612 -0.1237  0.0914
23989W        W39798  12.834  14.436   3.244 -0.1366 -0.0764  0.0027
23990W        W39799   8.567  13.221  11.672 -0.0086 -0.0413  0.1047
23991W        W39800  16.778  16.252   4.243  0.0456  0.0320  0.0629
23992W        W39801  17.580   3.787  14.927  0.0119 -0.1164  0.0325
23993W        W39802   3.313  16.312   2.333  0.2206  0.0257 -0.1082
23994W        W39803   4.607   6.334   5.293 -0.0011  0.1876 -0.0191
23995W        W39804   9.948  15.230   0.218 -0.1647 -0.2484 -0.0516
23996W        W39805  14.279  14.104   2.558  0.1357 -0.4094 -0.1747
23997W        W39806   9.902   2.359  11.940  0.3737 -0.0038 -0.1837
23998W        W39807   7.923   3.717  10.879  0.2220  0.2291 -0.0347
23999W        W39808   4.868   0.751   1.056 -0.3158  0.1587  0.3956
24000W        W39809  14.802   3.964   1.602  0.1141 -0.2670 -0.3011
24001W        W39810  10.426  11.274   2.077  0.1684  0.0387 -0.2535
24002W        W39811   2.038   7.485  15.838  0.3400  0.3322  0.3526
24003W        W39812   4.409   5.736  11.861  0.1351 -0.1840  0.1114
24004W        W39813   5.411   5.714  14.653  0.1311 -0.2479  0.0891
24005W        W39814   8.498  14.243  12.983 -0.0540 -0.3449  0.0742
24006W        W39815   2.996   2.189  12.537  0.2291  0.3223  0.0103
24007W        W39816   0.334  15.980  14.095 -0.0211 -0.2654  0.2327
24008W        W39817   8.195   4.512  10.381 -0.1120 -0.1442 -0.0755
24009W        W39818   7.306   1.591   4.271 -0.0105 -0.0900 -0.1924
24010W        W39819  11.744  12.858  15.633 -0.1107  0.0409 -0.0382
24011W        W39820   3.751  14.032  13.712  0.1116  0.0872  0.1760
24012W        W39821   5.965  17.241  11.211  0.1861 -0.3183 -0.1275
24013W        W39822   6.495   1.051   3.012 -0.1212  0.2390 -0.2151
24014W        W39823  17.897  16.003   1.874 -0.2907 -0.1740  0.0161
24015W        W39824   4.828  11.072   0.437 -0.2351 -0.1949  0.0747
24016W        W39825   1.313   6.513  12.084  0.0473  0.2345 -0.1023
24017W        W39826  14.407   8.365  11.660  0.0891 -0.0570  0.1315
24018W        W39827  17.603  15.759   4.663  0.0430 -0.0511 -0.1054
24019W        W39828   5.063   8.089   4.718  0.0914  0.1398  0.3016
24020W        W39829  13.620   5.782   0.144 -0.1098  0.0323  0.1451
24021W        W39830  15.791   7.561  11.483  0.1608 -0.0106 -0.1882
24022W        W39831   1.522  13.986  15.155 -0.3325 -0.0347  0.1420
24023W        W39832  11.601  13.961  13.285  0.0092  0.1447 -0.0974
24024W        W39833  17.828  10.274   3.418 -0.2432 -0.0436  0.3120
24025W        W39834  13.402  15.861  14.369  0.1421  0.2464  0.0216
24026W        W39835  17.544  14.376  14.638  0.0777 -0.1627  0.1597
24027W        W39836  18.185   2.431  10.711  0.0253 -0.1585  0.3192
24028W        W39837   5.649   5.141  15.634  0.2336 -0.1085 -0.3419
24029W        W39838  11.693   5.861   5.778 -0.2051  0.0965 -0.2725
24030W        W39839  16.183  16.859   0.567  0.2227  0.1419  0.1801
24031W        W39840  13.499   7.141   0.667  0.2718 -0.2459 -0.0379
24032W        W39841   9.938  12.139   2.155  0.0919  0.1650  0.2851
24033W        W39842   2.662   4.352  15.294 -0.0457  0.1065 -0.1854
24034W        W39843   9.914   6.525  15.633 -0.1621  0.0137 -0.4458
24035W        W39844  14.055   4.695   0.622  0.3556  0.1853 -0.0303
24036W        W39845   0.065   2.239  14.502 -0.1448  0.0338  0.1496
24037W        W39846  18.220  10.402   3.121  0.1431 -0.2535  0.1469
24038W        W39847  17.963  12.657   5.494 -0.1668 -0.1974  0.2317
24039W        W39848   9.004  12.172   3.770  0.1484 -0.0527  0.0229
24040W        W39849   0.339   5.384   5.643  0.2682 -0.2404  0.0681
24041W        W39850   5.299   7.674   4.363 -0.2806  0.0016 -0.2163
24042W        W39851   1.356  12.639   1.510 -0.0720 -0.0635 -0.1445
24043W        W39852   6.996  13.885  12.386 -0.1028 -0.0318 -0.0540
24044W        W39853   0.627   2.140   4.122 -0.1070  0.1859  0.0947
24045W        W39854   2.240  12.148   1.182  0.0987 -0.0274  0.0494
24046W        W39855   7.450  15.106  14.973 -0.3916 -0.1521 -0.2022
24047W        W39856   6.504  11.473  15.541  0.2478 -0.0570  0.1389
24048W        W39857   8.154  17.014  12.759  0.0030  0.5373  0.1935
24049W        W39858   8.444   8.405  14.171 -0.0790 -0.1036  0.1032
24050W        W39859  17.347  14.590   4.310 -0.1374  0.1958 -0.0442
24051W        W39860   6.380   1.621  11.785  0.2141  0.1495  0.1584
24052W        W39861   2.599   0.416   1.616  0.1214 -0.2031  0.2033
24053W        W39862   3.174   6.424  11.524  0.1718  0.1746  0.2638
24054W        W39863  14.712   6.205   3.485  0.0103 -0.3802  0.0716
24055W        W39864   3.698   7.103  12.817  0.1386  0.0072  0.0239
24056W        W39865   6.682  15.861  11.118 -0.0288 -0.1565 -0.1142
24057W        W39866   1.711  14.550  11.139 -0.2364 -0.0425 -0.1838
24058W        W39867  13.340  14.281   2.984  0.2549 -0.3038  0.2539
24059W        W39868  15.911   5.184  11.910  0.2043  0.0320  0.4540
24060W        W39869  15.185  15.856  11.112  0.3945 -0.1217 -0.1806
24061W        W39870   5.653   0.190  10.854  0.0927  0.2771 -0.0343
24062W        W39871   2.380  14.799  14.461 -0.1847  0.2602  0.0241
24063W        W39872   9.190  17.947   1.473  0.0381 -0.4345 -0.0830
24064W        W39873   4.647  16.331  14.021  0.0268  0.0440 -0.1819
24065W        W39874   3.030  15.148  13.427  0.0946  0.0063 -0.0379
24066W        W39875  18.066   8.358   1.993  0.0914 -0.0116 -0.1483
24067W        W39876   8.499   0.378  14.887 -0.0175  0.1646 -0.2212
24068W        W39877  10.946   6.582  13.059  0.2941 -0.0812  0.0536
24069W        W39878   7.873   4.012   4.586  0.2225 -0.2363 -0.1238
24070W        W39879  17.438   0.880  12.164 -0.2299  0.0524  0.0109
24071W        W39880  13.222  12.366   2.132 -0.2281 -0.1679  0.1424
24072W        W39881   3.289  10.882   4.048  0.0821  0.1401  0.0192
24073W        W39882  14.171   1.762   4.517 -0.1861  0.1712  0.2741
24074W        W39883  11.595  12.031   0.100  0.3170  0.1012 -0.1177
24075W        W39884   3.003   9.535  11.741  0.0934  0.1676 -0.1813
24076W        W39885   5.161  14.092  13.559  0.2007  0.0729  0.0844
24077W        W39886   7.440   1.278   4.968  0.0759 -0.5870  0.1004
24078W        W39887   3.821  15.623   0.494 -0.0120  0.1024  0.0746
24079W        W39888   1.121  10.086   4.068  0.3195 -0.0909 -0.1276
24080W        W39889  11.542   2.187   4.519  0.1776 -0.2885  0.1069
24081W        W39890   6.063   6.583   1.781  0.1592 -0.2199  0.0857
24082W        W39891   5.899   2.384  13.548 -0.4048  0.2722 -0.3229
24083W        W39892   1.854   0.073   5.190 -0.1713 -0.0472  0.3764
24084W        W39893   7.705  13.155   3.188 -0.2156 -0.0708 -0.1090
24085W        W39894   8.286  16.497  14.391  0.1106 -0.2204  0.1594
24086W        W39895   5.681   5.409   4.373 -0.0984  0.0909  0.1637
24087W        W39896  11.599  14.837  14.946 -0.3320  0.1572 -0.2998
24088W        W39897   8.465  15.327   4.450 -0.0182  0.0992  0.0111
24089W        W39898   5.504   7.001  12.180 -0.0464 -0.1714 -0.2497
24090W        W39899   0.597  11.520  11.213  0.0602  0.5546  0.1907
24091W        W39900   3.275  13.732  15.746 -0.0671 -0.0654  0.0860
24092W        W39901  17.047  13.404   2.005 -0.2011  0.0701 -0.2854
24093W        W39902  15.037  14.546  10.756 -0.2563 -0.2940  0.2066
24094W        W39903   6.196   6.085  14.207 -0.2775  0.1258  0.3453
24095W        W39904   0.687   8.523  10.910  0.0086  0.2238  0.1838
24096W        W39905  12.072   9.223  14.129 -0.0347 -0.2311 -0.2193
24097W        W39906   1.244   8.314  15.800  0.0968  0.2181  0.0255
24098W        W39907   4.261  10.935   5.482  0.0392 -0.1400  0.1378
24099W        W39908   2.968   2.253   0.694  0.3036  0.1099  0.2543
24100W        W39909  11.426  11.341   4.361  0.2190  0.0765  0.3550
24101W        W39910  10.253  15.986   3.503 -0.1926 -0.0405 -0.0409
24102W        W39911   8.192   6.985  15.653  0.0331 -0.1309  0.2174
24103W        W39912   3.742   9.404   4.733 -0.0043  0.2129 -0.3553
24104W        W39913  14.547   9.015  12.135 -0.0053  0.2150 -0.1469
24105W        W39914  12.632   0.706  15.711  0.2060  0.3776 -0.1313
24106W        W39915   7.668  11.401   4.889  0.4993 -0.3685 -0.3924
24107W        W39916  14.243  13.211  13.701  0.2758  0.1408  0.1582
24108W        W39917  14.638   2.337  14.118 -0.1652 -0.0585 -0.3084
24109W        W39918  11.115  17.339   1.588  0.0660 -0.0792  0.3016
24110W        W39919   2.373   8.367   5.463 -0.0500 -0.0020  0.0977
24111W        W39920  10.289  13.160  11.839  0.0277  0.0587  0.1525
24112W        W39921  14.236   8.251   0.505  0.1109  0.2906 -0.2130
24113W        W39922  17.747  12.348  10.744  0.0195  0.0923  0.0387
24114W        W39923  17.952  17.578   1.051 -0.1327  0.3364  0.1485
24115W        W39924  17.940   1.394  12.721  0.1223 -0.2825 -0.0983
24116W        W39925   0.273   0.068   2.622  0.0670  0.2507  0.0065
24117W        W39926   1.669  18.290   0.362  0.0669 -0.1891 -0.2280
24118W        W39927   1.847   7.388   4.544 -0.1198 -0.0074 -0.0080
24119W        W39928   9.521  17.180  13.425 -0.0584 -0.1543 -0.3521
24120W        W39929  12.706  18.327  11.958 -0.3771  0.3436 -0.1728
24121W        W39930  13.303  12.573  11.019  0.0284 -0.0535  0.0403
24122W        W39931  14.729  17.718   2.660  0.3298 -0.2030  0.2245
24123W        W39932  18.362   3.337   5.367 -0.3167 -0.0865 -0.0111
24124W        W39933  16.697   3.116   4.584  0.0005 -0.2039 -0.0849
24125W        W39934   2.915  11.196  13.276  0.1078  0.0013 -0.0528
24126W        W39935  17.423   6.126  14.582  0.2534 -0.4115 -0.0208
24127W        W39936   7.165  15.716  12.598 -0.2545 -0.0852  0.0952
24128W        W39937  16.458   7.979   5.320 -0.4577 -0.1668  0.2368
24129W        W39938   2.162   7.503   2.411  0.1116  0.0746  0.0413
24130W        W39939   3.099   5.305  12.205  0.2830 -0.0720  0.1243
24131W        W39940  11.135   5.820  12.640  0.1023  0.0318 -0.1684
24132W        W39941   8.505  14.277   3.040 -0.2172 -0.0210 -0.0580
24133W        W39942   3.444   6.812   1.447  0.0945  0.0064  0.2930
24134W        W39943   0.520   1.263   5.492  0.0955 -0.0134  0.1080
24135W        W39944   8.051   5.378  10.555  0.1579 -0.0886 -0.2585
24136W        W39945   7.408  10.243   5.545 -0.1053  0.2222  0.0592
24137W        W39946  14.533   5.694   5.136 -0.1020 -0.0629  0.0071
24138W        W39947   1.480   5.305  11.679 -0.2252  0.1276  0.1126
24139W        W39948   0.331   1.960   3.789 -0.2770  0.0180  0.1429
24140W        W39949  16.032   7.559   3.916 -0.1966  0.1470  0.1478
24141W        W39950   4.229   5.007   3.279 -0.0034 -0.1516 -0.0936
24142W        W39951  14.068  17.700  12.473  0.0608 -0.0201  0.0538
24143W        W39952  13.787  16.579  14.214  0.2291  0.0436  0.0690
24144W        W39953   4.806  16.909  10.655  0.1224 -0.0060  0.1243
24145W        W39954   7.988   0.498  10.870  0.1500 -0.0403 -0.3045
24146W        W39955  12.761  17.560  13.769 -0.0364  0.1651 -0.1216
24147W        W39956   6.983   2.729   3.016 -0.0258 -0.0157  0.1666
24148W        W39957  13.827  11.847   0.742 -0.1333 -0.2445 -0.4334
24149W        W39958   0.405  13.189   3.558  0.1190  0.4373  0.0471
24150W        W39959   7.670  13.062   0.696  0.1345  0.2297  0.0143
24151W        W39960  10.981  10.890   5.348 -0.0376  0.1395 -0.1316
24152W        W39961   1.150  10.557  13.964 -0.1695  0.0685  0.0645
24153W        W39962   9.178   0.081   0.123 -0.3166 -0.1130  0.0439
24154W        W39963  15.519  15.785  14.034  0.0794  0.1136  0.0347
24155W        W39964  10.886  15.669   0.090  0.1467  0.0250 -0.1452
24156W        W39965   8.582  17.784  11.471  0.2001  0.0535 -0.0297
24157W        W39966  16.491   2.146  13.455  0.2152 -0.1464  0.2061
24158W        W39967   8.277  14.187   3.522 -0.0179  0.2018 -0.3465
24159W        W39968   1.661  15.130   2.206 -0.0655 -0.1840  0.1040
24160W        W39969   1.451   4.295   2.356 -0.0021 -0.1836  0.0151
24161W        W39970   4.105  12.856  13.851  0.1998 -0.1956 -0.0570
24162W        W39971  18.423   4.450  12.753 -0.1542 -0.0729 -0.1195
24163W        W39972   8.688  15.820   0.948 -0.0841 -0.1208  0.5553
24164W        W39973  13.580  18.211   9.931 -0.1109 -0.0300 -0.4862
24165W        W39974   3.089  10.259  15.615  0.2535  0.1072  0.0285
24166W        W39975   7.530  17.409   1.231 -0.1088  0.0365 -0.0147
24167W        W39976  12.970  17.913   2.674 -0.2009  0.2135 -0.2277
24168W        W39977  14.619   8.466  12.452 -0.1338 -0.2087  0.0908
24169W        W39978   7.652  15.658  10.890 -0.1291 -0.2375 -0.3339
24170W        W39979  14.836   3.487  12.771 -0.1003  0.1331 -0.2026
24171W        W39980  17.795   5.064   4.623  0.0111  0.4239 -0.2317
24172W        W39981  10.580   3.269  14.047  0.0359  0.0700  0.0768
24173W        W39982  13.088   2.302  13.806 -0.0675 -0.0189  0.1242
24174W        W39983  15.951   0.890   4.073 -0.3607  0.2096 -0.0884
24175W        W39984  15.424   7.878   4.569 -0.0709 -0.1120  0.1726
24176W        W39985  14.721  17.925   1.000  0.2082 -0.1146  0.0529
24177W        W39986   0.525   9.755  14.626 -0.2660  0.0107 -0.1226
24178W        W39987   8.411   2.203   5.891 -0.0288  0.0546  0.2314
24179W        W39988   7.353   0.062   2.108  0.0016  0.0058 -0.1867
24180W        W39989   7.354   2.294   2.214 -0.0501 -0.0218  0.2259
24181W        W39990   5.594   0.012  11.377 -0.0138 -0.1470 -0.1093
24182W        W39991  17.718   6.334   1.477  0.1314 -0.1345  0.0690
24183W        W39992   5.118   1.797   9.772 -0.1866  0.0083  0.1417
24184W        W39993  11.348   8.814   4.214 -0.0039 -0.1438  0.1587
24185W        W39994  13.202  14.950   1.852 -0.0317  0.1460  0.3186
24186W        W39995  14.693  18.344   4.392  0.1345  0.0922 -0.2474
24187W        W39996   9.341   9.628  14.724 -0.1417  0.0976  0.3000
24188W        W39997  15.698  13.269   2.721  0.3131 -0.2296  0.1129
24189W        W39998  15.249   9.481   0.677 -0.4676  0.1715  0.2084
24190W        W39999   4.891  11.815  12.562  0.1349  0.3699  0.0449
24191W        W40000  10.555  11.602   4.703  0.0134  0.3900 -0.0069
24192W        W40001   0.178   7.180   3.205  0.0516 -0.1426  0.0842
24193W        W40002   1.955  15.791  11.275 -0.1369  0.2718  0.1472
24194W        W40003   9.016   0.991   3.099  0.1774 -0.0928  0.0703
24195W        W40004  14.341   9.175   5.569  0.0873 -0.1010 -0.3143
24196W        W40005   0.776   7.804   2.132  0.0017 -0.1537 -0.2456
24197W        W40006   5.179  17.644  11.734 -0.0866 -0.2028  0.3240
24198W        W40007   6.109   0.464   4.655 -0.1823  0.1463 -0.1126
24199W        W40008  16.590   0.461   5.336  0.0938  0.0099  0.2367
24200W        W40009   7.074  10.308   0.562 -0.2579 -0.3561  0.1612
24201W        W40010  16.804   3.553  12.210 -0.2658  0.3259  0.0646
24202W        W40011   0.511  12.013   4.415 -0.1095  0.3401  0.1192
24203W        W40012   8.922  11.277  11.373  0.1310 -0.0615  0.0628
24204W        W40013   7.111  12.063   3.776  0.1482 -0.0358 -0.2877
24205W        W40014   6.359   4.129   3.127 -0.2448 -0.1715  0.1027
24206W        W40015   0.711  12.799   3.192 -0.0055 -0.0942 -0.2368
24207W        W40016   4.821   8.711  11.899  0.0992  0.1452 -0.0828
24208W        W40017  15.514   4.619   3.059 -0.0335  0.3262 -0.3134
24209W        W40018   5.361  11.595   3.836  0.0888  0.0284 -0.2487
24210W        W40019  14.266   9.867  11.723  0.1492  0.1197 -0.1051
24211W        W40020  16.059   6.853   2.071  0.1383 -0.1485 -0.1568
24212W        W40021   5.908   8.285  13.586  0.2982  0.1325 -0.2518
24213W        W40022  15.582   4.815   0.101  0.0295 -0.0231 -0.1592
24214W        W40023   9.017   0.515   2.136  0.0659  0.1996  0.0936
24215W        W40024   8.538  13.507  10.651  0.2023  0.1725 -0.0630
24216W        W40025  12.523   0.966   5.762 -0.0468  0.2908 -0.0198
24217W        W40026  14.727   4.845  10.931  0.3559 -0.2226  0.0124
24218W        W40027   2.986   9.842   5.210 -0.2682 -0.1455 -0.1231
24219W        W40028   9.913  16.447  13.560  0.0083  0.1219 -0.2595
24220W        W40029   6.795   1.636   1.270 -0.0747  0.1292 -0.0894
24221W        W40030  17.936   8.942  10.523  0.1188 -0.1941 -0.3175
24222W        W40031   3.238   7.068   5.494 -0.2756  0.0091  0.1198
24223W        W40032   8.406   3.362  15.309  0.1638  0.0680 -0.1926
24224W        W40033   7.665   8.851  13.481  0.1477 -0.0138 -0.0957
24225W        W40034   9.244  11.003   4.872 -0.1307  0.0150 -0.1552
24226W        W40035  17.552   6.644  12.981  0.0777 -0.0620 -0.0789
24227W        W40036   4.260  17.928   2.018  0.2464 -0.0217 -0.1397
24228W        W40037   8.172   1.368  13.631 -0.0292  0.1338 -0.1343
24229W        W40038   0.313   2.305   0.139 -0.0428  0.0030  0.0609
24230W        W40039   5.647   9.956   0.204  0.1812  0.1682  0.2212
24231W        W40040  10.102   5.898   9.975  0.2286 -0.1943  0.1565
24232W        W40041  18.174   3.382   5.911 -0.3373 -0.0191  0.2409
24233W        W40042  15.271  18.069  14.873  0.0818  0.1121 -0.3311
24234W        W40043   6.761  15.692   0.813 -0.0952  0.3324 -0.1803
24235W        W40044  11.809  18.098   2.887 -0.1463 -0.3410 -0.3267
24236W        W40045   8.873   7.119   1.844  0.1057 -0.1848  0.0918
24237W        W40046  17.120  13.174   0.361  0.1491 -0.1948 -0.3619
24238W        W40047   1.452  17.161  12.897 -0.0166  0.1497  0.0009
24239W        W40048   4.832   9.381   3.755 -0.1719  0.3226  0.4145
24240W        W40049  10.401  11.199  12.158 -0.0028  0.0452  0.2196
24241W        W40050  15.181   5.173   1.185  0.1519  0.2133 -0.0428
24242W        W40051  18.402  12.121  12.069  0.1498  0.0401 -0.2771
24243W        W40052  15.838  11.955  13.899 -0.4691 -0.1184 -0.0590
24244W        W40053  16.908  12.917  13.445  0.0113  0.1075 -0.0951
24245W        W40054   4.548   3.729  15.350  0.3471 -0.0008  0.2282
24246W        W40055   3.774  16.343  15.141 -0.0549 -0.2950  0.0144
24247W        W40056   5.565   9.444   1.749 -0.0346 -0.1865  0.2767
24248W        W40057   2.007  16.932  10.996 -0.0564 -0.2031 -0.3338
24249W        W40058  11.558  11.921   1.792  0.1315 -0.3638  0.0908
24250W        W40059  10.628  16.243   0.911  0.1470  0.0835 -0.0022
24251W        W40060  12.057   8.666   0.027  0.0405  0.0024  0.2458
24252W        W40061  10.727  15.668  15.461 -0.1351  0.0528 -0.2997
24253W        W40062   3.776  11.021   0.319  0.0605  0.1593  0.2123
24254W        W40063   8.108   5.722  14.591 -0.0349 -0.1146 -0.1650
24255W        W40064  17.922   9.434  13.958 -0.4593 -0.1949  0.0057
24256W        W40065  14.452  16.197  13.970 -0.1360  0.2580  0.2545
24257W        W40066   2.730   5.948  11.015  0.3245  0.2712  0.2043
24258W        W40067  13.213   2.421  12.957 -0.2675 -0.1814 -0.1765
24259W        W40068   0.734  12.258  15.553  0.0566  0.2058  0.1272
24260W        W40069  13.994   3.458   3.931  0.2358 -0.2195 -0.2353
24261W        W40070  15.945   0.829  13.968  0.5308  0.2217 -0.0543
24262W        W40071  14.902  17.168  12.315 -0.0352  0.0456  0.1096
24263W        W40072  17.795   8.194   0.270  0.3582 -0.1155 -0.1522
24264W        W40073  16.826   5.764  12.275  0.0768  0.0655  0.1244
24265W        W40074  17.138  18.421  11.249  0.0469  0.1471  0.0057
24266W        W40075   3.588   7.176   2.754  0.3115  0.1886  0.0548
24267W        W40076   4.530  16.643   2.588  0.0609 -0.0292 -0.1464
24268W        W40077   6.765  14.958  13.635  0.2035 -0.0008 -0.1806
24269W        W40078   9.249   7.390  15.740 -0.1554  0.2403 -0.3104
24270W        W40079  16.327  12.660   0.212 -0.0628  0.2211 -0.1892
24271W        W40080   1.992   5.910   2.780  0.0915 -0.0318  0.0780
24272W        W40081   1.344   2.899   1.917 -0.1924 -0.0117 -0.0232
24273W        W40082   5.386   8.974  15.707  0.0152 -0.0884  0.2280
24274W        W40083  13.295  15.932  13.033 -0.2418  0.0107  0.0764
24275W        W40084  17.346  14.077   3.484  0.2662 -0.0031  0.1517
24276W        W40085  14.042   2.565  11.348  0.0978  0.3447 -0.3347
24277W        W40086   1.429   7.907  13.242 -0.0870 -0.2056  0.0039
24278W        W40087  16.902   8.062  12.901 -0.1118 -0.2337 -0.0874
24279W        W40088  11.844   3.698   2.604  0.1859  0.2940  0.0874
24280W        W40089   7.996   9.114   4.248 -0.2861  0.0928 -0.0115
24281W        W40090   1.592  14.519   1.552 -0.0192 -0.1636  0.0258
24282W        W40091  12.508  10.429   5.602  0.3558  0.1480  0.0442
24283W        W40092  15.668  10.454  15.799  0.2363  0.1332 -0.0019
24284W        W40093  15.851   8.812  10.024  0.3934  0.0190 -0.1243
24285W        W40094   0.268  13.522  13.122 -0.1791  0.1848 -0.1021
24286W        W40095   2.841  13.500  15.693  0.1324  0.0043  0.3035
24287W        W40096  16.241   0.516  14.333 -0.1585 -0.0829 -0.1116
24288W        W40097  11.273   1.105  11.618 -0.0686  0.1769 -0.1117
24289W        W40098   3.702   1.742   4.278 -0.1692 -0.1104 -0.0381
24290W        W40099   7.414   6.251   4.391 -0.4108  0.1611  0.1271
24291W        W40100  17.064   6.166  11.756  0.0016  0.0890 -0.3335
24292W        W40101   3.651   7.773   0.706 -0.0733 -0.1040 -0.0056
24293W        W40102  11.635   8.058  13.029  0.0220 -0.0514  0.0271
24294W        W40103   5.544   1.079   2.929  0.2147 -0.0243  0.1044
24295W        W40104   1.141   3.889   3.039 -0.2908  0.0742 -0.0656
24296W        W40105   0.267   2.140   0.608  0.0470 -0.2406  0.2399
24297W        W40106   0.203   4.296  12.323  0.1524 -0.1739 -0.0987
24298W        W40107  13.437   1.634   4.713  0.1462  0.0583  0.1475
24299W        W40108  11.329   6.246   2.782  0.1927  0.0024  0.1394
24300W        W40109   1.407  18.036   0.048 -0.2912 -0.2158 -0.4825
24301W        W40110   5.585   6.061   5.178  0.0401  0.0225 -0.2501
24302W        W40111   8.796  16.684  10.272 -0.0230  0.0075  0.2735
24303W        W40112   9.424  17.902  12.103  0.0500 -0.2450  0.0146
24304W        W40113  14.325   5.593   0.894  0.2071  0.2440  0.1891
24305W        W40114  11.218   1.546   0.396  0.0230 -0.2026 -0.0262
24306W        W40115  14.229   7.487   1.887 -0.0502 -0.1399 -0.0381
24307W        W40116  18.116   2.817   1.140  0.1936  0.1327  0.0842
24308W        W40117   2.288   7.536  13.141 -0.0318  0.2326  0.0228
24309W        W40118   4.334   2.240  12.373 -0.1641  0.0462  0.2328
24310W        W40119  12.263  15.045  12.707  0.1983  0.0296 -0.3136
24311W        W40120  13.600   7.147  12.086 -0.1630 -0.1954 -0.1899
24312W        W40121   5.404  16.282   0.096  0.1342  0.0490 -0.2224
24313W        W40122  17.090   9.577  13.493 -0.1193  0.1861 -0.0716
24314W        W40123   7.078  11.253  11.858 -0.0880 -0.0812 -0.0271
24315W        W40124   8.544  14.091  11.127  0.1125 -0.1220  0.1405
24316W        W40125  11.816  14.898  12.877 -0.0757  0.0395  0.1815
24317W        W40126   0.744  17.662   4.727 -0.1896 -0.0932 -0.0702
24318W        W40127   1.581  10.997  11.443 -0.0512  0.0945 -0.0728
24319W        W40128  17.891   1.361  15.558  0.1458  0.2283 -0.0931
24320W        W40129   6.498  10.066   3.904 -0.0170  0.1610 -0.0530
24321W        W40130   3.919   7.871  15.704 -0.0749  0.0669  0.1671
24322W        W40131   2.948  12.423   6.051  0.0943 -0.2931 -0.3771
24323W        W40132  14.455  16.270  13.002  0.2414 -0.1400  0.0359
24324W        W40133  17.417   2.446   2.150  0.1609 -0.1433 -0.5093
24325W        W40134  11.090   5.508   4.911 -0.1723  0.0266 -0.0060
24326W        W40135  11.842  17.571   3.658 -0.2102 -0.0236 -0.1901
24327W        W40136  14.249   0.901  13.641 -0.1615  0.0857  0.2612
24328W        W40137  13.273   5.440   3.316  0.1879  0.0255 -0.1067
24329W        W40138  13.022   7.011   0.761  0.0329 -0.0425 -0.2408
24330W        W40139   1.154   3.779  13.101 -0.4529 -0.1051  0.2460
24331W        W40140   5.203   4.687   2.127  0.4423 -0.0620 -0.0376
24332W        W40141  15.885  16.392   4.345 -0.0891 -0.2023  0.0796
24333W        W40142   4.453  10.043   4.931  0.0310 -0.2988  0.0602
24334W        W40143   9.451   4.075  10.920  0.1917  0.0367 -0.0305
24335W        W40144  14.451   3.869   0.981 -0.0792  0.0665 -0.1154
24336W        W40145   8.806  16.995  15.504  0.0795 -0.1723 -0.3585
24337W        W40146   1.142   7.446  15.517  0.0110 -0.1608  0.0007
24338W        W40147  10.662  11.920  11.732 -0.0204 -0.1836  0.2741
24339W        W40148   4.650  14.526   0.541 -0.1658 -0.0618  0.1451
24340W        W40149   0.406   7.542  15.790  0.0390  0.0404  0.1816
24341W        W40150  14.771   4.082  11.478  0.3897 -0.0101 -0.1617
24342W        W40151   0.376   7.708  13.053  0.0865  0.0372  0.0014
24343W        W40152  15.468   2.773  14.989  0.2145 -0.3670 -0.0695
24344W        W40153  11.230   0.764  12.692  0.2349 -0.0765 -0.0797
24345W        W40154   9.972   3.781   2.922 -0.2490 -0.1116  0.0496
24346W        W40155  18.364  15.205  12.735  0.1321 -0.0961  0.2092
24347W        W40156   9.841   2.195   3.362 -0.0689  0.1080 -0.1643
24348W        W40157   6.553   6.870   5.305 -0.0313  0.0120  0.1568
24349W        W40158   8.240   7.812  13.073  0.1313  0.2045  0.1274
24350W        W40159  14.641  11.851   1.979 -0.3150  0.1437  0.1159
24351W        W40160  12.582   0.561  12.042  0.1468  0.3794 -0.4752
24352W        W40161   0.154  16.390  13.179  0.0608  0.0021  0.0283
24353W        W40162  11.649   4.065  10.003 -0.0312  0.6156  0.4261
24354W        W40163  14.682   3.564  14.324  0.1457  0.0498 -0.0161
24355W        W40164  10.917  15.203   4.956 -0.1455  0.1908  0.0516
24356W        W40165   0.202  18.291  11.777  0.0121 -0.2638  0.0315
24357W        W40166  15.095  12.188   4.828  0.0697  0.3031  0.1852
24358W        W40167  14.293  15.366   0.476  0.0104 -0.0505  0.2087
24359W        W40168   0.003   2.309  13.085 -0.1072 -0.0271  0.0057
24360W        W40169   1.539  11.031   1.381  0.0591 -0.1536 -0.0299
24361W        W40170  10.519   6.467  11.734 -0.2567 -0.0647 -0.6097
24362W        W40171   9.071   8.921   3.177 -0.0508  0.2206  0.2203
24363W        W40172  15.839  14.418   4.438  0.0509 -0.1270  0.1549
24364W        W40173   3.958  11.219  13.902 -0.1173  0.2725  0.0204
24365W        W40174  13.116  17.252  14.105 -0.1477  0.0072  0.3478
24366W        W40175  17.750   3.337   3.822  0.1568  0.0216  0.0629
24367W        W40176  10.267  13.267   4.091  0.1363 -0.1016 -0.1902
24368W        W40177  17.723   5.765  12.529 -0.0603 -0.1140  0.0323
24369W        W40178  11.560   1.640   0.752 -0.0979 -0.0810 -0.0676
24370W        W40179   0.751   7.337   3.108 -0.0945  0.0170  0.2260
24371W        W40180   4.931   6.497  15.697 -0.0799  0.4063 -0.0365
24372W        W40181  13.804   1.081   2.926  0.2379 -0.2372 -0.2006
24373W        W40182   2.417   0.332   3.923  0.0305 -0.1978 -0.0076
24374W        W40183  16.734  13.378  13.237 -0.1159  0.1457 -0.2556
24375W        W40184   9.236   7.023  11.074 -0.1128 -0.4531 -0.0140
24376W        W40185  15.328  17.932   5.148 -0.0038 -0.1370  0.2258
24377W        W40186   8.687   9.072  12.705  0.0733  0.3087 -0.1105
24378W        W40187   1.539   0.595  13.803 -0.2657 -0.0376 -0.2666
24379W        W40188  12.390   0.071   5.387 -0.1098  0.0114 -0.1425
24380W        W40189   1.966  13.926   0.810 -0.1724 -0.0601  0.2062
24381W        W40190  13.943  10.984  13.930 -0.3484 -0.1657  0.1185
24382W        W40191  12.935  12.727   4.833  0.1780 -0.5386 -0.2811
24383W        W40192  15.019  13.569   3.926  0.0343  0.0404 -0.2279
24384W        W40193   1.489  12.471  14.098 -0.0631 -0.1266  0.1032
24385W        W40194   8.964   5.596   4.608  0.0036  0.1348 -0.1976
24386W        W40195  12.185  10.814   0.327  0.3807  0.1499 -0.2957
24387W        W40196  11.557  14.987   1.550 -0.1489 -0.1371 -0.1346
24388W        W40197  16.306   0.083  11.094 -0.4393  0.0888  0.2046
24389W        W40198   9.328  14.213  10.300 -0.0808 -0.3952  0.2618
24390W        W40199  10.936   4.323  12.584 -0.0731 -0.0645  0.3060
24391W        W40200   6.221   3.790   1.713 -0.1799  0.0517  0.1920
24392W        W40201  10.657   1.738  12.080  0.0038  0.1377  0.1298
24393W        W40202   3.502  12.317  14.503  0.2382 -0.0459 -0.2460
24394W        W40203   5.635  17.587   4.093 -0.1386 -0.0136  0.0706
24395W        W40204   1.593  10.452   1.434 -0.0545  0.0137 -0.0728
24396W        W40205  11.395   1.439  14.562  0.0423 -0.0924  0.3026
24397W        W40206   3.938   2.690  15.599  0.2841  0.2023 -0.1385
24398W        W40207  14.815  11.284   1.564  0.1505 -0.0948 -0.2558
24399W        W40208   9.603  12.969   0.472 -0.1408 -0.0356  0.0769
24400W        W40209   7.574  10.967  12.015  0.2667  0.0702  0.1341
24401W        W40210  15.048  15.454  14.027 -0.4317 -0.3078  0.2978
24402W        W40211   3.317  11.707  12.367  0.0285  0.0967 -0.0512
24403W        W40212   4.642  15.472   3.861  0.1284  0.0621 -0.0636
24404W        W40213   1.428   3.664   0.200 -0.0119  0.3347 -0.1901
24405W        W40214  15.177   7.546   4.824 -0.1002  0.1363  0.2224
24406W        W40215  13.609   3.032   5.137  0.4032  0.0960  0.1270
24407W        W40216   4.803  14.208   3.356 -0.0091  0.3381 -0.2571
24408W        W40217  10.554  16.410   3.175 -0.0456 -0.1701  0.3024
24409W        W40218   7.980   1.295   0.380 -0.3641  0.3283  0.2393
24410W        W40219   2.769   8.292  11.574  0.0147 -0.0682  0.0118
24411W        W40220   1.382  16.524   1.073 -0.1818  0.0691 -0.0324
24412W        W40221   0.577  11.918  10.406  0.1932  0.1315  0.0042
24413W        W40222  15.714  17.825   1.641 -0.0826 -0.2939  0.0970
24414W        W40223   3.308   2.468  12.767 -0.0924  0.1221 -0.1038
24415W        W40224   1.684  12.670   5.036 -0.1500  0.2352  0.1538
24416W        W40225  13.876  11.937   2.105  0.1771 -0.4736 -0.3299
24417W        W40226  10.713  15.911  11.871 -0.3027  0.1869 -0.0669
24418W        W40227   7.465  10.389  11.904 -0.0466 -0.2004 -0.3595
24419W        W40228   7.559  14.465   2.048  0.0490 -0.1600 -0.2026
24420W        W40229  14.254   4.725  13.092  0.1201  0.1008 -0.1462
24421W        W40230  10.321  13.291  12.463  0.0008 -0.0932  0.1666
24422W        W40231   8.694   1.972  12.635  0.1759  0.2387 -0.1165
24423W        W40232  13.181  17.745  12.424  0.2016  0.0880  0.2797
24424W        W40233  14.920  12.165   5.285  0.1630 -0.0462  0.2805
24425W        W40234   3.818   6.036   4.250 -0.0449 -0.1004  0.1872
24426W        W40235  18.108  18.207   3.090  0.0225 -0.1122 -0.3157
24427W        W40236   7.057  15.622   1.196  0.0080 -0.2334 -0.0745
24428W        W40237  11.347   8.112   3.038  0.0303  0.0253  0.1422
24429W        W40238   9.067   1.823   4.542 -0.0779 -0.1902 -0.0120
24430W        W40239   4.613   7.421   1.825  0.3655  0.1783 -0.2921
24431W        W40240  10.848   0.881  11.802  0.4406  0.0472  0.3088
24432W        W40241   8.218   5.482  12.825  0.0346 -0.1537  0.1238
24433W        W40242   6.882  11.941  14.693 -0.2205  0.0139 -0.0191
24434W        W40243   8.170   7.774   1.590 -0.0670 -0.1140  0.1640
24435W        W40244  17.147   5.701   1.017  0.0921 -0.0061  0.0270
24436W        W40245   1.534   8.401  11.074  0.1121  0.2411  0.2926
24437W        W40246   5.589  15.419   0.913 -0.0639 -0.1522  0.2058
24438W        W40247   6.878   1.096  15.209 -0.0389  0.1017  0.0296
24439W        W40248   0.100   9.294  14.682 -0.0790 -0.1735 -0.0298
24440W        W40249  16.266  15.693  12.736  0.2177 -0.0649 -0.1395
24441W        W40250   3.403   3.768   5.952  0.0908  0.1071 -0.1595
24442W        W40251   8.946  12.188   5.566  0.3867  0.0885 -0.0767
24443W        W40252   5.354  11.966   0.570 -0.0442  0.0631 -0.2935
24444W        W40253  13.143   6.929   2.854 -0.0853 -0.1100  0.0279
24445W        W40254  11.421  11.332  13.064  0.0078 -0.0104 -0.0771
24446W        W40255  14.794   3.771   2.250  0.0456 -0.1872 -0.0297
24447W        W40256   7.663   0.642   2.168 -0.2427  0.2264  0.1611
24448W        W40257   5.358   7.483   5.246 -0.1811 -0.0685  0.0388
24449W        W40258   8.699  10.987   0.317  0.0487  0.0484  0.0687
24450W        W40259   3.747   3.969  10.615 -0.1067 -0.1196 -0.2572
24451W        W40260   7.403   5.311  11.937  0.0469 -0.2142  0.3953
24452W        W40261   3.497  15.400   3.078  0.2023 -0.0818 -0.0351
24453W        W40262   2.810  17.925   0.721  0.3631  0.2753 -0.2601
24454W        W40263   2.204   2.794   0.036 -0.1888  0.2507  0.0318
24455W        W40264  18.379   5.748   4.960 -0.0164 -0.0100 -0.3087
24456W        W40265   1.944   7.008  15.727  0.0476  0.0755 -0.0968
24457W        W40266   2.360   8.564  15.053 -0.2778  0.1398 -0.0619
24458W        W40267   3.424  12.228   5.922 -0.1348 -0.2019  0.0194
24459W        W40268  15.925  14.578   9.777 -0.1562  0.2807  0.1151
24460W        W40269  16.995   1.706   0.982  0.3745 -0.2274 -0.1253
24461W        W40270  17.632   0.284   5.131 -0.3062  0.0526 -0.1463
24462W        W40271   1.253  16.225   2.803  0.0315 -0.0647 -0.1576
24463W        W40272  10.157  17.580  10.145 -0.0126 -0.0260  0.0983
24464W        W40273  15.292   4.520  14.121 -0.0329  0.2660 -0.1677
24465W        W40274  14.574  14.713  15.177  0.0991  0.0673 -0.2162
24466W        W40275   1.339  12.223   1.815  0.1891  0.0546 -0.4149
24467W        W40276   8.140  16.642   3.877 -0.4429 -0.2836  0.1837
24468W        W40277  16.791   8.433   5.415  0.0750 -0.2640  0.2964
24469W        W40278   5.226  15.161   0.067  0.1509  0.0195  0.0009
24470W        W40279  17.107  15.740   4.822  0.1407 -0.0390 -0.1906
24471W        W40280   3.749  17.192  12.208 -0.0173 -0.2753  0.0937
24472W        W40281   5.928   9.441  13.943  0.0991  0.4458  0.1273
24473W        W40282  16.669   5.957   2.708 -0.2343 -0.1289  0.0298
24474W        W40283  12.418   3.000   0.463  0.0597 -0.0225 -0.1920
24475W        W40284   1.090   7.194  13.999  0.1134  0.0176  0.1868
24476W        W40285   6.068   9.840   4.893  0.1624 -0.2422 -0.1078
24477W        W40286  11.039   0.332   4.517 -0.0739  0.0736 -0.0729
24478W        W40287  16.319  13.930   0.564  0.2258 -0.0118 -0.1756
24479W        W40288  11.852  14.096   3.227  0.1657 -0.0381 -0.0960
24480W        W40289   4.925  17.593   5.065 -0.1312  0.1630 -0.2853
24481W        W40290   3.458   0.730   1.786  0.2518 -0.0498 -0.0079
24482W        W40291   9.312  17.027  11.790 -0.0202  0.1249  0.3350
24483W        W40292   7.159   5.804  11.966 -0.1279  0.0465 -0.4723
24484W        W40293   8.803   1.789   0.263  0.0254  0.4233 -0.0177
24485W        W40294   5.887  12.884  13.507 -0.0508  0.2448  0.0243
24486W        W40295   6.186  14.752   2.423 -0.2214 -0.1379  0.1027
24487W        W40296   4.151  12.080   3.812 -0.2245 -0.1656 -0.0585
24488W        W40297  12.059   8.219  12.313 -0.1291  0.0576  0.1203
24489W        W40298   5.225  17.838   4.028  0.1744 -0.1085  0.0123
24490W        W40299  13.799   6.142   5.299  0.2931 -0.1666  0.1336
24491W        W40300  12.895   7.287  10.064  0.0988 -0.2098  0.0730
24492W        W40301   7.669  10.723  11.598 -0.2268  0.2813 -0.0626
24493W        W40302  12.547  15.478  10.861  0.0127 -0.2081  0.0406
24494W        W40303   5.274  14.174  12.820  0.2793  0.0662  0.2111
24495W        W40304   6.180   1.115  11.033  0.3776 -0.1608  0.1220
24496W        W40305   3.954   5.558   2.778  0.0737  0.1511 -0.1280
24497W        W40306  15.675  15.922   1.872 -0.1410 -0.0277 -0.1121
24498W        W40307  11.206   8.212  14.944  0.3146 -0.4375  0.0545
24499W        W40308  16.756  17.036  13.449 -0.0529  0.0037  0.0417
24500W        W40309  15.887  10.337  12.374 -0.3779  0.1244  0.1409
24501W        W40310  15.346   1.951  12.115 -0.0625  0.1140  0.2153
24502W        W40311   9.119  15.975  10.833 -0.2760 -0.0980 -0.1681
24503W        W40312   8.479  17.768   2.822 -0.2700  0.0879  0.2088
24504W        W40313   0.700   7.197  14.402 -0.0526  0.0702 -0.0700
24505W        W40314  13.418   6.663  14.703 -0.0263  0.0188  0.1780
24506W        W40315  16.176  13.702  15.155  0.1974  0.2272 -0.0991
24507W        W40316  16.856  13.895   3.184 -0.3765  0.2527 -0.1519
24508W        W40317   6.805  15.791  14.832 -0.2440 -0.2335 -0.2399
24509W        W40318   5.288  10.011  15.213  0.0827 -0.0235  0.1877
24510W        W40319  18.248   6.177  15.444  0.0639 -0.1750  0.1699
24511W        W40320   1.645   6.412   3.497  0.0868  0.1522 -0.0485
24512W        W40321  11.161  10.778  10.881 -0.2471  0.0649  0.2534
24513W        W40322   1.550   7.395  10.922  0.0093 -0.2522  0.1725
24514W        W40323   2.872   3.154   3.362  0.2148 -0.3464  0.1632
24515W        W40324  13.447   1.823   9.840 -0.1003  0.0340  0.0551
24516W        W40325  11.390  10.698   1.257  0.2018 -0.0743 -0.1637
24517W        W40326   8.202  14.084  11.850  0.1258  0.2332 -0.0727
24518W        W40327  14.275   1.682  13.234 -0.0597 -0.0155  0.2584
24519W        W40328   4.849   0.133   2.543 -0.1107 -0.0065 -0.0362
24520W        W40329   8.136  12.473  11.661 -0.2524  0.1106 -0.2142
24521W        W40330   8.276   3.828  11.305 -0.0812  0.2252  0.0549
24522W        W40331   4.996   3.593   0.997  0.3284  0.0015 -0.1266
24523W        W40332   1.669  12.444   5.468 -0.2784  0.1486  0.0565
24524W        W40333   9.305   1.443   3.741  0.2001 -0.0624 -0.0598
24525W        W40334  13.313  17.395  14.567 -0.0432  0.5026  0.1580
24526W        W40335   2.497   9.310   1.216 -0.2882  0.1334  0.0406
24527W        W40336  17.982  13.514   3.770 -0.1077  0.3378 -0.0487
24528W        W40337   8.896   3.732   2.146 -0.0537 -0.0892 -0.2509
24529W        W40338  13.774  13.089   5.283 -0.1215 -0.0119  0.2887
24530W        W40339   1.329  17.973   3.385 -0.0329 -0.1996  0.0615
24531W        W40340   4.017  14.491  12.528 -0.0478  0.1200 -0.0336
24532W        W40341   2.935  10.049   1.549 -0.1172 -0.3345  0.3110
24533W        W40342  15.523   6.065  14.470  0.1311  0.2570  0.2967
24534W        W40343   7.467  11.569  13.609 -0.1924  0.1063 -0.1419
24535W        W40344   3.889   9.984  13.860  0.1318 -0.1074  0.2242
24536W        W40345  12.318   2.238   2.677  0.0413 -0.1820  0.2013
24537W        W40346  15.360  13.647   3.457  0.2003 -0.1458 -0.3511
24538W        W40347   3.413  13.164   1.381  0.3567  0.2421  0.2541
24539W        W40348   1.038   7.088   4.253 -0.0877 -0.2158 -0.2558
24540W        W40349  13.465   6.684   0.527  0.1097  0.2176  0.1118
24541W        W40350  15.365   4.769   2.351 -0.0698  0.0001  0.3708
24542W        W40351   4.286   3.022   1.189  0.1204 -0.0387 -0.0301
24543W        W40352  17.734   3.784  11.906 -0.1342 -0.0133  0.1897
24544W        W40353  15.056   8.772  13.900  0.0124  0.0599  0.1448
24545W        W40354  11.612   8.603  12.113 -0.1246  0.1319  0.0685
24546W        W40355  13.506   7.283  13.532 -0.1301 -0.0304  0.3014
24547W        W40356   6.813   2.816   3.482 -0.1687 -0.1762  0.2168
24548W        W40357   9.142   3.466  11.697  0.4440 -0.0128 -0.1172
24549W        W40358   6.632  11.233  12.098 -0.1956  0.1408 -0.3755
24550W        W40359   2.092  10.363  11.082 -0.3778  0.0320 -0.0938
24551W        W40360  15.580   3.458   0.226  0.1059 -0.1498  0.2012
24552W        W40361   0.513   9.750   2.677 -0.2334 -0.0896  0.2257
24553W        W40362   3.281   1.535  10.333 -0.3686  0.1463 -0.0605
24554W        W40363   5.556   2.327  10.496  0.1381 -0.2140  0.0347
24555W        W40364   4.813   3.254   2.854  0.1082  0.1986 -0.1158
24556W        W40365  16.882   2.090   2.901 -0.1290 -0.0161  0.0763
24557W        W40366  13.252   1.655  13.166 -0.1335  0.0829  0.4122
24558W        W40367   8.163   8.350   3.385 -0.2033 -0.2469 -0.1344
24559W        W40368   3.866   6.474   4.018 -0.1127 -0.2975  0.1880
24560W        W40369  13.595  12.289  11.338  0.1881 -0.4095  0.2443
24561W        W40370  16.218  10.728  13.801 -0.0447 -0.2033  0.2795
24562W        W40371  15.775   8.447  12.527 -0.0892  0.0552 -0.1885
24563W        W40372   6.085  17.160   2.991 -0.0357 -0.1743  0.1554
24564W        W40373   0.190  13.053   2.296  0.1016 -0.1300 -0.0885
24565W        W40374  16.623   1.260  12.435  0.0276  0.1833  0.0020
24566W        W40375   3.013   0.753   1.469  0.2144  0.1010  0.3404
24567W        W40376   9.088   1.788  13.829  0.2202 -0.2295  0.0160
24568W        W40377   4.079  17.156   4.773 -0.1359 -0.1528 -0.2060
24569W        W40378  14.307   1.137  12.861  0.1086  0.0134  0.0319
24570W        W40379  13.714  15.789   3.771 -0.1532 -0.0752  0.0952
24571W        W40380   1.136   9.680   3.566  0.0050 -0.0520 -0.1296
24572W        W40381   0.601   6.429   3.470 -0.2614 -0.2165  0.1072
24573W        W40382   1.608   1.942   1.837  0.4804 -0.0123 -0.0773
24574W        W40383   5.231  13.376   0.005 -0.3990  0.1862  0.0639
24575W        W40384   6.484  15.722  13.972 -0.5085 -0.0139 -0.0548
24576W        W40385  14.867   8.572   4.488 -0.0577  0.0727 -0.2649
24577W        W40386   1.792  12.709  14.817  0.1804 -0.0896  0.3067
24578W        W40387  12.302  17.018   0.941  0.2512 -0.0144 -0.3249
24579W        W40388   6.667  13.406  14.595  0.0032 -0.0118 -0.0217
24580W        W40389   7.957  12.755   4.465  0.1526  0.0755 -0.1793
24581W        W40390  13.269   8.105  12.221 -0.1274  0.0200  0.1047
24582W        W40391  14.521  16.415  14.903 -0.0250  0.0005  0.0992
24583W        W40392  18.004   8.109   5.027 -0.0581 -0.0331 -0.0675
24584W        W40393   6.134   9.389  15.330 -0.1279  0.0565  0.0153
24585W        W40394  12.850   9.157  12.506 -0.0880  0.1825 -0.2363
24586W        W40395   6.989   0.538   4.419  0.2068  0.0335  0.0697
24587W        W40396   3.626   4.538   5.652  0.1644  0.3298 -0.3710
24588W        W40397  12.944  11.087   4.181 -0.1795 -0.3994  0.3708
24589W        W40398   7.189  12.239   2.000 -0.3121  0.4145  0.0745
24590W        W40399   8.511   0.427  13.873  0.2288  0.0369 -0.0484
24591W        W40400   4.256  16.613  14.907  0.0744  0.1909 -0.1450
24592W        W40401  18.134  13.483   0.299 -0.0525  0.0487  0.2198
24593W        W40402  14.151   0.569  15.660  0.0508 -0.1662  0.0831
24594W        W40403  11.528   7.242  10.956 -0.0441  0.1543 -0.2874
24595W        W40404   1.917  11.223   5.657 -0.0244  0.2467 -0.1332
24596W        W40405  16.608   2.564   3.804 -0.1380 -0.0650 -0.1031
24597W        W40406   7.337   7.568   0.249 -0.1451 -0.0081  0.0208
24598W        W40407  12.552   3.008   2.529  0.0375 -0.2391 -0.1399
24599W        W40408   7.119   0.701   6.081 -0.1048  0.1472  0.0247
24600W        W40409   2.448  16.308   2.666 -0.1861 -0.0969  0.0868
24601W        W40410  14.693   0.025  11.436  0.0700 -0.1758 -0.0490
24602W        W40411  13.380   1.056  15.533 -0.1679  0.1080  0.1309
24603W        W40412   4.131  11.075   3.643 -0.0981  0.5035  0.0074
24604W        W40413   3.909   9.943  15.506  0.0736 -0.0276 -0.0314
24605W        W40414   9.665   4.182  13.699  0.2097 -0.0472 -0.0545
24606W        W40415   0.181   4.891  14.903  0.0843  0.1119 -0.0941
24607W        W40416  16.795  13.254  15.423 -0.0544 -0.5149 -0.1272
24608W        W40417   1.476  14.755   2.395 -0.0280  0.1707 -0.1574
24609W        W40418  15.014  16.629   1.708  0.1252 -0.2356 -0.0733
24610W        W40419  12.178   6.081  15.622  0.1125  0.1287  0.0675
24611W        W40420  17.611  17.921  12.535 -0.1746 -0.1429 -0.0743
24612W        W40421  12.784   9.469   4.611 -0.0111 -0.0319  0.0795
24613W        W40422  17.945   4.924  13.607 -0.4603  0.3469 -0.0573
24614W        W40423  15.032  13.519   0.724  0.3220  0.1211 -0.2741
24615W        W40424   3.907   4.670   3.410  0.2719 -0.2579 -0.2323
24616W        W40425  14.616  12.782  12.960 -0.1117  0.0286 -0.1983
24617W        W40426  10.164   2.640  14.507  0.2142 -0.2433 -0.1571
24618W        W40427   9.936   3.627   1.216  0.0543 -0.2458  0.0897
24619W        W40428   6.098   6.293   2.945 -0.0145 -0.2580 -0.3137
24620W        W40429   0.040   5.666  13.237 -0.2605  0.0736  0.1549
24621W        W40430   7.492  12.564   0.500  0.1440 -0.1265 -0.1042
24622W        W40431   7.040   0.087  13.786  0.1830 -0.2269 -0.1874
24623W        W40432   8.684   8.180  15.670 -0.1651  0.0123 -0.2356
24624W        W40433   0.856   2.622   2.737  0.2126 -0.0348  0.1563
24625W        W40434   6.715  14.590  13.975 -0.2573 -0.4567 -0.0473
24626W        W40435   7.677   6.323   3.944 -0.1061  0.0711 -0.2965
24627W        W40436   6.606   6.319  10.134  0.1957 -0.0104  0.1117
24628W        W40437  10.810  10.374   1.758 -0.2232  0.0124 -0.2156
24629W        W40438  17.574   0.807  11.591 -0.0951  0.1827 -0.1289
24630W        W40439  12.089   2.504  12.586 -0.0012 -0.0840  0.2188
24631W        W40440   7.116   3.743   3.785  0.1705  0.3147 -0.1253
24632W        W40441  17.171   8.905  12.317 -0.2370 -0.1029  0.1728
24633W        W40442   2.655  12.420   2.312  0.0159 -0.3003  0.0643
24634W        W40443  16.171  12.974   5.233 -0.0759 -0.0043 -0.3933
24635W        W40444  15.112   8.388   1.089 -0.0894 -0.4447 -0.1346
24636W        W40445   0.267   8.737  13.609  0.0898  0.0157 -0.1190
24637W        W40446   3.268   3.796  10.580 -0.2005  0.2504  0.3930
24638W        W40447  13.092   6.542  12.941 -0.1211  0.2192 -0.0219
24639W        W40448  11.626  11.163   2.963 -0.1372 -0.2101 -0.3089
24640W        W40449   8.238   1.542  12.767 -0.2158  0.1455  0.1770
24641W        W40450  17.434   4.106   3.871  0.2496 -0.1340  0.0081
24642W        W40451  18.054  13.792  13.886  0.2607 -0.2070 -0.2346
24643W        W40452  13.710   7.738   5.852 -0.1244  0.0166 -0.1175
24644W        W40453  18.176  13.867  11.331 -0.1964 -0.2692 -0.0033
24645W        W40454  17.784  10.726  13.426  0.1945 -0.1366 -0.0217
24646W        W40455   2.183  13.094  12.276 -0.1000 -0.0838  0.2152
24647W        W40456  14.187  14.627   3.262 -0.1167  0.2458 -0.0697
24648W        W40457   8.840   2.078  13.550  0.0019 -0.1558  0.1904
24649W        W40458  15.927  11.052   3.991 -0.0751  0.2345 -0.2219
24650W        W40459  12.223  10.782  12.832  0.0088 -0.1967 -0.0203
24651W        W40460  14.193   9.301  12.816 -0.3359  0.0124 -0.0319
24652W        W40461   0.959  13.860  12.445  0.1060 -0.0015  0.1478
24653W        W40462  18.312  15.768   2.120 -0.3623 -0.1360  0.1823
24654W        W40463  18.258   4.813  11.128  0.3568  0.3225 -0.1924
24655W        W40464   0.102  18.186   0.902  0.0322  0.2493  0.0700
24656W        W40465  12.212   9.813   3.464 -0.0507  0.1035 -0.1287
24657W        W40466  18.352   7.586   3.467  0.1237 -0.0173  0.0451
24658W        W40467  16.265  16.589   2.580  0.1154  0.1329  0.0612
24659W        W40468   0.340   7.997   4.665 -0.1606 -0.2369 -0.2117
24660W        W40469   1.477  13.779  12.348 -0.3797 -0.0088 -0.0261
24661W        W40470   6.252   2.958  14.372 -0.1052  0.0012  0.0968
24662W        W40471  17.555   9.812  11.527  0.1468 -0.1366 -0.1061
24663W        W40472  12.671  15.110  14.163 -0.1764  0.0538 -0.1241
24664W        W40473   9.959   7.574   3.203  0.3008 -0.1647  0.1026
24665W        W40474   3.094   0.728   0.409 -0.1606 -0.0020  0.0992
24666W        W40475   2.118  16.336  13.814  0.0427 -0.2750 -0.1002
24667W        W40476  10.258  13.370  13.059 -0.0404  0.3069  0.2443
24668W        W40477   2.581   9.492   3.487 -0.0348 -0.0098  0.0904
24669W        W40478   5.945  13.452  12.706  0.2269  0.0860  0.0525
24670W        W40479  10.870  11.836   5.552  0.1754  0.1763  0.1782
24671W        W40480   3.507   3.416   5.184  0.1218 -0.2323 -0.3827
24672W        W40481  14.168   0.088  15.823 -0.1528  0.1116  0.3494
24673W        W40482  15.321   3.446  12.476  0.0651  0.1336  0.1076
24674W        W40483  16.310   2.741  13.434 -0.1836 -0.0290 -0.3759
24675W        W40484   6.821   0.282   3.970  0.1877 -0.3447 -0.2612
24676W        W40485  13.633   7.264   1.173  0.1711  0.1528  0.4777
24677W        W40486  17.345   3.941   1.960  0.2592 -0.2146 -0.0502
24678W        W40487   0.355   7.540  15.309  0.1995  0.0602  0.1578
24679W        W40488  11.738   3.897  12.704 -0.1761 -0.1443 -0.1819
24680W        W40489   4.449   0.424  11.371 -0.2131  0.2345  0.2226
24681W        W40490  16.048  16.929  10.924  0.1814 -0.4704 -0.2036
24682W        W40491   0.445   1.009  14.681  0.1322 -0.2026 -0.0048
24683W        W40492   6.054   2.925   1.886 -0.1730  0.1430  0.0494
24684W        W40493  12.867   9.547  13.893  0.0130 -0.2186  0.0093
24685W        W40494   2.109   8.024   0.137 -0.1891 -0.0505 -0.0296
24686W        W40495   1.308  11.857  14.218  0.1929  0.1608  0.4477
24687W        W40496   0.810   5.995  13.407 -0.0220  0.0425 -0.0817
24688W        W40497   8.509   0.552   0.852 -0.1828  0.1489  0.2242
24689W        W40498   0.668   7.483  12.596 -0.1118 -0.0512  0.2945
24690W        W40499  10.376   6.049  12.058  0.1587 -0.0068  0.2040
24691W        W40500   9.594   4.586   1.049 -0.0360  0.1078 -0.2426
24692W        W40501   1.723  12.567  12.243 -0.3097  0.1827  0.0524
24693W        W40502  15.196   8.830   4.826  0.0359  0.0042 -0.1774
24694W        W40503  10.881   9.593   4.299 -0.0838 -0.0415 -0.0332
24695W        W40504   3.007   6.900  15.811 -0.0807  0.2340  0.3010
24696W        W40505  12.603   1.806   2.367  0.1216 -0.2199 -0.1861
24697W        W40506   1.410   5.972   3.401  0.1080 -0.0934 -0.1779
24698W        W40507   2.751   0.007  11.262 -0.1890  0.1395 -0.2256
24699W        W40508   5.519   7.039   0.492  0.1798  0.0833 -0.0242
24700W        W40509  17.239   9.406   4.198 -0.0937  0.0478  0.1347
24701W        W40510   3.835  11.874   0.087 -0.3492 -0.0622  0.0103
24702W        W40511  16.096  13.819   9.819  0.0683  0.0861 -0.0738
24703W        W40512   4.754   8.978   0.592 -0.0651 -0.0255 -0.1136
24704W        W40513  13.304   8.013   0.547 -0.0833  0.1673 -0.1142
24705W        W40514   6.593  11.006  14.006  0.0999  0.0650 -0.0262
24706W        W40515   4.478   2.446  11.864  0.2362 -0.1591 -0.0472
24707W        W40516   5.140  17.183  13.871  0.3232 -0.1087 -0.1425
24708W        W40517  17.074   2.403  11.485 -0.3298  0.0706  0.1573
24709W        W40518   8.431   9.468   1.539 -0.0526 -0.1609 -0.3462
24710W        W40519  13.006  10.342   5.834  0.0376 -0.2741  0.2174
24711W        W40520  15.042   7.739   1.317  0.2381  0.0315  0.2627
24712W        W40521   7.118  14.390   1.592  0.0296 -0.1398  0.0576
24713W        W40522   6.491  18.185  14.632  0.0044  0.0639 -0.0471
24714W        W40523   8.349  15.218  10.806  0.1926 -0.2173  0.0175
24715W        W40524   3.197   9.049   2.125  0.3439 -0.1775  0.0760
24716W        W40525  13.283   6.665   1.590 -0.1913 -0.2545  0.1138
24717W        W40526   5.138   0.832  10.795  0.2431 -0.2847  0.1780
24718W        W40527   7.890   4.929  10.346  0.2134  0.1247 -0.0548
24719W        W40528   3.871   3.770  12.938 -0.2726  0.1084 -0.4085
24720W        W40529  13.444  10.162  13.419  0.0935  0.1418 -0.1084
24721W        W40530   9.081  13.589  15.802  0.2411  0.1200 -0.2875
24722W        W40531  17.776   3.906  11.163  0.2998 -0.2777 -0.0651
24723W        W40532   4.517  12.339  12.537  0.1441  0.0628  0.0754
24724W        W40533   9.071  10.281  15.727  0.0089 -0.0238  0.1018
24725W        W40534   7.380   9.899   2.558 -0.1733  0.0538  0.3692
24726W        W40535  17.983   1.216   2.793  0.2762 -0.1927 -0.0210
24727W        W40536  10.201   1.469   1.789  0.2150  0.0907  0.0920
24728W        W40537   4.589   7.796   2.896 -0.0299  0.1594 -0.0038
24729W        W40538  12.264  10.918  13.356  0.0058  0.0023 -0.0225
24730W        W40539  12.870  17.715   2.117 -0.0810 -0.1985  0.0730
24731W        W40540  15.287  15.733   3.221  0.0255  0.0647  0.1740
24732W        W40541   5.980  11.703   1.714 -0.0870 -0.0278  0.1220
24733W        W40542  16.806   4.646  11.457  0.1716 -0.0114 -0.3036
24734W        W40543   5.440  18.320  15.337 -0.2032  0.0578 -0.1737
24735W        W40544  13.767   3.036  11.171 -0.1080  0.0215  0.1155
24736W        W40545   4.653   6.023  12.224 -0.0085  0.1862  0.0072
24737W        W40546   1.235   0.843   2.376  0.2417 -0.3409  0.0108
24738W        W40547   2.677   0.439   0.602  0.0993 -0.0801 -0.2389
24739W        W40548   4.780   0.036   4.756 -0.0220  0.0789  0.3194
24740W        W40549  16.591  17.264  14.466 -0.1818  0.1932 -0.0870
24741W        W40550  16.724   4.531  12.408  0.0941  0.2345 -0.1287
24742W        W40551  11.415  10.000  13.844  0.1340 -0.2342  0.0618
24743W        W40552  13.669  18.317   4.314 -0.3089  0.1562 -0.1165
24744W        W40553  12.530  11.560  12.526  0.0092  0.1343  0.4596
24745W        W40554  16.320  10.360   5.421 -0.1969  0.1756  0.1881
24746W        W40555   3.518  18.260  15.479  0.0610  0.3155  0.2531
24747W        W40556   2.809   8.592  10.508  0.1634 -0.2815 -0.0437
24748W        W40557   4.469  13.524   0.572  0.3361 -0.1318  0.1336
24749W        W40558   5.173   8.144  14.206  0.2050 -0.0267 -0.1660
24750W        W40559  10.244  12.143   2.821 -0.0058  0.1262 -0.1759
24751W        W40560   6.784   8.229  13.500 -0.3631 -0.1148 -0.0574
24752W        W40561  16.067   4.070  13.299  0.0615 -0.1620 -0.2348
24753W        W40562  15.477   9.618   1.184 -0.1486  0.0924 -0.3499
24754W        W40563   3.061  14.625  14.902  0.4385 -0.1583  0.2534
24755W        W40564  17.471   3.836   5.844  0.1187  0.0499 -0.2438
24756W        W40565  11.050  11.543   5.899  0.0178  0.3430 -0.1186
24757W        W40566   7.701   1.648   4.562 -0.1582  0.0548 -0.0944
24758W        W40567   2.324   9.595  14.532 -0.2506  0.1160 -0.0003
24759W        W40568   3.639  15.426   4.954  0.1942  0.1293  0.1011
24760W        W40569   5.195   2.507  13.196 -0.0007  0.2370 -0.1412
24761W        W40570   1.304   8.527  12.000 -0.0771 -0.0210 -0.0110
24762W        W40571  10.452  12.697  11.973 -0.1404  0.2344  0.1967
24763W        W40572  13.700   7.680  12.849  0.2095  0.0045 -0.0341
24764W        W40573   0.906  11.699  15.093  0.0742 -0.0322  0.0900
24765W        W40574   2.305  11.814  10.764  0.1755  0.1306  0.0595
24766W        W40575   7.410  14.016  11.883  0.0345  0.1721  0.2978
24767W        W40576   9.248   2.959  14.405 -0.1562 -0.1837  0.0872
24768W        W40577   9.426  15.626   3.979  0.0608  0.0070 -0.1430
24769W        W40578  13.342  13.806   5.651  0.0428  0.0685  0.2947
24770W        W40579   0.119   5.880   5.396 -0.0109  0.2176 -0.0459
24771W        W40580   5.008  18.261   2.143 -0.1637 -0.0670  0.0040
24772W        W40581   8.585   5.438  10.637  0.3337  0.1444  0.1023
24773W        W40582   2.810  17.673  14.672  0.1818  0.0393 -0.0827
24774W        W40583   8.336  15.594   0.569  0.2553 -0.0509 -0.0734
24775W        W40584  13.378   6.329  13.291 -0.1824 -0.0855 -0.0105
24776W        W40585   3.663  14.562  13.710 -0.1195 -0.2529 -0.0791
24777W        W40586  17.523  17.814   1.483 -0.1014 -0.0944 -0.2598
24778W        W40587   3.600  15.062  15.613  0.0531 -0.0702 -0.2719
24779W        W40588  17.116  15.861  12.287 -0.0336 -0.0572  0.1427
24780W        W40589   2.651  15.934  14.486  0.1958  0.1664 -0.1989
24781W        W40590  11.792   9.007  15.505 -0.0948 -0.1681 -0.3068
24782W        W40591   0.159   8.921   2.511  0.0766 -0.3390  0.1097
24783W        W40592  17.527  10.156  10.996  0.2372  0.0260 -0.2278
24784W        W40593   0.075  18.277  10.795  0.2830  0.2682  0.0501
24785W        W40594   8.602  17.383  14.707  0.0582 -0.0089 -0.0514
24786W        W40595   7.117   6.957  10.166 -0.1247 -0.0384 -0.2514
24787W        W40596   1.737   7.716   3.698 -0.0559 -0.2042  0.2745
24788W        W40597  11.309  17.183  12.848  0.1743 -0.2226  0.3939
24789W        W40598   9.418   9.355   1.562  0.2731 -0.0533 -0.2362
24790W        W40599   6.853  12.897   0.992 -0.1587  0.0640  0.2329
24791W        W40600   9.709   6.091  12.423  0.0896  0.3037 -0.1655
24792W        W40601   8.544   1.401   0.489 -0.1077 -0.0721 -0.0952
24793W        W40602   1.636  16.343  11.760 -0.1367  0.1555  0.3222
24794W        W40603  16.114  15.761  13.262  0.0216 -0.2332  0.1127
24795W        W40604   9.229   9.526   0.461  0.2018  0.2509 -0.0809
24796W        W40605  14.247   7.032  12.821  0.0543 -0.2587  0.2405
24797W        W40606   7.022  13.542   0.399 -0.4382 -0.2706  0.2385
24798W        W40607  15.793   4.688  14.151  0.0138 -0.2571  0.1163
24799W        W40608  12.532   3.149   1.585 -0.0340 -0.1012  0.1859
24800W        W40609   8.571   5.427  11.631 -0.2833  0.0905 -0.0170
24801W        W40610   4.881   3.001  15.661 -0.0775 -0.1408  0.2091
24802W        W40611  16.650  15.453  13.065 -0.1625  0.0652 -0.1266
24803W        W40612  17.393   9.945   6.128 -0.0788 -0.0967  0.1301
24804W        W40613   2.223  17.537  11.073  0.1629  0.0068  0.2588
24805W        W40614  10.691  12.455  12.726  0.2936 -0.1931  0.0593
24806W        W40615   9.133  17.517   4.498 -0.1967  0.2623  0.1724
24807W        W40616  13.511   6.823   5.585  0.2127  0.1656  0.1002
24808W        W40617  11.455   4.042  13.517 -0.0676  0.0726 -0.1548
24809W        W40618   5.365   4.547  11.352  0.2256  0.2668 -0.0300
24810W        W40619   2.563  14.658  11.674  0.1207  0.0811 -0.0131
24811W        W40620   2.943   3.437   2.712  0.0958 -0.1547  0.0708
24812W        W40621   0.649   6.067  14.506  0.0077 -0.0739 -0.1450
24813W        W40622   9.515   4.103   5.557  0.1706  0.2140  0.0962
24814W        W40623  12.779  15.133  11.185 -0.1144 -0.1346 -0.0896
24815W        W40624  11.649  10.136  15.274 -0.1969 -0.0978  0.1983
24816W        W40625   8.059  11.624   0.544 -0.1669  0.3383 -0.0778
24817W        W40626  14.007  14.981   0.544  0.0224  0.0216  0.0300
24818W        W40627  13.412   0.566  11.700  0.1742 -0.2643  0.2236
24819W        W40628  12.873   1.305  11.624 -0.0346  0.0134 -0.0190
24820W        W40629   7.553   5.015  14.092  0.0314 -0.1224 -0.2693
24821W        W40630  10.564   1.128  15.626  0.0794  0.0857  0.0851
24822W        W40631   6.525   4.113   9.348 -0.0801 -0.1246  0.1550
24823W        W40632  13.455   7.825  14.876 -0.3045 -0.1494  0.0046
24824W        W40633  16.882  10.291  12.458 -0.1296 -0.2404  0.1142
24825W        W40634  16.190   9.600  11.784  0.0973 -0.1827 -0.0620
24826W        W40635  15.471   3.020  11.796 -0.0498  0.0646 -0.1878
24827W        W40636   0.853  14.032  13.457  0.1023  0.1819  0.3338
24828W        W40637  14.206  10.059   0.192  0.0696  0.2183  0.0165
24829W        W40638  11.143   4.824   1.145  0.1591  0.0340  0.4113
24830W        W40639  12.350  16.176  13.586 -0.1978 -0.0548 -0.2961
24831W        W40640  11.433   4.997  13.772  0.1214  0.1499 -0.4552
24832W        W40641   7.003  15.551   5.032  0.1444 -0.0439 -0.0079
24833W        W40642   0.277   4.149  15.761 -0.0201 -0.0096 -0.2659
24834W        W40643   0.801   5.130   5.019  0.2002  0.1077 -0.1252
24835W        W40644   3.470  14.915  12.417 -0.2383  0.0888  0.1477
24836W        W40645  17.629   7.763   1.312 -0.0621  0.1631 -0.0617
24837W        W40646  13.074  11.697   2.361  0.0494  0.0386  0.0019
24838W        W40647   1.506   4.551   1.463 -0.3531  0.2733  0.3006
24839W        W40648   1.575  18.091   1.457  0.0226  0.3604 -0.2376
24840W        W40649  11.155   0.918   4.881 -0.2645  0.0252  0.0920
24841W        W40650  13.451   0.203  12.063  0.1838 -0.1781  0.1086
24842W        W40651  12.408   8.834   5.146 -0.0316  0.2235  0.0821
24843W        W40652  16.693   1.648  13.427  0.2821  0.2476 -0.4216
24844W        W40653   1.768  17.178   3.337  0.0801 -0.1635  0.0835
24845W        W40654   1.020   8.853  11.696 -0.1204 -0.2094  0.1236
24846W        W40655  13.743   9.248  11.511 -0.0120 -0.4134  0.3729
24847W        W40656  18.140  15.854  10.992  0.0919 -0.1370 -0.1189
24848W        W40657   5.197  12.357   5.687 -0.0946 -0.1244 -0.2490
24849W        W40658   4.739  18.448  12.187  0.0630  0.0394 -0.0203
24850W        W40659   9.340   7.440   4.289 -0.1365  0.0720 -0.0202
24851W        W40660  18.335   8.093  12.268 -0.0546 -0.0445 -0.2557
24852W        W40661  10.399  18.234   3.982 -0.0875  0.3245 -0.0712
24853W        W40662  17.625   3.482   0.104  0.1615 -0.0045 -0.6184
24854W        W40663  11.747   4.951   1.484  0.0706  0.0155 -0.3108
24855W        W40664   9.502  16.754  11.077 -0.1676  0.1102  0.1888
24856W        W40665  16.936  14.028  15.799 -0.0027 -0.1713 -0.1722
24857W        W40666  10.384   6.133   2.714  0.0261 -0.1356  0.1411
24858W        W40667  16.718  13.649   4.224 -0.0245 -0.0801  0.1302
24859W        W40668   5.078   1.890   0.478  0.0379 -0.1530 -0.2160
24860W        W40669   2.942  17.919   1.562 -0.1286 -0.6856 -0.5520
24861W        W40670  16.734   0.174   3.110 -0.1195  0.2232 -0.1849
24862W        W40671   7.088  12.039  15.115 -0.1013 -0.3879 -0.0933
24863W        W40672  11.505   0.863   4.333 -0.0346 -0.4895  0.2825
24864W        W40673  11.970  11.103   5.455 -0.2500  0.0183 -0.0792
24865W        W40674   5.444   5.193   1.105 -0.0119 -0.1605 -0.0202
24866W        W40675  14.723  11.558  14.344  0.1697 -0.1929 -0.1027
24867W        W40676   3.153   0.849   3.750  0.1481 -0.1556  0.0276
24868W        W40677   8.868  12.952   2.034 -0.0105  0.0262  0.1968
24869W        W40678  16.190   3.953   1.007 -0.1630  0.2082  0.3010
24870W        W40679   0.363   2.851  11.172 -0.0670 -0.0403  0.0027
24871W        W40680   7.871  14.975   1.080  0.0969 -0.0230  0.3842
24872W        W40681   8.906  13.100  15.780  0.1754 -0.3046  0.0762
24873W        W40682   1.761   7.096   5.391  0.0658  0.0059  0.3776
24874W        W40683   2.361   2.377   5.227  0.1761  0.0690  0.2676
24875W        W40684   5.830  16.918  12.577 -0.1268  0.1237 -0.1182
24876W        W40685   8.535   2.181  15.277 -0.0116  0.0784 -0.0983
24877W        W40686   1.612  13.423  13.619 -0.0463  0.1457 -0.2612
24878W        W40687   5.856  16.856   3.297 -0.1230 -0.2873  0.0510
24879W        W40688   7.770  10.263   1.833  0.0443 -0.2444 -0.1763
24880W        W40689   7.408   1.770   3.798  0.2628 -0.1450 -0.0034
24881W        W40690   6.923   3.266  12.956  0.3572 -0.1166  0.1057
24882W        W40691   3.568  14.426  12.153  0.0431 -0.1414  0.1885
24883W        W40692   6.262  12.134  13.830 -0.0514  0.3537 -0.1212
24884W        W40693  13.000   8.058   4.275  0.0862  0.1033  0.0554
24885W        W40694   2.153   8.780   5.261  0.4713 -0.1916 -0.2648
24886W        W40695   8.792   5.778  12.122 -0.1341 -0.0851 -0.0464
24887W        W40696  12.904   7.628  11.012 -0.0287  0.0823 -0.0370
24888W        W40697  11.472   1.698   4.556  0.1765  0.0784  0.0434
24889W        W40698  18.126  18.263   9.978 -0.0675  0.1489  0.3238
24890W        W40699   1.175  13.911   1.848  0.0104  0.3587 -0.1884
24891W        W40700   7.836   7.961  13.377 -0.1376 -0.1749  0.0032
24892W        W40701   7.473  17.056   0.244 -0.2240 -0.0523 -0.1144
24893W        W40702   7.916   0.580   0.689 -0.1360 -0.0612 -0.0249
24894W        W40703  13.150   3.147  11.842 -0.3105  0.1616  0.0314
24895W        W40704   0.249  17.677  12.830  0.0138  0.0590 -0.0763
24896W        W40705   5.158  16.314   3.392 -0.1703  0.0750 -0.0497
24897W        W40706   3.386  18.195   1.577  0.0339 -0.1071  0.0611
24898W        W40707  12.496  15.672   5.529  0.0781 -0.2011 -0.2389
24899W        W40708  14.980   1.934  15.360  0.0895 -0.1636  0.0350
24900W        W40709  14.509  13.649   4.159 -0.0564 -0.0278 -0.2510
24901W        W40710   7.244   7.665   4.043  0.1333  0.1886  0.0314
24902W        W40711  14.013   6.732  15.264 -0.0446 -0.1172  0.0120
24903W        W40712  16.556   3.662  13.947 -0.1079 -0.0139 -0.0226
24904W        W40713   5.946   7.809   4.067  0.1694 -0.3627 -0.0369
24905W        W40714   6.393  10.375  14.718 -0.3553 -0.2009 -0.1616
24906W        W40715  15.974   1.889  14.758 -0.1031 -0.2485  0.0973
24907W        W40716   5.266  10.444   0.582  0.0641 -0.1342  0.4817
24908W        W40717   7.810   3.474  11.278 -0.1341  0.0389 -0.2854
24909W        W40718   4.099   6.218  13.521 -0.2184 -0.1462  0.0205
24910W        W40719  15.876  13.384  12.205 -0.0294 -0.1562  0.0862
24911W        W40720   9.904  11.579   4.019  0.1966 -0.3216  0.1212
24912W        W40721  15.763   4.851  12.755  0.1259 -0.1208 -0.2059
24913W        W40722   8.507  11.509  11.032 -0.0033  0.4246 -0.0216
24914W        W40723   6.184  14.981  15.108 -0.1294  0.0483  0.2673
24915W        W40724  12.534   7.910   4.572  0.0632  0.0997  0.1429
24916W        W40725   3.974   5.347   3.557  0.2519  0.0374  0.0378
24917W        W40726   7.855   1.347   1.233  0.0413 -0.2724 -0.2483
24918W        W40727   7.871   7.091   3.137  0.0187  0.3277 -0.1071
24919W        W40728  18.356  15.453   4.253 -0.1610  0.0566 -0.0941
24920W        W40729   7.509   8.272  15.803  0.3768 -0.2232  0.2258
24921W        W40730   9.955  15.732  12.425  0.2469  0.1022 -0.0116
24922W        W40731   6.565   4.986   3.508 -0.2371  0.0519  0.0085
24923W        W40732   7.597  18.412   4.536  0.0028 -0.0830 -0.1028
24924W        W40733   9.822  10.418  11.111  0.0066 -0.1944 -0.3888
24925W        W40734   9.037   9.356  12.978 -0.0231 -0.1039 -0.1547
24926W        W40735  17.062   9.255   3.765  0.1597 -0.1560  0.0085
24927W        W40736   9.109   5.562  15.492 -0.0260 -0.0130 -0.0826
24928W        W40737  10.767   9.768  14.147 -0.0304 -0.3256 -0.1896
24929W        W40738  15.042   1.021   3.551  0.1463 -0.2217 -0.0542
24930W        W40739   3.358   1.536  10.860 -0.0473  0.1692 -0.4088
24931W        W40740   0.759   7.961   0.089 -0.0824 -0.0097 -0.2171
24932W        W40741  16.422   9.391   5.444  0.2802 -0.1041 -0.0316
24933W        W40742  16.137   3.605   1.303  0.0116  0.3213  0.0562
24934W        W40743   4.782  10.087   0.747 -0.0805  0.1775 -0.3056
24935W        W40744   6.985  15.008   4.979 -0.3509 -0.0269 -0.0202
24936W        W40745   0.542   4.408   1.594  0.0304  0.2013 -0.2173
24937W        W40746   7.008  10.839   4.723 -0.0001 -0.1785  0.2742
24938W        W40747   2.158   9.909  13.574  0.0647 -0.2936 -0.0918
24939W        W40748   1.632  10.020  15.587  0.0169  0.1293  0.0829
24940W        W40749   0.843   8.048  14.943 -0.0978 -0.1672 -0.0983
24941W        W40750   5.762   2.818   5.294 -0.0288  0.0869 -0.0438
24942W        W40751  10.774  10.385   4.435  0.0466  0.0083 -0.0191
24943W        W40752  11.978   0.496   3.931  0.0816 -0.1021 -0.2224
24944W        W40753   1.156  11.576  15.656  0.0418 -0.1308 -0.0714
24945W        W40754   6.261   7.428  14.969 -0.4514  0.1663  0.2127
24946W        W40755   4.364   0.323   2.528  0.0283  0.2885 -0.2472
24947W        W40756   4.453  15.048   3.608 -0.2476  0.0790 -0.0430
24948W        W40757   8.198   9.550   4.074 -0.0771  0.0409 -0.0242
24949W        W40758  10.307   5.786  14.175 -0.1032 -0.1040 -0.0320
24950W        W40759   8.557   4.317   3.243  0.0896  0.1854  0.0481
24951W        W40760   9.377   3.704   2.954 -0.0003  0.1466 -0.3333
24952W        W40761   4.461  13.207   4.921 -0.2556  0.2180  0.0179
24953W        W40762   6.849  11.859  13.761  0.1027 -0.0205  0.2221
24954W        W40763  17.740  14.428   2.006 -0.0960 -0.0795 -0.2017
24955W        W40764   9.196  15.397  14.075 -0.2302  0.0379 -0.2692
24956W        W40765  14.735  10.278  12.379 -0.4335 -0.2104 -0.3028
24957W        W40766  12.402   7.624   2.435  0.0781 -0.0102 -0.4767
24958W        W40767  16.521   6.932  11.890 -0.0963  0.0939 -0.3256
24959W        W40768  17.639  15.364  15.595  0.0159  0.0304 -0.1086
24960W        W40769  18.175  18.057   0.103 -0.0854 -0.0855 -0.0315
24961W        W40770  10.859  15.177   0.254 -0.2178  0.1034  0.2277
24962W        W40771  14.138   4.658  10.217 -0.0776  0.0151 -0.0975
24963W        W40772  12.595   3.142   4.918  0.1307  0.1899  0.0121
24964W        W40773  13.254   8.450  13.099  0.0331  0.0194  0.0820
24965W        W40774   1.876   0.276   2.113 -0.0115  0.0887  0.1707
24966W        W40775   3.148  15.697  15.121  0.0408 -0.1770 -0.4461
24967W        W40776  12.584   2.313   3.197  0.3772 -0.1844  0.0544
24968W        W40777   1.241   8.479   1.374  0.0340  0.1098 -0.2768
24969W        W40778  16.726  18.000   5.519 -0.2068 -0.0630 -0.2219
24970W        W40779   5.650  13.370  14.738  0.2056 -0.1548  0.0996
24971W        W40780   2.649   1.725   3.313  0.0705  0.1586 -0.2390
24972W        W40781  16.001   7.445  14.897 -0.0221 -0.3293  0.1121
24973W        W40782  15.824   7.965   1.595 -0.2004 -0.0543 -0.3182
24974W        W40783  15.836   7.119   3.007 -0.4037 -0.0436 -0.2827
24975W        W40784   6.655   4.070  12.531  0.1897  0.0688 -0.1323
24976W        W40785   3.639  11.573  12.743 -0.0697  0.1986  0.2691
24977W        W40786   2.146   4.114   3.847 -0.1507 -0.1552  0.1490
24978W        W40787   3.224   4.962   2.664 -0.1399  0.0553 -0.0077
24979W        W40788   6.588  14.455   2.534 -0.0781  0.0695 -0.2255
24980W        W40789  15.517  16.145  11.418 -0.1866 -0.1508 -0.0000
24981W        W40790  15.136   9.539  14.629  0.1593 -0.0214 -0.0050
24982W        W40791   7.312   5.996   1.918  0.4758  0.0356  0.0751
24983W        W40792  14.375   2.478   3.874 -0.0978 -0.0382  0.1367
24984W        W40793  13.568   1.549  12.218 -0.1003  0.1322  0.1236
24985W        W40794  12.431  16.260  13.114  0.0692 -0.2696  0.3091
24986W        W40795   6.873  10.809   5.590  0.1909 -0.1307 -0.2998
24987W        W40796   7.686   2.906  13.318 -0.1625 -0.1307 -0.1061
24988W        W40797  16.688  12.085  14.831  0.1120  0.1424  0.2231
24989W        W40798  16.317   2.524  15.237 -0.0442 -0.0477  0.0883
24990W        W40799   5.249   1.630   0.068  0.2747  0.2588 -0.2417
24991W        W40800   0.630   5.323   1.127 -0.0214  0.0822  0.1526
24992W        W40801   8.709   9.155  15.030 -0.1387 -0.3111  0.0285
24993W        W40802  16.443   8.084   2.268 -0.1346  0.0277  0.0166
24994W        W40803  15.177  13.334   0.091 -0.2709 -0.0112  0.0949
24995W        W40804   5.698   0.551  14.940  0.1670 -0.0080  0.0101
24996W        W40805   5.222  18.378   1.708  0.0317  0.2395  0.0828
24997W        W40806   5.899   7.309  13.142 -0.1920  0.1705 -0.1934
24998W        W40807  14.271   7.172  15.426  0.1046  0.0251 -0.1480
24999W        W40808   5.829  14.170   1.381  0.0264 -0.0104  0.0131
25000W        W40809  16.701   6.450   4.786 -0.4045 -0.2475  0.1799
25001W        W40810   1.425  17.367  11.430 -0.2960 -0.0788  0.1109
25002W        W40811   3.047   1.369   3.431  0.2766  0.1182  0.0073
25003W        W40812   8.922  16.040   1.352  0.1658  0.0520 -0.1049
25004W        W40813  16.126   3.110  14.621 -0.0310  0.2224  0.0303
25005W        W40814   5.503  14.575  12.948  0.0351  0.2582  0.2438
25006W        W40815  13.535   9.498   0.697  0.2047 -0.3435 -0.0997
25007W        W40816  18.370  16.371   3.191  0.0105 -0.0635  0.2506
25008W        W40817  11.413  11.898  13.344 -0.1554  0.0190  0.4243
25009W        W40818  14.481   6.639  15.359 -0.1386 -0.0153  0.0660
25010W        W40819   0.332   2.812   0.260 -0.0831 -0.1995  0.0012
25011W        W40820   1.732   4.483  15.634  0.1464 -0.1448  0.1457
25012W        W40821   3.465   3.500  12.743 -0.0143  0.1694 -0.1162
25013W        W40822   8.389  10.313   4.598  0.0303  0.0474  0.1065
25014W        W40823  15.130   1.635  12.944  0.0966  0.0915 -0.0897
25015W        W40824  14.934  12.490  15.072 -0.0879 -0.0986  0.1338
25016W        W40825  14.893  16.863  14.240 -0.2486 -0.0841  0.1746
25017W        W40826   7.760   6.907   0.742  0.0439 -0.1075 -0.2339
25018W        W40827  10.497   8.812   4.555 -0.1105 -0.4233  0.1941
25019W        W40828   8.557   0.845   2.346 -0.1851 -0.1181 -0.0790
25020W        W40829  17.859  17.127   1.930 -0.1546  0.0792 -0.3164
25021W        W40830  10.955  14.962   1.992 -0.0951  0.0301  0.1378
25022W        W40831  12.501  17.113  13.360  0.1029  0.4115  0.3770
25023W        W40832   9.532   1.672  12.936  0.0718  0.1782  0.2610
25024W        W40833  10.123  12.980   3.614  0.0058  0.0346 -0.3412
25025W        W40834   7.364  16.876   1.217  0.2646 -0.0506  0.0956
25026W        W40835  15.673   7.078  15.022  0.0984  0.0581 -0.0027
25027W        W40836  14.286  17.544  14.809  0.0065 -0.0263 -0.1091
25028W        W40837  14.663   0.900   3.941  0.0544  0.1993  0.2756
25029W        W40838   1.167  18.070   0.936 -0.0512  0.1425 -0.0102
25030W        W40839   2.335   8.042   3.135  0.1075 -0.0557 -0.3477
25031W        W40840  10.929  13.909  12.722 -0.2344 -0.1272  0.2338
25032W        W40841  16.820   2.531  13.261  0.0875  0.0491  0.2570
25033W        W40842   1.911   0.702   1.843 -0.0361  0.1074 -0.0953
25034W        W40843   3.100   7.744   6.083  0.0173 -0.1608 -0.2285
25035W        W40844  15.476  13.512   0.514  0.3359  0.1046 -0.1937
25036W        W40845  14.978  16.180   4.257  0.2363 -0.1126 -0.0593
25037W        W40846  16.775   6.534   2.697  0.2896  0.0779 -0.1606
25038W        W40847  17.311   2.367  14.585  0.2249  0.1920  0.0530
25039W        W40848  13.681   2.640   2.408 -0.1482  0.0331  0.0155
25040W        W40849  16.137   9.353  13.696  0.3156  0.1829  0.0036
25041W        W40850   2.199   1.890   1.689  0.0257  0.2645 -0.1916
25042W        W40851  13.198  16.288   3.586  0.1614 -0.0700  0.1911
25043W        W40852  18.010   8.660  13.004  0.1228  0.3132  0.2308
25044W        W40853  13.309  11.509  12.162 -0.1432  0.1177  0.1005
25045W        W40854   3.466  15.466  14.666 -0.0281  0.0289  0.2081
25046W        W40855   9.725  10.433   0.223 -0.2078 -0.0378 -0.0968
25047W        W40856  11.718  18.401  15.432 -0.1111 -0.0158  0.2508
25048W        W40857   7.532  11.374   1.409 -0.0664 -0.1028  0.0940
25049W        W40858  15.977  16.856  12.294 -0.2164  0.2264 -0.0605
25050W        W40859  16.488   3.184  14.130  0.0783  0.2355 -0.0688
25051W        W40860  11.507   7.696  12.202 -0.3796  0.0552 -0.0569
25052W        W40861   2.539  11.455  14.685  0.2175 -0.2284 -0.0977
25053W        W40862  16.293  18.188   2.437  0.2016 -0.3517 -0.0798
25054W        W40863  17.371  11.359  11.972 -0.0623  0.0690 -0.1409
25055W        W40864  10.127  17.514  12.793 -0.0089 -0.3662 -0.2870
25056W        W40865  11.106   3.138   0.610  0.0961  0.2516 -0.2151
25057W        W40866  11.369  15.583  15.639  0.4656  0.2354  0.2632
25058W        W40867  10.031   8.594   2.112 -0.1449  0.1723 -0.4970
25059W        W40868  16.484  13.310  15.068 -0.1816 -0.0358 -0.1493
25060W        W40869  14.533   2.033   4.765 -0.0414  0.0705 -0.2365
25061W        W40870  14.100   2.711   0.583 -0.1394  0.0637  0.0341
25062W        W40871   2.076   6.356   3.715 -0.1280  0.2152 -0.2281
25063W        W40872  18.021   9.044   3.967  0.0640 -0.4401  0.1965
25064W        W40873   9.663  16.543   0.647  0.1715 -0.0443  0.3076
25065W        W40874  14.546  10.628  14.208 -0.5263 -0.0853  0.0334
25066W        W40875   9.452   6.354   1.739  0.0194 -0.0851 -0.1840
25067W        W40876   2.279  10.840  15.325  0.1880 -0.5130  0.0802
25068W        W40877  17.663  16.626   5.085  0.2076  0.2250  0.0557
25069W        W40878   2.214  15.331  13.822 -0.1286 -0.0748  0.1542
25070W        W40879  16.349  15.529  15.137 -0.1433  0.2292  0.0478
25071W        W40880   0.555   3.365   2.032 -0.1337 -0.1353  0.1086
25072W        W40881  13.940  11.384   0.854 -0.1582 -0.0843 -0.2545
25073W        W40882  18.255   5.106  11.567  0.3507  0.0840 -0.1567
25074W        W40883  11.061  15.077   4.477  0.1254  0.1345 -0.0367
25075W        W40884  16.280  13.283  14.030  0.1500  0.0733  0.0336
25076W        W40885  11.778   8.950   1.936  0.0656 -0.2283  0.0756
25077W        W40886   6.614   0.333  13.914  0.0286  0.1690 -0.0730
25078W        W40887   2.662  13.989  13.831 -0.0826  0.1180 -0.1908
25079W        W40888   8.160  12.549   1.234 -0.1275 -0.0231 -0.3765
25080W        W40889   8.815  17.729  11.030 -0.1787 -0.1073  0.0782
25081W        W40890  12.865  16.256  15.809 -0.2254 -0.1492 -0.3321
25082W        W40891  16.831  16.716  10.720 -0.0001 -0.0452  0.0901
25083W        W40892  14.001   8.249   4.565 -0.0051  0.1620 -0.1120
25084W        W40893   1.842  16.544   0.721 -0.2176  0.2265 -0.0657
25085W        W40894  17.050   1.132  11.076 -0.0222 -0.1179 -0.1209
25086W        W40895   9.647  18.207  14.782  0.1811  0.0988  0.1473
25087W        W40896  10.497  13.192   5.399 -0.0205  0.0652 -0.0915
25088W        W40897  10.484   6.325  14.390  0.1622  0.1545 -0.2555
25089W        W40898   8.404   3.462  14.412 -0.0385 -0.1158  0.0702
25090W        W40899   6.525  12.108  12.633 -0.2607 -0.3967 -0.2146
25091W        W40900   5.599  12.301   1.918  0.0461 -0.0432  0.1336
25092W        W40901   5.284   5.309  15.142 -0.2004  0.0750  0.1081
25093W        W40902  17.388  15.234  14.817 -0.0528 -0.0579 -0.1571
25094W        W40903   1.057  17.923   2.908  0.0592  0.0840  0.0161
25095W        W40904   2.750  18.373   3.682  0.2302 -0.1438 -0.0203
25096W        W40905   8.373  16.069   1.330 -0.2200 -0.0845  0.0811
25097W        W40906   7.187  14.879   1.744 -0.0158 -0.2527 -0.2637
25098W        W40907   0.852   2.502   1.074  0.0681 -0.0964  0.0496
25099W        W40908  10.978   1.930   4.603 -0.2436  0.3860  0.1123
25100W        W40909  15.549  13.133   9.994  0.0415  0.1825 -0.1235
25101W        W40910   1.776   0.155  11.614  0.4394 -0.2584  0.0404
25102W        W40911  11.594   1.618   2.723  0.2825 -0.1058  0.1680
25103W        W40912   4.947   2.865   2.514  0.1023  0.0040  0.0656
25104W        W40913  14.594   6.117  11.134 -0.0910  0.1149 -0.0517
25105W        W40914  17.538   7.449   4.984 -0.3158  0.0202  0.2065
25106W        W40915   9.920  14.538   3.537  0.0312  0.1394  0.1186
25107W        W40916   8.037   8.588   4.278 -0.1377 -0.2025  0.2075
25108W        W40917  11.604   0.265   1.891  0.1078 -0.0930  0.4066
25109W        W40918  12.018   4.987   4.000  0.0829 -0.1337 -0.3220
25110W        W40919   3.676  12.774  12.265 -0.2156  0.0158 -0.2139
25111W        W40920   8.102  11.086  15.482 -0.0693  0.0162  0.1700
25112W        W40921   7.541   2.008   1.790 -0.3874 -0.0078  0.0784
25113W        W40922   5.593   1.759  13.419 -0.0468  0.2526  0.0886
25114W        W40923  14.939   9.248   5.697 -0.1218  0.0571 -0.0512
25115W        W40924   1.065  13.483  11.464  0.1175 -0.0730 -0.1118
25116W        W40925   6.905   0.155   2.459 -0.1514  0.1707 -0.1075
25117W        W40926  16.118   8.239  15.529 -0.0032 -0.1235  0.1410
25118W        W40927   2.163   7.050   0.957 -0.1871 -0.0147 -0.2263
25119W        W40928   5.191   3.545   3.039  0.0860 -0.0011  0.1026
25120W        W40929  16.226  12.873  15.371 -0.1168 -0.1695  0.1464
25121W        W40930  12.357   7.127  11.331  0.1744 -0.3585 -0.2033
25122W        W40931   9.547   9.405  13.076  0.2634  0.1556  0.0218
25123W        W40932  12.022   4.789  13.399  0.2187 -0.0375 -0.1280
25124W        W40933   4.699   2.613  12.627 -0.0493  0.2514  0.0671
25125W        W40934   3.052  17.798  13.309  0.0847  0.1186 -0.0266
25126W        W40935   7.288  13.236   4.965 -0.1732 -0.0913 -0.0155
25127W        W40936   8.783   7.167   2.983 -0.0220  0.2275 -0.1191
25128W        W40937  17.261   6.463   1.264  0.0235 -0.0775  0.0139
25129W        W40938  15.184  13.955  13.339 -0.0665  0.1518 -0.1109
25130W        W40939  15.849  12.688   1.912 -0.2881  0.1949  0.0154
25131W        W40940   2.552  14.597  11.160  0.1209  0.0656  0.0935
25132W        W40941  13.196   1.323   0.746 -0.1183  0.1440 -0.0746
25133W        W40942   7.711  15.280  15.691  0.0151 -0.1298 -0.2943
25134W        W40943  13.741   0.330  13.585 -0.1123  0.1442 -0.2144
25135W        W40944  18.160   3.952   3.143 -0.0506  0.0310 -0.3233
25136W        W40945  11.930   1.852   4.368 -0.1011  0.0836  0.0670
25137W        W40946  17.111  18.066  11.614 -0.3063  0.4189  0.0885
25138W        W40947  10.152  13.121  10.643  0.0939 -0.2574  0.0857
25139W        W40948  14.511  12.783  12.432 -0.3870  0.2742 -0.0451
25140W        W40949  15.567   9.307  11.808 -0.2184  0.1162 -0.0633
25141W        W40950  13.920   0.201  12.768  0.1875  0.1176  0.0619
25142W        W40951   5.721  11.526  11.144  0.1607 -0.2168  0.0525
25143W        W40952  12.644   9.917   0.533  0.0238  0.0648  0.2495
25144W        W40953   7.643  12.652   2.792  0.0272  0.2421 -0.0230
25145W        W40954   1.858  12.097   3.875 -0.1154  0.0649 -0.1357
25146W        W40955   4.932   4.402   0.379  0.1215 -0.2374 -0.3999
25147W        W40956   2.840   1.997   0.295 -0.1746  0.3405  0.0644
25148W        W40957   0.925  11.983  12.084 -0.0799 -0.0884 -0.0351
25149W        W40958  18.445   4.462   2.378  0.0387 -0.2527  0.3014
25150W        W40959   9.918   3.074  13.785  0.0469 -0.2981  0.0331
25151W        W40960  10.102  13.570   1.831 -0.1775  0.2391  0.0319
25152W        W40961  17.093   4.996   3.807  0.1665  0.2324  0.3127
25153W        W40962  12.497   3.340   3.486 -0.0044 -0.2500  0.0979
25154W        W40963  12.877  13.582   3.733 -0.2084 -0.1646  0.2758
25155W        W40964   4.515  18.077   3.443  0.0353  0.1737 -0.0192
25156W        W40965  13.793   9.833   3.454  0.0223  0.0247  0.0009
25157W        W40966  17.656   0.103  10.931  0.1342  0.0179 -0.1980
25158W        W40967  16.534   4.389   5.098  0.1927 -0.3500 -0.1629
25159W        W40968  10.439  17.445   0.918 -0.0418  0.0553  0.0971
25160W        W40969  10.699  10.858   1.910  0.4384 -0.0898 -0.0686
25161W        W40970   7.465  11.576  13.148 -0.1697 -0.2008  0.2150
25162W        W40971  11.226  14.130   2.946 -0.0815  0.0267 -0.0389
25163W        W40972  12.901  15.345   1.731 -0.2700  0.2437 -0.0293
25164W        W40973  17.480  12.991   2.000 -0.1130  0.2173  0.0303
25165W        W40974  10.404  14.361  11.446  0.1948  0.0283 -0.3914
25166W        W40975  17.338   7.267   1.148 -0.2087 -0.0229  0.0907
25167W        W40976   2.686  15.877   1.599  0.1690  0.2731 -0.1055
25168W        W40977   3.009  17.540   2.323  0.2108 -0.1209  0.1553
25169W        W40978  16.915  14.675   4.874 -0.1309 -0.3585 -0.0463
25170W        W40979  16.778   8.033   3.921  0.1222 -0.0071 -0.0343
25171W        W40980   5.812   8.435   0.705  0.1449 -0.0514  0.1577
25172W        W40981   2.522   7.631   1.560  0.0583 -0.2722 -0.0547
25173W        W40982  15.241   9.710  14.181 -0.1116  0.1061  0.0792
25174W        W40983  15.462   9.386   4.969  0.0033 -0.0207 -0.0917
25175W        W40984   2.626  14.526   3.675 -0.1670  0.2092  0.1245
25176W        W40985   9.677   6.426  11.654 -0.0369 -0.4382  0.1114
25177W        W40986   3.492   0.086   0.092  0.0283  0.3714  0.2247
25178W        W40987   0.689   5.358   0.610  0.0172  0.0775  0.1136
25179W        W40988   9.592  17.985   2.219  0.1710  0.0919 -0.3038
25180W        W40989   7.726   2.354   3.799 -0.1622  0.1705 -0.0817
25181W        W40990  10.866  10.858  15.351  0.1363  0.0338 -0.1104
25182W        W40991   5.689  13.770  15.755  0.0126 -0.2155  0.0909
25183W        W40992   5.828  11.920   5.905  0.0641 -0.1101 -0.1108
25184W        W40993   8.975   5.132  12.761 -0.1500 -0.0500  0.0376
25185W        W40994  15.429  15.429   0.930 -0.0948  0.0768  0.1486
25186W        W40995  12.226  10.969   3.427  0.1867 -0.1130 -0.0628
25187W        W40996   7.442  14.795  12.305  0.0608  0.3772 -0.1200
25188W        W40997   1.192  12.402   2.282  0.3323 -0.1474 -0.3184
25189W        W40998   9.627   3.639  11.570  0.3466  0.2793  0.0380
25190W        W40999   8.614  14.551  15.233 -0.0780 -0.1435 -0.2430
25191W        W41000   1.126  10.911  12.785  0.3834 -0.0108  0.1000
25192W        W41001   9.966   2.286   3.844  0.2468  0.0414  0.2893
25193W        W41002  17.719  13.261   1.047  0.1784  0.1536 -0.0742
25194W        W41003  13.553   0.328  13.102 -0.0387 -0.1489  0.1118
25195W        W41004   1.805  11.851  11.673  0.0368  0.1337 -0.1685
25196W        W41005  18.011  10.372  11.822 -0.1366  0.3289 -0.0091
25197W        W41006   0.053  10.336   4.083 -0.1484 -0.0099  0.0133
25198W        W41007  18.096  12.564   1.467  0.1083 -0.1410  0.1579
25199W        W41008  16.448   0.416  15.793  0.3122 -0.0612 -0.2502
25200W        W41009   5.762  10.664  14.266 -0.1625  0.1935  0.0102
25201W        W41010  13.416   4.632  12.280 -0.1925  0.2703 -0.0086
25202W        W41011  11.469   9.006   3.757  0.0007 -0.1072  0.2510
25203W        W41012   4.159  14.763  11.557  0.0168  0.1129  0.1364
25204W        W41013  17.028  12.794  11.363  0.0083 -0.3068  0.0720
25205W        W41014   1.169   4.767  11.117  0.0245  0.4072  0.0911
25206W        W41015   5.461   9.648  14.885 -0.1159 -0.0857 -0.1913
25207W        W41016   9.835  11.882   2.572  0.2627 -0.0927 -0.3497
25208W        W41017   9.377  17.905  15.222  0.1795 -0.2309  0.0930
25209W        W41018   0.214   2.092  15.538  0.0803 -0.1078 -0.0086
25210W        W41019  18.010  12.281   1.076 -0.2455  0.1187 -0.2988
25211W        W41020  16.462   5.968  15.413  0.0257 -0.2189 -0.1210
25212W        W41021   9.209   0.307  13.743  0.2802 -0.0537 -0.0128
25213W        W41022   5.638   6.982  11.647  0.1830 -0.0277 -0.3696
25214W        W41023  18.094   1.944   5.545 -0.0437 -0.2414 -0.0056
25215W        W41024   5.725   9.503   2.971 -0.1267 -0.2040 -0.0184
25216W        W41025   7.550   3.952  12.400  0.1556  0.4161 -0.0702
25217W        W41026   7.338   8.801   3.036  0.0793  0.0068 -0.3653
25218W        W41027  14.969  16.657   4.597 -0.2141  0.1186 -0.0847
25219W        W41028   2.471  16.787   3.462  0.0552  0.2332 -0.1742
25220W        W41029   4.060   8.104   1.559  0.2893  0.2743  0.0893
25221W        W41030   2.730  11.345   1.205 -0.2367  0.0902  0.1089
25222W        W41031  13.954   4.078  15.513  0.1151  0.2891 -0.0790
25223W        W41032  14.549   4.395  13.286  0.0917  0.2119 -0.1606
25224W        W41033  15.192   7.245   0.111 -0.1255  0.1228  0.0131
25225W        W41034   5.958   2.753  11.080  0.0182  0.2663 -0.1433
25226W        W41035   0.406   7.139  14.892  0.1769 -0.0604 -0.4282
25227W        W41036   0.609  16.405  12.266 -0.1692  0.0796 -0.4060
25228W        W41037   3.446   6.022   3.465 -0.0906 -0.0665  0.2017
25229W        W41038   5.072  18.098   3.613 -0.1563  0.0136  0.1651
25230W        W41039  14.745   7.139  12.172 -0.1722  0.0273  0.2989
25231W        W41040   4.685   2.249   5.570 -0.0755  0.1176 -0.0957
25232W        W41041  15.080  12.620   0.118 -0.2575  0.0679  0.0581
25233W        W41042   6.229  15.954   1.545  0.1660  0.1560 -0.0047
25234W        W41043  12.790   0.209  10.988  0.0925 -0.1636  0.2267
25235W        W41044   9.833  17.255  13.059 -0.0607  0.2194 -0.0520
25236W        W41045  18.036   2.868  15.071  0.0009  0.0176 -0.3022
25237W        W41046  13.504  11.559  15.645 -0.2631 -0.2450  0.2669
25238W        W41047   1.597   2.419  14.664 -0.1015  0.0517  0.0473
25239W        W41048   1.519   0.294  14.706  0.0629  0.4308  0.0673
25240W        W41049  16.122  10.156  14.142 -0.1624 -0.1076  0.0758
25241W        W41050   8.353  12.231  12.881 -0.1714 -0.0625  0.0266
25242W        W41051   6.298  14.815  13.773 -0.2128 -0.2388 -0.0773
25243W        W41052   2.436   6.680   3.980  0.1036 -0.2031  0.4176
25244W        W41053   2.772  12.259  15.445 -0.0425  0.1161 -0.0095
25245W        W41054   7.650   3.945  10.400 -0.0463  0.3504  0.0822
25246W        W41055   6.439   6.194   4.727 -0.0902 -0.1711 -0.1148
25247W        W41056   9.585  11.053  14.199 -0.5177 -0.1368  0.2592
25248W        W41057  10.356   8.256  14.604 -0.1535 -0.0858 -0.0973
25249W        W41058   4.865  18.337   3.140 -0.2906  0.1499 -0.0568
25250W        W41059  13.567  11.115   3.089 -0.1585 -0.1591 -0.1722
25251W        W41060  12.070   6.336   3.494  0.0314 -0.0933 -0.0051
25252W        W41061   7.789   9.213  15.245  0.0076  0.1311 -0.3272
25253W        W41062  11.563  17.080   4.801  0.2458 -0.1149  0.1479
25254W        W41063   0.372  17.009   0.337  0.1942  0.0815  0.1974
25255W        W41064  11.571  13.463  11.051 -0.0121  0.4897  0.0165
25256W        W41065   4.255   0.210   1.584 -0.2529 -0.0651 -0.1552
25257W        W41066  13.532   2.485   5.752 -0.1599 -0.0869  0.0488
25258W        W41067   6.454   8.155  11.793 -0.0818  0.2345  0.0328
25259W        W41068   8.822   7.893  13.151 -0.2025  0.4347 -0.0805
25260W        W41069  16.490   9.114  11.110 -0.3178  0.2115  0.2875
25261W        W41070  13.959  14.933   0.053  0.2025  0.1741 -0.1924
25262W        W41071   8.033  13.219  14.066  0.0305 -0.3755 -0.3219
25263W        W41072  15.921  16.647   3.579 -0.0531 -0.0528 -0.2479
25264W        W41073   5.471  17.691   2.941 -0.0867 -0.0329  0.2085
25265W        W41074  11.535   8.345  14.386  0.2698  0.2210  0.1774
25266W        W41075  15.869   8.526   1.459  0.2317  0.0085  0.0748
25267W        W41076   5.705   4.598  15.388  0.0249  0.0702 -0.0646
25268W        W41077   5.362  11.873  14.692  0.0849 -0.0703  0.1907
25269W        W41078   9.733  10.521   4.054  0.2177 -0.1397 -0.2064
25270W        W41079  11.746  11.059  13.424  0.1185  0.0772 -0.1442
25271W        W41080   3.494  13.947  15.346  0.0273 -0.1501  0.3564
25272W        W41081   2.475  11.292  15.278 -0.1747  0.2134 -0.0005
25273W        W41082  16.556  11.385   3.428 -0.1508 -0.0563  0.2466
25274W        W41083  11.626  18.300   5.716 -0.5437 -0.2291  0.0149
25275W        W41084   2.053   7.906   2.075  0.1445 -0.0530 -0.0213
25276W        W41085   6.427  14.578  12.763 -0.0993  0.0137 -0.0045
25277W        W41086  17.560   4.836  11.070  0.3065  0.5681 -0.1709
25278W        W41087  14.585  11.395   0.022  0.0856  0.1569  0.2727
25279W        W41088   0.027   2.029   3.303  0.1376  0.1277  0.4166
25280W        W41089   8.690  10.189   2.054  0.0954 -0.0447 -0.3547
25281W        W41090   4.600  13.449   6.033  0.1389 -0.0298 -0.1863
25282W        W41091   0.544   1.665   4.278 -0.0304  0.1323  0.0383
25283W        W41092   4.613   9.556  11.661  0.0650 -0.0974 -0.0026
25284W        W41093  13.495   7.003   1.954 -0.3041  0.0754 -0.2770
25285W        W41094  10.790  10.266   2.300  0.1536 -0.2088  0.0731
25286W        W41095   8.338  13.172   2.008  0.0557 -0.0243  0.3857
25287W        W41096   3.072   8.734  11.419 -0.5019 -0.1657  0.0107
25288W        W41097   7.851  17.846   1.187 -0.1651  0.0843  0.1749
25289W        W41098   7.658  11.574  11.970  0.0432 -0.3794  0.0822
25290W        W41099   7.430   7.895   1.991  0.3809  0.2925  0.0304
25291W        W41100  10.536  13.674  12.191  0.1710  0.0758  0.0587
25292W        W41101   4.743  17.468  15.037  0.0464 -0.0615  0.2147
25293W        W41102   0.104  14.572  11.858 -0.0549 -0.0037 -0.2912
25294W        W41103   5.564   6.175  11.622 -0.1524  0.0813 -0.0294
25295W        W41104   9.986  13.677   3.153  0.0944 -0.2385 -0.1072
25296W        W41105   6.092   6.610   2.488  0.1148  0.0767  0.1784
25297W        W41106  11.663   4.186   4.759  0.0941  0.2699  0.1975
25298W        W41107  10.771   4.463  10.361  0.0465  0.1436 -0.0560
25299W        W41108  10.538   1.572  14.066  0.0393  0.0535 -0.0513
25300W        W41109   2.745  14.968  14.719  0.3830  0.2024 -0.0549
25301W        W41110  13.898   6.226   0.021 -0.1920  0.1435 -0.0255
25302W        W41111   5.686   8.895   3.745 -0.2226  0.0066  0.0463
25303W        W41112   3.248   8.532   2.286 -0.2501  0.0141  0.1905
25304W        W41113  13.258   2.909   2.903 -0.1302  0.1132  0.0351
25305W        W41114  12.294   0.794   3.654 -0.1153  0.0810 -0.2247
25306W        W41115   9.072  12.510   5.986  0.1977  0.0972 -0.1867
25307W        W41116   9.038  18.083  15.759 -0.0778  0.0511 -0.0085
25308W        W41117   3.183   8.747   2.783 -0.0483  0.1478  0.1338
25309W        W41118  15.193  18.181   3.681 -0.0595  0.1015  0.1483
25310W        W41119  10.161   8.439   4.485 -0.0448  0.1343 -0.1415
25311W        W41120   8.493   9.823  14.968  0.0322  0.0736 -0.0768
25312W        W41121   0.652   6.846  13.819  0.2552 -0.0284 -0.0693
25313W        W41122   2.468   9.303   4.304 -0.1644 -0.2920 -0.0348
25314W        W41123   4.607  13.777  12.143  0.1032  0.1986 -0.2635
25315W        W41124   7.199   2.086   4.133 -0.0136 -0.1392 -0.0539
25316W        W41125   8.129  17.003   2.485 -0.0132 -0.3364 -0.0562
25317W        W41126   8.480   9.695   3.019 -0.0038  0.1225 -0.0009
25318W        W41127  13.507   6.964   2.439  0.1550  0.2017 -0.1158
25319W        W41128   1.868   0.101  15.162  0.0856 -0.0441 -0.0554
25320W        W41129   3.777   4.002  13.624 -0.1106 -0.0445  0.2974
25321W        W41130   9.599  12.671   5.004 -0.0733  0.3066 -0.1025
25322W        W41131   9.466  15.403   0.434  0.0505 -0.4489 -0.0724
25323W        W41132  10.670   8.856  13.636  0.1707 -0.2755  0.1637
25324W        W41133  14.680   3.495   0.203 -0.0285  0.1238  0.3322
25325W        W41134   9.033  15.784  13.812 -0.1413  0.1135  0.0235
25326W        W41135   6.828   5.485   4.051 -0.2029  0.1592  0.1153
25327W        W41136  10.336   4.600  12.742  0.1331  0.0192 -0.0819
25328W        W41137  12.567   4.071  13.493 -0.1724 -0.0677 -0.0004
25329W        W41138  14.669   1.600   0.582 -0.0363  0.1691 -0.0361
25330W        W41139   5.022  11.830   2.524 -0.0027  0.0683  0.2272
25331W        W41140  14.411  11.989  12.949 -0.2657  0.2670 -0.0647
25332W        W41141   1.576  17.600   3.536 -0.1643 -0.2186 -0.0948
25333W        W41142  16.290  14.448  14.274  0.0144 -0.0113 -0.2160
25334W        W41143   8.977   9.286   0.099  0.1847 -0.1499 -0.1076
25335W        W41144   1.356   0.854   3.565  0.3467  0.4739 -0.0750
25336W        W41145   6.910  13.754   0.796 -0.1323 -0.0758 -0.0288
25337W        W41146   9.427   0.573  15.789  0.3442  0.1566 -0.2297
25338W        W41147   5.235  10.558  14.900 -0.0026  0.0281 -0.2893
25339W        W41148   0.843   8.045  13.760  0.2226  0.0111  0.0420
25340W        W41149   3.352   4.149  14.873 -0.0427  0.0374  0.2013
25341W        W41150  10.814  17.974  10.869  0.0044 -0.0032 -0.0764
25342W        W41151   4.639  10.873   3.406 -0.2232  0.0792  0.0443
25343W        W41152   2.509   5.795  11.843 -0.0826 -0.0088 -0.2808
25344W        W41153  16.376  18.296  15.128  0.2753 -0.1022 -0.1052
25345W        W41154   9.214  16.189   0.872  0.0423 -0.2207  0.0488
25346W        W41155   8.898  11.775   5.124 -0.1240 -0.0188 -0.3565
25347W        W41156   6.180  11.668  10.969  0.0777  0.0855 -0.3580
25348W        W41157  12.946   4.361   3.057  0.0168 -0.1024 -0.0568
25349W        W41158  12.989   2.188   2.961 -0.1791  0.0566 -0.0729
25350W        W41159   0.255  10.345   2.927 -0.2661  0.1425  0.2721
25351W        W41160   8.210  15.875  13.183  0.1384  0.1900 -0.1752
25352W        W41161   2.305   9.523  15.670 -0.0136  0.2127  0.3365
25353W        W41162   3.171   7.609  11.001  0.0569  0.1583  0.1710
25354W        W41163   9.065   7.602   3.703  0.2333 -0.0465  0.0359
25355W        W41164   7.284  13.974   4.318  0.0249  0.3865 -0.0488
25356W        W41165  12.308  16.084   2.059 -0.4396  0.0143  0.2244
25357W        W41166  16.035  14.840   2.251 -0.2460 -0.1991  0.2340
25358W        W41167  11.131  17.910   0.001 -0.1349  0.0367  0.0656
25359W        W41168   5.069  10.787  13.007 -0.0710  0.3275 -0.0740
25360W        W41169   1.109  16.852   3.929 -0.2579 -0.3166  0.0423
25361W        W41170  11.187   2.661   0.797  0.2134  0.3105 -0.2446
25362W        W41171  11.949   5.248  12.400 -0.2464 -0.0199  0.1682
25363W        W41172   8.444  14.224  15.540 -0.3173  0.1750  0.4559
25364W        W41173   9.976   7.100   0.209  0.1041  0.0642  0.1920
25365W        W41174  16.932   9.005  11.833  0.0014  0.1383 -0.0442
25366W        W41175   6.256  10.511  10.771 -0.2829 -0.1300 -0.1760
25367W        W41176  16.336   2.534   1.153  0.0733  0.0712  0.0110
25368W        W41177  14.677  12.366  11.170 -0.2011 -0.3184  0.2761
25369W        W41178   9.168   7.562   0.394  0.0326 -0.0040 -0.0294
25370W        W41179   7.105   8.623   0.032 -0.1157  0.0046 -0.0461
25371W        W41180   2.876   3.575  14.280 -0.1291  0.0906  0.0495
25372W        W41181   4.443   0.344   2.028 -0.2291 -0.1624  0.3508
25373W        W41182   9.001   1.810   3.467  0.0927 -0.3109  0.1662
25374W        W41183  13.455  18.435   3.383 -0.2337  0.0687 -0.1278
25375W        W41184  10.063   7.322  11.075  0.0887 -0.0114  0.2898
25376W        W41185  17.260  13.913   1.273  0.1130  0.1495  0.0377
25377W        W41186   5.497   4.737  13.144 -0.1459  0.0074 -0.1417
25378W        W41187   6.694  16.027  11.913 -0.2103  0.0226 -0.0784
25379W        W41188   6.928  11.160   2.933  0.1506  0.0977 -0.2926
25380W        W41189   6.784  16.066   4.020  0.0609  0.0392  0.1220
25381W        W41190   9.866   1.683   3.487  0.0072 -0.0224 -0.0609
25382W        W41191  17.588   7.907  15.150  0.0654 -0.0228 -0.1078
25383W        W41192  15.361  15.892  10.639 -0.2194  0.0790  0.2687
25384W        W41193   3.250  12.574   5.089 -0.0077  0.3849  0.3093
25385W        W41194  10.699  12.445  13.203 -0.1125  0.0874  0.1270
25386W        W41195   6.541  11.079  13.486 -0.1866 -0.1662 -0.1502
25387W        W41196  12.348  13.473   6.050 -0.1434  0.1415  0.1416
25388W        W41197  15.349  13.789  15.707  0.1139  0.0011 -0.0076
25389W        W41198  16.795  11.612   4.462  0.1101 -0.0863 -0.3995
25390W        W41199   8.810   4.521   2.877  0.1326 -0.2827 -0.1285
25391W        W41200  13.979  13.425  14.157 -0.1553  0.0239 -0.1115
25392W        W41201   1.905   1.112   2.656  0.0800 -0.1441  0.1087
25393W        W41202   1.866   6.014  12.523  0.0397 -0.2226  0.1421
25394W        W41203   4.208  12.463   2.199 -0.2445  0.1943  0.2742
25395W        W41204  17.615   0.510   1.488  0.2569 -0.5121 -0.4317
25396W        W41205  18.266  11.020   1.198  0.0803  0.1466 -0.1428
25397W        W41206   7.903  11.003   3.520 -0.1176 -0.0919 -0.0216
25398W        W41207  15.696  15.992  10.979 -0.3186 -0.2055  0.0363
25399W        W41208   3.855  15.208  14.968  0.0800  0.1059 -0.1230
25400W        W41209   3.986   9.153   0.254  0.0558 -0.0161  0.3365
25401W        W41210   2.506  12.216  11.722 -0.2190  0.1178  0.0710
25402W        W41211   7.113   1.133  12.786  0.0896  0.2615  0.1523
25403W        W41212   6.183  16.335  13.484  0.2281 -0.1249 -0.0429
25404W        W41213  15.714  16.943  14.138  0.0387  0.0122  0.1201
25405W        W41214   5.396  13.745   0.317  0.0820 -0.1263 -0.0083
25406W        W41215   6.767  10.676  13.250  0.0300 -0.3823  0.0314
25407W        W41216   5.838  15.738   3.880  0.3066  0.1718  0.1650
25408W        W41217   9.876   8.999   1.400 -0.0305  0.2052  0.1907
25409W        W41218  10.009   5.688  15.620  0.3254  0.2253  0.2322
25410W        W41219  17.871   2.651   5.217 -0.0408  0.0497 -0.0841
25411W        W41220  10.980   1.554  10.906  0.1396  0.4050 -0.0901
25412W        W41221  12.129   9.691  14.974 -0.0666 -0.1125  0.2421
25413W        W41222   9.841  16.331   0.179  0.2148  0.1079 -0.0431
25414W        W41223   7.154  16.707   0.200 -0.0251  0.2163 -0.2603
25415W        W41224   2.629  17.385   2.705  0.1826 -0.0749  0.1099
25416W        W41225   2.981  18.366   2.677 -0.0696 -0.3180  0.1554
25417W        W41226   3.467   0.963  11.577  0.0221 -0.0134  0.3514
25418W        W41227  10.989   5.369  14.685  0.1303 -0.0927 -0.2893
25419W        W41228   1.939   2.365  12.866 -0.0025  0.1283  0.1310
25420W        W41229  10.059  10.130  13.223 -0.1239  0.1261  0.1544
25421W        W41230  10.286  16.092  12.099 -0.4966 -0.0869 -0.2967
25422W        W41231   1.168  17.345  10.010  0.2722 -0.0208 -0.1292
25423W        W41232   5.112   7.464   2.279  0.1294  0.0380  0.0302
25424W        W41233   9.084   5.035  15.618  0.0273 -0.0057  0.0181
25425W        W41234   6.905   2.452   0.067  0.2124 -0.0237  0.1126
25426W        W41235  18.376   6.463   6.264  0.2314  0.2293 -0.1443
25427W        W41236   4.391   4.371   3.321  0.0035 -0.0002  0.0647
25428W        W41237   4.589   4.939  10.471  0.1720  0.2065 -0.1818
25429W        W41238  13.861   9.140   3.820  0.2277  0.3217  0.1658
25430W        W41239  15.319   1.787   4.704 -0.2433 -0.0870 -0.1959
25431W        W41240   8.937   0.499  14.645  0.0229  0.0573  0.2566
25432W        W41241   1.595  16.481   4.827  0.0611 -0.3892 -0.3841
25433W        W41242  12.797  13.337   1.204  0.1777 -0.0646 -0.0531
25434W        W41243  17.256  10.251  14.207  0.0418  0.0317 -0.1918
25435W        W41244  17.934   1.534   3.181 -0.2861  0.1806  0.2117
25436W        W41245   9.286   5.962  13.753 -0.0268  0.2337 -0.0023
25437W        W41246   5.370   6.137   4.484  0.1113 -0.0641 -0.3202
25438W        W41247  12.495   0.831   5.199 -0.0614  0.0743  0.3368
25439W        W41248   1.391  11.025   5.073  0.0625  0.0299  0.2038
25440W        W41249   8.673  16.709   1.282 -0.1555  0.0803  0.1112
25441W        W41250  17.056   3.212   2.802  0.0102  0.0252  0.2880
25442W        W41251   6.338   8.461  12.625  0.3138  0.1193 -0.2991
25443W        W41252  13.568  17.461   3.341 -0.0891 -0.1009  0.1948
25444W        W41253   1.357  13.942  12.891 -0.1460 -0.0130  0.1053
25445W        W41254  11.859   0.117   5.314  0.1872 -0.0250  0.0590
25446W        W41255   2.426  16.259  15.258 -0.1882 -0.0091 -0.0990
25447W        W41256   9.882   2.274  11.392  0.0182 -0.1219 -0.1532
25448W        W41257  13.222  15.797  15.122  0.2499  0.2236 -0.0590
25449W        W41258  12.325   7.651  11.172 -0.1094 -0.1933 -0.1893
25450W        W41259   7.012  11.094  14.598  0.0482 -0.0980 -0.0250
25451W        W41260  11.881   8.835   3.332  0.1162  0.1728 -0.1898
25452W        W41261   6.840  16.898  14.048 -0.0606  0.0458 -0.2446
25453W        W41262   5.861   4.568   0.780  0.2168  0.2669  0.1012
25454W        W41263   4.679  18.421   1.739  0.2465 -0.0042  0.1155
25455W        W41264  12.457   5.151   2.146  0.1260 -0.0013 -0.0836
25456W        W41265   8.248   8.227  15.471 -0.0708 -0.0790  0.2803
25457W        W41266   0.175   2.160   1.567 -0.2033 -0.0561  0.1978
25458W        W41267   5.705   6.342  11.183 -0.2664 -0.0353 -0.0854
25459W        W41268   1.152  15.760  11.889 -0.0182  0.0877  0.1225
25460W        W41269   0.256   3.813  12.813  0.1768 -0.1288  0.0721
25461W        W41270   9.822   4.474   5.848 -0.1349 -0.0106  0.2242
25462W        W41271  10.001  11.265   0.725  0.0143 -0.1256 -0.1275
25463W        W41272   0.589  13.599  12.732  0.3406 -0.0338  0.2112
25464W        W41273   0.633   7.055  11.926 -0.0662 -0.0373  0.1680
25465W        W41274   7.694   9.440  15.699  0.1243  0.0050  0.1116
25466W        W41275  10.576  13.522   3.007  0.0578  0.2631  0.0756
25467W        W41276   6.028   0.157  13.162 -0.0815  0.0608 -0.0851
25468W        W41277  11.712   2.029   6.019 -0.0962 -0.1320  0.0721
25469W        W41278  10.699   2.838   4.323 -0.1541 -0.1561 -0.1415
25470W        W41279   0.204   5.245  14.536  0.0261 -0.0593 -0.0629
25471W        W41280   6.389  15.006   3.368 -0.3974  0.0348 -0.1832
25472W        W41281  13.845  11.566   2.539  0.0754 -0.2227  0.1980
25473W        W41282  12.328   0.800   1.799  0.1647  0.2207 -0.1093
25474W        W41283  11.690   3.056  11.465  0.1194  0.2753 -0.2422
25475W        W41284   8.982  16.612   2.297 -0.4429  0.0902 -0.0003
25476W        W41285  16.033  17.860  13.971 -0.3245  0.0899 -0.3182
25477W        W41286   2.569  14.531  14.886 -0.2513  0.1923 -0.0520
25478W        W41287   2.594   4.377   2.926 -0.0312  0.1280  0.1913
25479W        W41288   3.550   9.554   3.343  0.0480  0.4697 -0.1065
25480W        W41289   2.750  12.326  14.926  0.1602 -0.1362  0.0720
25481W        W41290   3.851  13.204   2.761  0.2697  0.1462 -0.0385
25482W        W41291   6.613  10.294  11.606  0.3003  0.2103  0.1128
25483W        W41292   7.594   5.203  11.373 -0.0904  0.5343  0.0610
25484W        W41293  17.524   8.606  13.886 -0.2993 -0.0700 -0.0184
25485W        W41294   4.959   4.339  11.121 -0.2272  0.2109 -0.1700
25486W        W41295  13.878  12.377   1.454 -0.2725  0.1294 -0.1038
25487W        W41296   6.593   8.589  12.126 -0.1286 -0.1355 -0.0374
25488W        W41297   9.227   1.693   1.152 -0.1587  0.1190 -0.0471
25489W        W41298   7.166   5.293  15.800 -0.2127 -0.1688  0.3795
25490W        W41299   6.543   2.908   0.146  0.2204 -0.0021  0.1091
25491W        W41300   4.471  17.083  11.340  0.2228 -0.1546 -0.1991
25492W        W41301  16.141   0.717   1.117 -0.3197  0.1909 -0.1464
25493W        W41302  15.627  14.369  13.554 -0.2797  0.1235  0.2346
25494W        W41303   1.562   9.983  12.847 -0.1451 -0.0168 -0.2429
25495W        W41304  12.731   4.141  13.002 -0.0412  0.1630 -0.0573
25496W        W41305   8.783   9.437   0.669 -0.2386  0.3015  0.1367
25497W        W41306   8.097  18.308   1.076 -0.0859  0.1365  0.1483
25498W        W41307   8.944   1.741   3.939 -0.1026  0.0851 -0.0814
25499W        W41308   9.526   5.896  12.834  0.0785 -0.2517 -0.0766
25500W        W41309  14.467   3.722  11.326 -0.0942 -0.0440 -0.1697
25501W        W41310   7.467   2.073  11.170 -0.1603  0.0724  0.0632
25502W        W41311   4.900   2.478  15.487 -0.1106  0.0186 -0.0615
25503W        W41312   5.623   8.278  14.432 -0.0483 -0.1115 -0.0592
25504W        W41313   2.646   4.315   5.439 -0.0636  0.0217 -0.0215
25505W        W41314  17.772   7.469   0.831  0.4011 -0.0309 -0.2713
25506W        W41315  13.823  12.004  15.280  0.0321  0.2087 -0.0885
25507W        W41316  11.283   0.640  12.210  0.0064 -0.1664 -0.0109
25508W        W41317   4.107   4.369  13.697  0.2265 -0.0405 -0.0550
25509W        W41318   7.106  16.032   5.255 -0.0232  0.0749  0.2543
25510W        W41319   5.177   9.428   4.491 -0.0824 -0.2168  0.1720
25511W        W41320   1.512   5.351   3.964 -0.2918 -0.1025  0.1089
25512W        W41321  17.943  15.388   4.608 -0.1391 -0.2124 -0.0316
25513W        W41322  12.835   0.926  12.987  0.2200 -0.1735  0.1098
25514W        W41323   8.430  12.923   3.790 -0.0306 -0.1534 -0.1203
25515W        W41324   6.966   7.176   0.340 -0.2305 -0.0747  0.3665
25516W        W41325  13.491   8.463   0.286  0.1319  0.0515  0.0012
25517W        W41326   6.511  17.892  14.112 -0.1215  0.1305  0.0267
25518W        W41327  15.553   2.826   3.459 -0.2598 -0.3093  0.0718
25519W        W41328   4.384  12.058  15.854 -0.1027 -0.3568 -0.0500
25520W        W41329   3.892  12.427   1.247 -0.4150 -0.2825  0.0514
25521W        W41330  10.167   7.354   4.521 -0.1669  0.0455 -0.0016
25522W        W41331   7.192   2.986  13.390  0.2415  0.1356  0.4012
25523W        W41332  13.271  12.526  11.677  0.6453  0.0977  0.1517
25524W        W41333   0.328  14.741  15.271  0.2039  0.0565  0.0998
25525W        W41334   3.214   7.532   0.503  0.0775 -0.0321 -0.0120
25526W        W41335  15.451   5.941   9.856  0.2101 -0.3736  0.0867
25527W        W41336  10.589   4.431  12.194 -0.2479  0.1935 -0.2528
25528W        W41337   5.479   2.739  10.774 -0.0094  0.0506 -0.1152
25529W        W41338  11.104  14.701  11.183  0.2233 -0.1150  0.1183
25530W        W41339   1.482   9.309  13.589  0.4312  0.3436 -0.2172
25531W        W41340  15.927  17.373  13.406  0.1135  0.3039  0.1256
25532W        W41341   6.732   4.884  13.693 -0.4024 -0.0680  0.2061
25533W        W41342  13.571  11.054  13.519 -0.0125  0.2617  0.3569
25534W        W41343   1.256   0.139  12.701 -0.1646 -0.0663  0.1991
25535W        W41344  14.909   8.917   1.557  0.2081  0.0536  0.0535
25536W        W41345   7.222  15.799   4.067  0.0421  0.1385 -0.1842
25537W        W41346   0.806  10.783  14.644  0.2097 -0.2097 -0.2004
25538W        W41347   8.939   1.547  13.354  0.2381 -0.0699 -0.0883
25539W        W41348   7.052  15.358  14.777 -0.1659 -0.1228 -0.2526
25540W        W41349  10.238   3.328   2.959 -0.3407  0.0731 -0.1487
25541W        W41350   7.439  12.782  13.428 -0.2254 -0.2037  0.2191
25542W        W41351  14.578   2.231  13.177  0.2402  0.1763 -0.1273
25543W        W41352   8.202  16.439   0.233 -0.1464  0.0404  0.2577
25544W        W41353  12.483  15.638  11.843  0.2588 -0.0827 -0.1946
25545W        W41354   8.761   2.827  12.979 -0.1360 -0.2846 -0.2352
25546W        W41355   6.472   6.970   0.253  0.3427  0.0836 -0.0529
25547W        W41356   1.185   0.464  14.348  0.2008 -0.1697  0.0432
25548W        W41357   7.640  15.878  13.945  0.0105 -0.1499 -0.5130
25549W        W41358   3.107  10.988   4.857 -0.1672  0.0610 -0.1306
25550W        W41359   8.095  11.707   4.840 -0.1956  0.0296 -0.0283
25551W        W41360   4.396  17.513  12.862 -0.2328 -0.2947  0.0343
25552W        W41361   0.437   1.441   2.502 -0.0840 -0.0875  0.0888
25553W        W41362   9.597   9.861  13.340  0.0478 -0.0608  0.0462
25554W        W41363   1.887  16.047   4.905  0.1466  0.1007 -0.0773
25555W        W41364   1.908  14.924  13.630 -0.1780  0.0183  0.0286
25556W        W41365  17.251  13.347   4.307  0.5024 -0.0017 -0.1035
25557W        W41366  16.323  14.771   3.202 -0.0617  0.0649 -0.1629
25558W        W41367  10.604   7.090  12.287 -0.0798  0.0108 -0.1287
25559W        W41368   4.386  16.705  15.419  0.1553 -0.0297  0.2789
25560W        W41369  13.413   0.242  15.370 -0.1739  0.0988  0.1659
25561W        W41370   6.567  14.018  11.144 -0.1156 -0.1386  0.0761
25562W        W41371  17.069  10.569   0.034  0.1235  0.0923 -0.0742
25563W        W41372   0.033  11.736   4.293 -0.3427 -0.1465 -0.1079
25564W        W41373  11.668   0.271   1.359 -0.1275 -0.0619  0.0741
25565W        W41374   2.848  13.875   4.871  0.2088  0.0250  0.0391
25566W        W41375  11.639  12.601  12.455 -0.2446 -0.0378 -0.1156
25567W        W41376  11.644   6.622   5.277 -0.0621  0.1496  0.1141
25568W        W41377   2.113  17.337   0.465 -0.0471  0.1201 -0.1528
25569W        W41378   2.726   9.916   4.213  0.0851 -0.0050  0.0899
25570W        W41379  15.498  15.195   1.387  0.1086 -0.1330 -0.0204
25571W        W41380  12.224   2.320  11.046  0.1789 -0.0768 -0.0950
25572W        W41381   3.868   8.930  10.748  0.0916 -0.1762 -0.0774
25573W        W41382   3.988   7.972  11.132  0.1471 -0.1617  0.2261
25574W        W41383  13.286  13.187   2.364 -0.1123  0.1740 -0.0734
25575W        W41384  15.368   0.721  11.624 -0.0781  0.2736  0.0417
25576W        W41385   0.471   0.149  13.245 -0.1065  0.4623 -0.3241
25577W        W41386   2.899   3.563   3.668 -0.2815  0.4366  0.0063
25578W        W41387   2.384  15.623  11.499 -0.1986  0.0411  0.1870
25579W        W41388   3.080  11.786   1.385  0.1801 -0.0008 -0.0404
25580W        W41389  12.346  11.623  15.278 -0.1470  0.4423  0.1723
25581W        W41390   7.768   6.085  15.312 -0.1829  0.0794  0.0133
25582W        W41391   8.396   0.447   3.173 -0.1771 -0.2820 -0.2880
25583W        W41392  12.271  17.941   0.826  0.1204  0.1312 -0.3056
25584W        W41393   9.904  18.336  12.817  0.0512 -0.1018 -0.0905
25585W        W41394   9.327   7.501   1.767  0.6127 -0.0469 -0.0073
25586W        W41395   6.137   1.019   1.057  0.0448 -0.0940  0.1432
25587W        W41396  12.936   0.963   4.988 -0.1680  0.0551 -0.1518
25588W        W41397   5.232   0.869  11.389  0.0811 -0.2886 -0.1223
25589W        W41398   0.262   5.497   0.149  0.2870  0.2057  0.3020
25590W        W41399   8.244   0.963  10.724  0.0639 -0.1176  0.2425
25591W        W41400   7.832  15.867   2.469 -0.0045 -0.0016  0.1062
25592W        W41401   0.321  10.725   0.531  0.0408 -0.3193  0.2574
25593W        W41402   4.416   4.448  14.615  0.1503  0.1296 -0.3499
25594W        W41403  16.842  16.072  13.627  0.0344  0.1715  0.1628
25595W        W41404   7.900  16.217  15.735  0.0416 -0.3327 -0.3971
25596W        W41405  18.433  18.117  12.962 -0.0937  0.2282 -0.2282
25597W        W41406   1.139   2.350  12.389 -0.1601  0.2234  0.3315
25598W        W41407   2.646  10.118  12.512 -0.1644  0.1068  0.0988
25599W        W41408   8.093   5.668   5.113  0.1952 -0.0718 -0.1167
25600W        W41409   6.429   4.758  10.446  0.2821 -0.1004  0.1942
25601W        W41410  17.992   7.623   4.832 -0.1724  0.0804  0.0375
25602W        W41411   7.068  10.304   4.745  0.0032 -0.1277  0.0864
25603W        W41412  14.660  14.083   5.604  0.2663  0.1855 -0.3178
25604W        W41413   7.679  12.832   1.405  0.0565  0.0854 -0.1629
25605W        W41414  17.022   1.023  14.155 -0.0370  0.0020  0.1591
25606W        W41415   2.383  16.429  15.769  0.0934 -0.0192 -0.0897
25607W        W41416   2.249   5.203  10.979 -0.1059 -0.1730 -0.4009
25608W        W41417  16.100   9.709   1.461 -0.2397  0.3695  0.0464
25609W        W41418   6.492   2.112   2.215 -0.2338 -0.1907  0.1393
25610W        W41419  13.624  15.059   5.376  0.0124 -0.1185  0.1534
25611W        W41420   2.790  17.519  12.392  0.1445 -0.1017 -0.1841
25612W        W41421   2.835  12.711   5.293  0.2825  0.1681  0.1420
25613W        W41422  10.590   3.054  13.378 -0.1363 -0.1274 -0.0313
25614W        W41423   6.065  12.719   4.909  0.1062  0.3106 -0.1623
25615W        W41424  17.189  14.456   5.294 -0.0438  0.1451  0.3493
25616W        W41425  12.076  10.812   2.121  0.0614  0.0110  0.0722
25617W        W41426   9.211   6.219   2.684 -0.3230  0.0476 -0.2175
25618W        W41427   5.410   7.787  12.444 -0.2840  0.1823  0.1856
25619W        W41428   4.480   9.585  14.828  0.2356 -0.0292  0.0894
25620W        W41429  18.301   4.041   1.662  0.0185  0.1065  0.0788
25621W        W41430   6.361   3.482  14.292  0.2718  0.0162 -0.3410
25622W        W41431   6.437  10.482   0.040 -0.2078 -0.0355  0.2820
25623W        W41432   1.056   4.945   0.733  0.1893 -0.1868  0.0496
25624W        W41433  14.514  13.371  14.742  0.0965 -0.2007  0.0794
25625W        W41434   4.991  14.035   3.894  0.3033  0.0077 -0.1650
25626W        W41435   5.451   8.838  15.197 -0.2454  0.1893  0.0249
25627W        W41436   1.269   4.059  13.952  0.1354  0.1351 -0.1081
25628W        W41437   8.556  15.276   3.807  0.1721 -0.2273 -0.0903
25629W        W41438   1.816  12.013   1.619  0.1251  0.0324  0.2049
25630W        W41439   6.435   4.692  12.281 -0.0162 -0.0251  0.1040
25631W        W41440   5.982  16.499  14.274 -0.0582 -0.3369 -0.0312
25632W        W41441   6.253  14.114   1.779 -0.0421  0.2255 -0.1846
25633W        W41442   7.503   5.030  10.796 -0.1259  0.0767 -0.1150
25634W        W41443   7.440   6.846   3.184  0.2412 -0.1861 -0.2308
25635W        W41444  15.052   2.084  13.224  0.1952 -0.1910  0.2050
25636W        W41445   8.645  12.244  13.960 -0.1112 -0.2521 -0.2212
25637W        W41446   9.968  17.855   0.119  0.0930 -0.2080 -0.1400
25638W        W41447  10.546  15.502  11.557  0.0035 -0.0404  0.3434
25639W        W41448  17.784   6.104  10.803  0.3177 -0.1124 -0.1150
25640W        W41449  15.771   2.130  11.894 -0.1733 -0.1334  0.2267
25641W        W41450   2.587  14.046   2.181 -0.0075 -0.0092  0.0137
25642W        W41451  16.839   0.748   0.739 -0.0747  0.2283  0.0642
25643W        W41452  16.680  15.497   3.511  0.0710  0.0376 -0.0572
25644W        W41453   1.020  14.451   3.306 -0.0327 -0.0847 -0.4620
25645W        W41454   6.301   5.597   5.677  0.0423 -0.2229 -0.3709
25646W        W41455  15.091   8.215  12.446 -0.0876  0.1259 -0.3870
25647W        W41456  17.707   4.196   3.092 -0.0294  0.0835  0.2226
25648W        W41457   7.754   4.199  13.458 -0.0006 -0.1461 -0.1502
25649W        W41458   1.207   5.966   3.917  0.2211  0.0044 -0.0553
25650W        W41459   3.185  16.585  10.500  0.4047 -0.1553  0.0375
25651W        W41460   8.932  17.885  12.289 -0.3001 -0.0303  0.1030
25652W        W41461  16.742   8.019  14.077  0.1581 -0.0053 -0.0074
25653W        W41462  11.311   5.450  12.938 -0.1569 -0.1688 -0.2264
25654W        W41463   7.322   8.105   1.241 -0.2342  0.3838  0.0324
25655W        W41464   6.421   4.434  14.722  0.2133 -0.3910  0.1698
25656W        W41465   6.851  14.237   3.479 -0.3122 -0.3219  0.1858
25657W        W41466  15.230  10.898  14.848  0.0007 -0.0276  0.2179
25658W        W41467  13.939   8.348   0.074 -0.3060  0.2056  0.2170
25659W        W41468   0.337  14.096  14.440  0.0926  0.1616 -0.0413
25660W        W41469  15.535  17.505  13.066  0.1465 -0.1167 -0.1216
25661W        W41470   6.596   4.069   2.118 -0.1271  0.0916  0.0386
25662W        W41471   0.312  16.896  14.837 -0.2467 -0.0924 -0.6437
25663W        W41472  12.528  13.351   4.320  0.0162 -0.1786  0.1313
25664W        W41473   0.662   7.714  12.139  0.1065 -0.3277 -0.1532
25665W        W41474  15.476  12.593   1.578 -0.1215 -0.1191 -0.1257
25666W        W41475   7.179   6.581   4.690 -0.3034  0.1792 -0.1286
25667W        W41476   4.870  16.895  15.569  0.0268  0.0626 -0.1995
25668W        W41477   1.844  16.993  13.860  0.1056  0.2436 -0.4464
25669W        W41478  11.133  10.159  11.566  0.0633 -0.0315  0.1962
25670W        W41479   0.668  11.516   4.229  0.0674 -0.0201  0.0588
25671W        W41480   8.932   4.218  11.147  0.1252  0.2460  0.1177
25672W        W41481   8.099   2.741   3.907  0.0667 -0.0025  0.1077
25673W        W41482  16.191   4.007  15.139  0.0784 -0.2470 -0.2085
25674W        W41483   8.344  17.366   4.862 -0.4821 -0.2766  0.0730
25675W        W41484   8.879  10.399  10.362 -0.2442  0.2043 -0.0765
25676W        W41485   0.424   5.956   5.037 -0.1355  0.2861  0.4767
25677W        W41486  17.354  12.598  10.556  0.0371 -0.0197  0.1646
25678W        W41487  12.640  11.872   2.688  0.0016 -0.0069 -0.0533
25679W        W41488  10.819   8.248  12.825 -0.0581  0.1265  0.2514
25680W        W41489   7.967   4.208  12.149 -0.3273 -0.1270 -0.1616
25681W        W41490  14.294   7.977   5.074 -0.4793 -0.0609 -0.2802
25682W        W41491   8.577   9.969  11.331 -0.2806  0.0744 -0.0327
25683W        W41492  15.446   9.303  10.809  0.0472  0.0660 -0.2554
25684W        W41493  14.590  10.310   2.611  0.1869  0.1104 -0.2812
25685W        W41494   0.256  13.538  11.870  0.1119  0.0777  0.1055
25686W        W41495   1.716  11.522   0.722 -0.1447  0.1621  0.0724
25687W        W41496   3.797  15.152  14.456  0.2085  0.0485  0.0050
25688W        W41497  10.315  15.593  13.337 -0.0779  0.1981 -0.0054
25689W        W41498  15.871  14.659  11.315  0.1160 -0.1097 -0.1023
25690W        W41499   9.990   5.203  13.978  0.0718  0.0203 -0.0782
25691W        W41500   3.966  12.477  14.603  0.0285  0.1229 -0.0884
25692W        W41501  15.368   6.524  11.320  0.1078  0.2023  0.1764
25693W        W41502  14.369   0.036  11.012  0.2124  0.0588 -0.4377
25694W        W41503  16.927   5.578  13.022 -0.0020  0.4855 -0.4194
25695W        W41504   9.717  10.572   3.315  0.2891 -0.2607 -0.2995
25696W        W41505  12.242   8.091   5.119  0.1003 -0.2396  0.0811
25697W        W41506  15.741  11.037  12.017  0.1913  0.2152  0.0968
25698W        W41507   5.527   1.278   2.435  0.1421 -0.0866 -0.2542
25699W        W41508   7.488  17.944   0.412 -0.0933  0.0192 -0.0110
25700W        W41509   4.278  13.883  14.611 -0.0996  0.0274 -0.0269
25701W        W41510   2.329  14.151  14.254 -0.0830 -0.2425  0.0418
25702W        W41511  17.139   4.980  12.435  0.1168 -0.1933  0.1705
25703W        W41512  16.843  17.699  11.347  0.1068  0.1913  0.2952
25704W        W41513   0.324   2.676  15.600 -0.1006  0.1964 -0.1422
25705W        W41514  16.113  18.280   0.281 -0.2113 -0.2484  0.1861
25706W        W41515   5.898   4.237   5.146  0.0339  0.0158 -0.1956
25707W        W41516   1.650   1.822   4.410  0.2018  0.3656 -0.1318
25708W        W41517   9.681   9.570   0.666  0.1799  0.1054  0.2786
25709W        W41518   8.197   7.881  11.280 -0.2096 -0.3800  0.0910
25710W        W41519  14.331   1.247   1.285 -0.1237  0.0988  0.1246
25711W        W41520  15.501  10.071   5.630 -0.1458 -0.0364  0.1535
25712W        W41521   1.311  14.849   3.004 -0.1265 -0.1450  0.3156
25713W        W41522   5.437  14.758   4.878 -0.1072  0.2498  0.0601
25714W        W41523  10.155   6.928   4.846  0.0702 -0.2377  0.1587
25715W        W41524  14.678   1.053  14.361 -0.3408  0.1228  0.1100
25716W        W41525   3.425   2.251   1.120  0.1115  0.3076  0.2752
25717W        W41526   5.223   9.358  13.677 -0.1740  0.0297 -0.0614
25718W        W41527  17.037  13.393  14.967 -0.0012  0.0166  0.1045
25719W        W41528   9.149  15.497   1.245 -0.0491  0.1093  0.1842
25720W        W41529  17.211   5.606  10.862 -0.0697  0.2373  0.0386
25721W        W41530  18.316   5.617   1.057 -0.1637 -0.0454  0.0656
25722W        W41531  17.657  14.289   3.893  0.1148 -0.3362  0.0260
25723W        W41532   5.808   5.528   4.861  0.1606 -0.0829  0.0750
25724W        W41533  10.625   2.539  12.503 -0.2894 -0.1418 -0.0304
25725W        W41534   7.683   4.879   0.633  0.1451  0.0879 -0.1035
25726W        W41535   3.198  16.304  15.272 -0.0129 -0.1135  0.0309
25727W        W41536   6.411  10.222   0.760 -0.1715 -0.0022 -0.2539
25728W        W41537  12.172  11.152  14.756 -0.0533  0.0299 -0.1139
25729W        W41538  18.006  14.181   1.599  0.3468 -0.2487 -0.1488
25730W        W41539   1.918  14.631   5.431  0.0311  0.2108 -0.1553
25731W        W41540   6.535  13.748   3.535 -0.2117 -0.1209 -0.2814
25732W        W41541  13.009   2.637   3.904 -0.0642 -0.1118 -0.0085
25733W        W41542   6.002   1.132  12.667 -0.1409 -0.2019  0.0753
25734W        W41543   1.720  12.815   4.540 -0.1342  0.1881  0.0323
25735W        W41544   1.611   2.347  11.061  0.2706 -0.0305 -0.1415
25736W        W41545   0.309  10.692  14.511 -0.0284  0.2133  0.0091
25737W        W41546   4.793  16.195   5.216  0.1897 -0.0891 -0.1160
25738W        W41547  11.168  11.106  11.739 -0.0424 -0.0301 -0.1809
25739W        W41548   3.293   4.708   0.105 -0.4475  0.1302 -0.1913
25740W        W41549  13.079   8.021  12.993 -0.0529  0.3437 -0.0541
25741W        W41550   8.669  13.162  14.875  0.0799  0.0404 -0.0737
25742W        W41551   8.032  15.744  15.558  0.4023  0.0285 -0.1799
25743W        W41552  17.453  11.122  15.395  0.0694 -0.0461 -0.2817
25744W        W41553  17.572   8.029  11.495  0.1610 -0.0942  0.2376
25745W        W41554  13.701  18.069   2.618 -0.2019  0.0541 -0.0791
25746W        W41555   5.816  16.729   2.046 -0.2749  0.1742  0.3494
25747W        W41556   3.176  12.114  13.746 -0.0413 -0.3329 -0.1594
25748W        W41557   0.175  13.529   2.914 -0.0352 -0.3391 -0.0428
25749W        W41558  11.865  15.657  11.118 -0.4480  0.0401 -0.2085
25750W        W41559   2.942  10.412   4.653  0.3023 -0.1120  0.1048
25751W        W41560   2.323  10.992  14.390 -0.2271  0.0727  0.0454
25752W        W41561   6.438   3.226  14.736 -0.1664  0.1982 -0.1282
25753W        W41562   0.675  13.245   5.496 -0.0881 -0.0155 -0.1856
25754W        W41563   4.024   7.443   0.807  0.0452 -0.2796 -0.1735
25755W        W41564  12.392   5.913   1.424  0.2209 -0.0744 -0.0015
25756W        W41565  14.581  15.955  15.064 -0.1314 -0.0290  0.3503
25757W        W41566   3.695   6.667   5.761  0.0433 -0.0459  0.1488
25758W        W41567  17.457  11.935   5.191 -0.0056  0.1032  0.2046
25759W        W41568  13.814   8.068   5.071  0.2658 -0.1989  0.1224
25760W        W41569   7.013   4.756  14.864 -0.0801 -0.2501  0.1666
25761W        W41570  10.977   6.388   3.155 -0.4287 -0.2539  0.1841
25762W        W41571  11.526  16.248  12.600  0.2497 -0.3175  0.3069
25763W        W41572  18.306   6.376   0.477  0.0152  0.0377 -0.1322
25764W        W41573  13.117   9.717   0.536  0.1712  0.1125 -0.1774
25765W        W41574   4.856   8.546  14.107 -0.1829 -0.0700 -0.2112
25766W        W41575   8.035  11.221   2.019  0.2961  0.0820  0.1054
25767W        W41576   1.819   9.699   4.811  0.1546 -0.1964 -0.0112
25768W        W41577   2.629  14.481  12.162  0.1436  0.3282 -0.0571
25769W        W41578  10.959  17.462  12.044 -0.1574 -0.0831  0.1525
25770W        W41579   4.046  16.889   0.751 -0.0809 -0.1309  0.3150
25771W        W41580   3.430   0.149   2.504  0.1562  0.0024 -0.2083
25772W        W41581  14.957  10.282  14.416 -0.0216 -0.0386  0.3020
25773W        W41582  10.412  11.203  14.560  0.1386 -0.0057 -0.1215
25774W        W41583   5.756  11.065   2.537 -0.1016 -0.2681 -0.3061
25775W        W41584   1.692   6.947  12.197 -0.0463 -0.2371  0.2520
25776W        W41585   2.871   6.768  10.748 -0.4920 -0.1327  0.2724
25777W        W41586   8.046   7.328  15.286  0.1302 -0.1983  0.0073
25778W        W41587  12.718   1.680   5.039  0.1070  0.3141  0.2502
25779W        W41588   8.186   6.760  14.226 -0.0272  0.0254 -0.1536
25780W        W41589   2.041   8.310  14.357 -0.0956 -0.2643  0.4549
25781W        W41590   6.998   2.866  12.231 -0.1967  0.1038  0.0704
25782W        W41591  17.830   3.821   4.060 -0.2451  0.3152 -0.0552
25783W        W41592   5.368   3.126  13.204  0.0433 -0.0356 -0.2246
25784W        W41593   9.650   8.746   3.542 -0.1103 -0.1426  0.2098
25785W        W41594  14.885   0.188  14.146 -0.1086 -0.0353  0.1086
25786W        W41595   2.584  17.005  14.411  0.0079 -0.0842  0.0627
25787W        W41596   7.083   0.904   3.756  0.1210 -0.2902  0.0152
25788W        W41597   6.574  16.246  15.354  0.0546  0.3756 -0.3966
25789W        W41598   8.321  12.897  15.182  0.2510  0.0979  0.0661
25790W        W41599   4.714   1.925  14.049  0.0376 -0.2739  0.2216
25791W        W41600   3.243   2.373   5.772 -0.2417 -0.0236  0.2764
25792W        W41601   6.598   4.639   5.754  0.0269 -0.2536 -0.0221
25793W        W41602  17.940   1.732   0.068 -0.0634 -0.0133 -0.2115
25794W        W41603  14.378  11.835  12.458 -0.1499  0.2338  0.1590
25795W        W41604  14.975   8.808  13.310 -0.3184 -0.1897  0.2123
25796W        W41605   8.607   8.162  11.155 -0.2420  0.1400  0.1449
25797W        W41606   6.266   0.464  15.175 -0.1601  0.0463 -0.0593
25798W        W41607   4.572  12.161   2.520  0.2706 -0.0787 -0.1672
25799W        W41608  11.879  15.841   5.610  0.0106  0.0025  0.0075
25800W        W41609  16.368  18.260   1.641 -0.2485  0.2585  0.1976
25801W        W41610  10.829   5.056  10.798 -0.0677  0.2764  0.1636
25802W        W41611  14.357   6.626  12.196  0.2559 -0.0616 -0.0134
25803W        W41612  17.412   3.280   1.448  0.0920  0.0263  0.1713
25804W        W41613   2.576  15.579  10.570 -0.0358 -0.0201  0.2616
25805W        W41614  13.032  13.231   4.620  0.0348  0.0557  0.0088
25806W        W41615  11.298  14.132  11.601 -0.3467 -0.0929  0.1082
25807W        W41616  14.388   5.279   1.763 -0.2823  0.0418 -0.2770
25808W        W41617   1.130   0.921   0.679  0.0500 -0.2724 -0.0707
25809W        W41618   1.312   0.545  12.995 -0.1963  0.4784  0.0794
25810W        W41619   1.412  14.083   1.466  0.1388 -0.1469 -0.0462
25811W        W41620   2.214   6.837   3.551 -0.1509 -0.5631  0.1208
25812W        W41621  12.138  18.353   2.592 -0.2194  0.0138 -0.1863
25813W        W41622   4.388  16.832  10.345  0.2854  0.1175  0.3100
25814W        W41623  10.167   1.452  11.960  0.0394  0.0267 -0.0297
25815W        W41624   8.529  16.481   5.048 -0.0500  0.1669 -0.1507
25816W        W41625  15.150  14.863  15.566 -0.1366  0.1159 -0.0394
25817W        W41626   1.760   9.413  11.035  0.1844 -0.0961 -0.2274
25818W        W41627  16.351  12.714  13.387  0.0832 -0.2474  0.0227
25819W        W41628   4.417   8.053  15.618  0.0552 -0.0143  0.0381
25820W        W41629  11.342  11.747  11.098 -0.0223 -0.1092  0.2424
25821W        W41630  10.163   3.568   1.686 -0.0675 -0.2935 -0.1042
25822W        W41631  11.608   6.720   4.247  0.2032  0.0932  0.0319
25823W        W41632  15.892   4.274  14.459 -0.1551 -0.3629  0.2335
25824W        W41633  13.411   5.539  11.990 -0.2293  0.2950 -0.0524
25825W        W41634  16.529  13.612  14.311  0.1216  0.0086  0.1398
25826W        W41635  14.352  16.809   4.342 -0.2138 -0.1197  0.1721
25827W        W41636   5.701   9.441  13.415  0.2628  0.0650  0.3235
25828W        W41637   6.793  11.846   5.453  0.0467 -0.2736  0.0686
25829W        W41638   3.964  16.496  15.642 -0.0020  0.0766  0.3278
25830W        W41639   8.353  16.294   3.124  0.2642  0.1634 -0.0758
25831W        W41640   6.202  13.798   2.200  0.2421 -0.0113  0.1035
25832W        W41641   8.249  17.741  14.541 -0.0527  0.0249 -0.3182
25833W        W41642  10.966   1.019   2.182  0.0075  0.0544 -0.1402
25834W        W41643  15.407   0.290  15.510  0.0536  0.0192 -0.1620
25835W        W41644   2.379   4.112  12.342 -0.0100 -0.0235  0.2563
25836W        W41645   8.186   1.333   4.589  0.0770 -0.0044  0.3749
25837W        W41646   4.491   5.404   1.053  0.0764 -0.0564 -0.0709
25838W        W41647   8.035  13.716   1.152  0.1226  0.0988  0.2125
25839W        W41648   0.252   6.783   3.577  0.1575  0.1294  0.1117
25840W        W41649   4.199  15.906   0.788 -0.0665 -0.2010  0.2502
25841W        W41650  15.663   5.637  15.187  0.4117 -0.2661 -0.2795
25842W        W41651   4.050  18.416  14.592 -0.0659 -0.1403  0.1723
25843W        W41652  17.574  15.785  10.759  0.0395  0.0726 -0.1021
25844W        W41653   1.709   4.152   1.810  0.2193 -0.0526 -0.2014
25845W        W41654   4.472  10.943   4.963  0.2405  0.0691 -0.2158
25846W        W41655  17.629   9.835   2.131  0.1162  0.1912  0.2291
25847W        W41656   1.158   2.243  11.153  0.0036 -0.0886 -0.0684
25848W        W41657   8.109   8.274  12.411  0.0274  0.2680 -0.1273
25849W        W41658   5.399   4.303   3.444 -0.2189 -0.1526  0.0560
25850W        W41659   6.434   0.797  11.654 -0.0569  0.0366 -0.0691
25851W        W41660  14.904   0.558  14.871 -0.2373 -0.1636  0.0341
25852W        W41661  11.976   8.465  14.619 -0.1391  0.3933  0.0190
25853W        W41662   9.952  18.334   3.791 -0.0935 -0.0454  0.3133
25854W        W41663  11.504   8.136   1.966  0.1107  0.1110 -0.2484
25855W        W41664   1.266  16.971  15.480 -0.3580 -0.2696 -0.2113
25856W        W41665  17.128  16.164   0.558  0.2298 -0.0840  0.0887
25857W        W41666   6.762   0.941   0.700 -0.2326 -0.0122 -0.2161
25858W        W41667   1.482   2.269   3.329 -0.3726  0.0481 -0.1122
25859W        W41668  14.106   3.739  12.147  0.0856 -0.0041  0.1536
25860W        W41669  10.760  16.625  11.406  0.1013  0.2063 -0.2044
25861W        W41670   7.067  11.377   4.132 -0.0550 -0.2052 -0.2627
25862W        W41671   8.740   4.742   3.399  0.7333  0.2260 -0.1380
25863W        W41672  17.126  13.406  12.595  0.0931  0.4158 -0.1895
25864W        W41673  17.591   6.877   1.379 -0.4183 -0.0562  0.0512
25865W        W41674  16.482  16.917   1.068  0.0733 -0.1951  0.1508
25866W        W41675   8.559   7.543  15.036 -0.1861  0.3665  0.1028
25867W        W41676  16.549  17.320   3.269  0.3891  0.3173  0.3033
25868W        W41677   7.761   6.985  13.422 -0.0267 -0.0785  0.1342
25869W        W41678  12.905  12.383   4.026  0.2117  0.1816  0.2077
25870W        W41679  12.216   3.055  11.491  0.1100  0.1252  0.4466
25871W        W41680  12.967   1.278   3.490  0.1411 -0.1024 -0.0887
25872W        W41681  16.828   4.119   0.195 -0.0877 -0.1121 -0.1073
25873W        W41682  13.352  17.725   0.337 -0.0979  0.0691 -0.0198
25874W        W41683   3.957   1.742  13.385 -0.1160 -0.2181 -0.0194
25875W        W41684   8.415   4.256   4.726  0.0625  0.0541 -0.2034
25876W        W41685   6.685   3.627  14.607  0.1561  0.3181  0.0031
25877W        W41686   7.274  10.191  14.851  0.4062 -0.0154  0.1093
25878W        W41687   9.429  10.171   2.963  0.0245  0.3030  0.0734
25879W        W41688  17.670   3.924  15.545 -0.4889  0.2015  0.2927
25880W        W41689  15.273   1.256  14.873 -0.0501  0.0871  0.2148
25881W        W41690  11.079   6.703  13.760 -0.1265 -0.3607 -0.0740
25882W        W41691   7.240   9.397   5.397  0.0508 -0.5631 -0.1599
25883W        W41692   5.666  10.555   2.569 -0.3270 -0.1957  0.2977
25884W        W41693  12.503   0.561  11.451 -0.2788 -0.1283 -0.2354
25885W        W41694   4.633  16.373   2.139 -0.2512 -0.0431 -0.2429
25886W        W41695  12.008   8.509   1.274 -0.1046  0.2248 -0.1194
25887W        W41696  17.886   2.780  12.422 -0.0941  0.2439 -0.0848
25888W        W41697  11.106  18.133  14.008  0.1593 -0.3067 -0.2449
25889W        W41698   2.480  14.270   3.102  0.0476 -0.1190 -0.0361
25890W        W41699  15.488   7.259  12.354 -0.0534  0.2543  0.2158
25891W        W41700  13.108   2.519   4.421  0.0010  0.1022  0.2207
25892W        W41701   7.845  13.766  11.598 -0.0763  0.0477  0.1671
25893W        W41702  11.699  16.833   4.061 -0.2366  0.1347 -0.1227
25894W        W41703   9.115   4.099  14.247 -0.2806  0.0953  0.1125
25895W        W41704  10.713   1.737   4.241 -0.1113  0.3065  0.1913
25896W        W41705  11.912   6.722  15.145 -0.1752 -0.0835 -0.1315
25897W        W41706   9.590   6.972   3.803  0.1548 -0.1374 -0.1603
25898W        W41707   4.343  14.505   3.428 -0.2231 -0.1304  0.2351
25899W        W41708  16.713   1.593   3.356  0.0593 -0.0549 -0.0569
25900W        W41709  16.525  15.416  14.693  0.0275 -0.2629 -0.0696
25901W        W41710  16.794  11.371   2.706 -0.0907 -0.1522  0.0460
25902W        W41711   0.051  12.451   0.855  0.2272 -0.0003  0.1210
25903W        W41712  16.946   6.933   3.628  0.2205 -0.2756 -0.0389
25904W        W41713   1.431   7.122  14.662 -0.1566 -0.3147  0.0451
25905W        W41714   3.686  13.300  14.319  0.0712  0.2432 -0.2895
25906W        W41715  13.965   7.875   1.779 -0.4625 -0.3766 -0.0640
25907W        W41716  10.257   0.303   1.883  0.2056  0.1101 -0.1170
25908W        W41717   2.993   7.749   0.119  0.0760 -0.0767 -0.0289
25909W        W41718  13.361  13.627   5.144  0.1352  0.0062  0.2107
25910W        W41719  18.355  13.912   2.608 -0.2865 -0.3076 -0.2039
25911W        W41720  14.333  17.412   2.403 -0.1628 -0.1576 -0.0893
25912W        W41721  12.883   3.550   5.112  0.0661  0.2001  0.3154
25913W        W41722   2.755  11.746  15.584  0.0604  0.2215  0.1770
25914W        W41723   0.398   5.419   4.126 -0.0887 -0.1457  0.1210
25915W        W41724   7.275  16.375   1.322  0.1117 -0.1384 -0.0503
25916W        W41725   0.287   8.266   0.928  0.1448  0.0627  0.0071
25917W        W41726  15.914   8.876   1.110  0.0814  0.1651  0.1101
25918W        W41727  15.961   3.597   5.145 -0.2195  0.0216  0.0384
25919W        W41728   9.029  18.456   5.428 -0.2455 -0.0200 -0.1247
25920W        W41729   2.492   7.424  14.226 -0.0101  0.3489  0.4810
25921W        W41730   3.173  14.617   2.518  0.2197  0.0994 -0.1944
25922W        W41731   3.523   5.934   0.713  0.1462  0.2932  0.0174
25923W        W41732  10.313   5.037  13.642 -0.0292  0.0395  0.3673
25924W        W41733   8.804  13.484  13.226 -0.3067  0.0792  0.0637
25925W        W41734   6.022  12.993   4.262  0.2334  0.3181  0.0551
25926W        W41735   5.358   2.905   5.713 -0.0580  0.0495 -0.1209
25927W        W41736   1.190   5.306  11.280 -0.0341  0.0256  0.0931
25928W        W41737  18.173   0.446  12.237 -0.1570  0.2381 -0.0124
25929W        W41738  16.205   9.305  15.121  0.2891  0.1285  0.2034
25930W        W41739   0.208  18.457   4.963 -0.1160  0.3411 -0.0393
25931W        W41740  17.488  16.175   2.267 -0.0983 -0.0420 -0.1297
25932W        W41741  11.527  15.127  10.322 -0.1380 -0.0567  0.0523
25933W        W41742  11.407   5.161   3.407  0.2648  0.0960 -0.3188
25934W        W41743   2.013   1.676  15.778  0.0770  0.0863  0.2787
25935W        W41744  14.275   5.275  10.821 -0.1531  0.3551  0.2042
25936W        W41745   0.256   9.870   1.363 -0.0545  0.0695 -0.1299
25937W        W41746  16.518   1.620   0.939  0.2590  0.1869  0.3389
25938W        W41747   4.106  10.706   4.112  0.0819 -0.0330  0.2020
25939W        W41748   9.491   2.630   5.147  0.1545 -0.0253 -0.2725
25940W        W41749   7.040  12.234  12.479 -0.1557 -0.1939 -0.0660
25941W        W41750  11.071  16.033   0.919  0.0857  0.3000 -0.2714
25942W        W41751  12.306   8.043  11.905 -0.1155 -0.2108  0.1752
25943W        W41752   4.053   3.267   1.525  0.3218  0.2050  0.1178
25944W        W41753   1.269  13.568   3.137  0.3097 -0.1311 -0.0894
25945W        W41754   1.711   7.695   2.318  0.3643  0.2528 -0.0701
25946W        W41755  12.396  13.912  14.903 -0.0504 -0.1383 -0.1144
25947W        W41756   8.466   0.450  10.696 -0.1667  0.2632 -0.0368
25948W        W41757   0.176  16.035   2.392 -0.0961  0.2117 -0.1352
25949W        W41758  11.937  13.203  11.691 -0.1434 -0.0129  0.0125
25950W        W41759  17.941  17.794   3.905 -0.1989  0.0653 -0.0155
25951W        W41760   9.154   3.824  11.395  0.2559  0.1141 -0.0805
25952W        W41761   5.019   5.213   0.789 -0.0912  0.2144 -0.1093
25953W        W41762   8.466   2.048  15.812  0.4730  0.2194 -0.0360
25954W        W41763  16.965   8.603  15.748  0.0467  0.2436 -0.1623
25955W        W41764   8.870  11.835   0.460  0.0395 -0.0130 -0.1756
25956W        W41765   2.248  16.280   4.530 -0.0549  0.0352 -0.2186
25957W        W41766   2.689   8.617  12.444  0.1125  0.1138  0.3106
25958W        W41767  11.381   1.417  15.170 -0.0414  0.1783  0.0875
25959W        W41768   7.747  15.441  14.241 -0.0837 -0.3314  0.1182
25960W        W41769   1.361  12.277  14.593  0.7907  0.1281  0.0936
25961W        W41770   4.711   6.393  14.388  0.0389  0.4066  0.1536
25962W        W41771  17.230   6.755  15.201  0.2732  0.1203  0.0538
25963W        W41772  13.071   2.762   2.392 -0.1412 -0.2078  0.2491
25964W        W41773  15.055  13.222   4.431 -0.0418 -0.1741 -0.1576
25965W        W41774   2.463   3.589   1.825 -0.0855 -0.1276 -0.2480
25966W        W41775  18.032   9.737   1.757 -0.0869 -0.0338  0.0181
25967W        W41776  13.764   8.364  12.964  0.3934  0.0539  0.2459
25968W        W41777  15.536   1.917   0.245  0.0308  0.3024  0.0579
25969W        W41778   6.634   8.128  15.280 -0.3026 -0.2048 -0.2184
25970W        W41779   2.773   7.520  13.265  0.1381  0.1223  0.1107
25971W        W41780  14.565  10.347   0.034  0.0313  0.2417 -0.0406
25972W        W41781   6.594   0.321   1.517 -0.1462 -0.3258  0.1991
25973W        W41782   6.995   3.270   1.817  0.0576 -0.3087 -0.1523
25974W        W41783   9.215  10.743  12.235  0.0753 -0.1741  0.1818
25975W        W41784  16.961  11.313   1.446 -0.0866  0.1330 -0.2697
25976W        W41785   6.601   0.764   5.284  0.3886  0.0213 -0.2785
25977W        W41786  13.437   1.978   2.931 -0.4239 -0.0995  0.0554
25978W        W41787   2.536   9.738   2.431  0.0970  0.3722  0.1076
25979W        W41788   2.534  15.073   3.629  0.2583 -0.1214 -0.0893
25980W        W41789  17.874  17.906  15.559  0.1938  0.0246 -0.1498
25981W        W41790  13.905  15.452   2.831  0.0584  0.4392  0.0846
25982W        W41791  15.003  13.800   0.332 -0.0154  0.1217  0.2474
25983W        W41792  11.195   1.941   0.871  0.0959 -0.1203 -0.0093
25984W        W41793  12.960  11.587  11.785  0.1881  0.0493  0.2257
25985W        W41794  15.344   3.600   4.220  0.0920  0.0835  0.0217
25986W        W41795   0.423  13.186   1.549  0.0499  0.0698  0.1451
25987W        W41796   3.003  11.246  15.716  0.3172 -0.1482  0.0330
25988W        W41797  13.037   7.151   4.101 -0.0390  0.1946 -0.0777
25989W        W41798   9.046  12.189  14.734 -0.2718  0.2188 -0.0593
25990W        W41799   5.510  12.873  10.896 -0.5022 -0.2852  0.2777
25991W        W41800   8.595  17.088  11.623  0.2704 -0.1692 -0.2015
25992W        W41801  12.315   5.572   4.607  0.0088  0.0157 -0.1537
25993W        W41802   5.710  16.233  15.567 -0.2843  0.1728  0.3459
25994W        W41803  15.909   8.184   5.392  0.0618  0.1091  0.0845
25995W        W41804  10.490   6.586  12.236  0.1795 -0.0319 -0.3187
25996W        W41805  15.963   1.064   3.580  0.0690  0.2563  0.1004
25997W        W41806  17.012   1.567  12.552 -0.1661  0.0568  0.1128
25998W        W41807  14.240   4.126   0.631 -0.0525 -0.1567 -0.1684
25999W        W41808   0.101  12.817   1.264 -0.0801 -0.0908  0.0511
26000W        W41809  13.515   5.029  11.919 -0.1313 -0.1115  0.0360
26001W        W41810  14.406   9.145   3.762  0.0113  0.1212  0.1125
26002W        W41811   6.507   4.603  15.634 -0.0912  0.2165  0.2897
26003W        W41812  15.146   3.404  10.926 -0.0631  0.2575  0.2877
26004W        W41813  14.604  12.542   5.052 -0.0028  0.0208  0.3455
26005W        W41814   8.418  18.126  13.680 -0.2741  0.0175 -0.0832
26006W        W41815  18.366  16.720  11.227  0.0595 -0.2380 -0.3110
26007W        W41816  13.313  12.937  11.371 -0.1154 -0.0575  0.0801
26008W        W41817  12.229   5.182  13.217  0.1798  0.2835 -0.0195
26009W        W41818   4.457   7.814  11.411  0.0339 -0.0721 -0.0352
26010W        W41819  17.659  17.986   0.154 -0.0525  0.1430 -0.1984
26011W        W41820   9.300  18.293   1.980  0.1167 -0.1076  0.0661
26012W        W41821   4.734  13.483  12.762 -0.1122 -0.0874  0.0717
26013W        W41822  11.862   5.378  15.315  0.0300 -0.0050  0.1169
26014W        W41823   3.329  12.583  14.029 -0.1399  0.0156  0.1759
26015W        W41824   5.479  14.204  10.198 -0.2156  0.1174 -0.0453
26016W        W41825   2.019   2.715   4.984 -0.0964  0.0242  0.0948
26017W        W41826   3.374   6.245  14.667 -0.0481 -0.1338  0.0283
26018W        W41827   7.349  12.897  14.878 -0.0444 -0.0229  0.1726
26019W        W41828   0.135  10.613  12.977  0.0639  0.1999  0.1854
26020W        W41829  15.958  12.195  14.902 -0.1571  0.2261 -0.0433
26021W        W41830  16.687   6.770  13.435  0.0373 -0.1663 -0.0107
26022W        W41831  13.969  11.331  11.442 -0.1846 -0.5362  0.0480
26023W        W41832  17.851  10.641   0.791  0.0305  0.0941  0.1980
26024W        W41833   3.497  16.668  13.240  0.2118 -0.1070  0.1283
26025W        W41834   5.884   6.428  14.052 -0.0523  0.0088 -0.3169
26026W        W41835   1.783  12.608  12.866  0.0036  0.0599  0.0627
26027W        W41836  13.753   0.449  14.396 -0.1461  0.4604  0.1553
26028W        W41837   1.140  16.037   1.068 -0.0185 -0.3197 -0.1521
26029W        W41838   5.951   7.193   1.234  0.1598  0.3000 -0.2004
26030W        W41839  13.233   6.288   4.071 -0.2676 -0.1433  0.3009
26031W        W41840  12.392   3.651   3.089  0.2161 -0.0181 -0.1036
26032W        W41841  11.629   6.757  13.652  0.3235 -0.2465 -0.1433
26033W        W41842  16.214  11.841  13.357  0.0189 -0.0703  0.1401
26034W        W41843  15.334   5.574  11.229 -0.0062 -0.4723  0.0809
26035W        W41844   4.716  13.351   2.824  0.0365  0.1357  0.1813
26036W        W41845   3.614   2.252  15.393  0.2072 -0.2432  0.0192
26037W        W41846   6.409   4.619   2.893 -0.0090  0.2056  0.0264
26038W        W41847  18.441  12.421  12.496 -0.0071 -0.0049  0.1721
26039W        W41848  11.574   4.358  14.024 -0.0223  0.5105 -0.0352
26040W        W41849  15.254   9.237   1.757  0.1397  0.1446 -0.2142
26041W        W41850  10.955  14.672   1.524 -0.3715 -0.0740 -0.2560
26042W        W41851   8.245  17.093  15.516  0.0340  0.1765 -0.0830
26043W        W41852  11.708  13.028  10.643  0.2431  0.3488 -0.2446
26044W        W41853   1.146   7.366   3.376 -0.0137 -0.2280 -0.1341
26045W        W41854   1.835   3.800  11.046 -0.1980 -0.1718 -0.0635
26046W        W41855   9.046   0.212  11.407 -0.1138 -0.0797 -0.1850
26047W        W41856  15.486  11.877  15.777 -0.1689 -0.0657 -0.0406
26048W        W41857   2.241  12.848  13.265  0.3922  0.2648  0.1192
26049W        W41858   1.184   2.530   3.991  0.2549 -0.1231  0.0831
26050W        W41859   8.428  17.163   2.829  0.0742 -0.2964  0.1371
26051W        W41860  15.597   2.517  15.460 -0.1621 -0.0505 -0.0671
26052W        W41861   7.137   8.421  11.331 -0.1214 -0.0088 -0.1540
26053W        W41862   5.407  16.586  12.673 -0.3989  0.1066  0.2719
26054W        W41863   3.292  15.041   1.176 -0.0920 -0.0994 -0.2106
26055W        W41864   5.070  11.586  13.432  0.0313 -0.0719 -0.2005
26056W        W41865   1.493   7.195  12.936  0.1649  0.1281 -0.1538
26057W        W41866  11.354   1.912   5.055 -0.2525 -0.2301 -0.0526
26058W        W41867   1.956  17.835   0.496 -0.0295 -0.1839 -0.0927
26059W        W41868   4.655   6.632  15.311  0.3211 -0.1403  0.1640
26060W        W41869  16.076   6.958   0.537  0.0205  0.0751 -0.1042
26061W        W41870   5.976   6.294  12.152 -0.1951 -0.3776 -0.1179
26062W        W41871   0.144   3.034  12.546  0.0011  0.1781  0.3469
26063W        W41872  11.365  10.781   2.517  0.0611  0.1283  0.2313
26064W        W41873   8.455   4.920  13.303  0.1163 -0.1396 -0.1278
26065W        W41874  10.998  11.748  13.011  0.1071 -0.2760  0.0599
26066W        W41875   1.216   6.444  15.487 -0.0221 -0.0709  0.0716
26067W        W41876   8.309   5.054  11.838 -0.3500 -0.0430  0.0071
26068W        W41877  14.447  13.147   1.320  0.2030 -0.0941 -0.2592
26069W        W41878   2.783   1.123  13.915  0.1319 -0.0102  0.3369
26070W        W41879   9.258   2.230   1.005 -0.0700 -0.2042 -0.1729
26071W        W41880   6.300   1.864  15.327 -0.0278  0.0022  0.2529
26072W        W41881   9.652   3.469  14.690 -0.2458  0.3217  0.0243
26073W        W41882  13.437   8.336  13.752 -0.4091 -0.3851  0.1316
26074W        W41883  13.682   8.790   1.619 -0.1019  0.0456  0.1698
26075W        W41884  18.154   1.522  11.210 -0.2844 -0.2042  0.0920
26076W        W41885  11.291   5.967   3.230 -0.1927  0.0244 -0.1401
26077W        W41886  17.653   4.147   2.285  0.0522  0.2021  0.1086
26078W        W41887   6.227  13.625   5.561  0.1011 -0.0645  0.2239
26079W        W41888  11.818  17.705  14.706  0.1624  0.0425 -0.0039
26080W        W41889   4.417   2.489   2.502  0.0837  0.1829 -0.1319
26081W        W41890   3.191  13.985   1.676  0.0372  0.3166  0.1195
26082W        W41891   9.954   2.302   4.366  0.2328 -0.1227  0.0588
26083W        W41892   9.252  12.506  15.104 -0.1453  0.1612 -0.2288
26084W        W41893   8.026   3.721   1.807  0.0561 -0.0001  0.0433
26085W        W41894   2.881   3.263  12.033 -0.0397  0.0724  0.0091
26086W        W41895   0.066   1.891  14.120 -0.1163  0.0652 -0.1780
26087W        W41896   1.880  17.816  11.460  0.0901 -0.0065  0.0822
26088W        W41897  15.307  11.479  12.206  0.0225 -0.0441 -0.0255
26089W        W41898  12.473   1.085  10.389 -0.0204  0.1455 -0.2629
26090W        W41899   8.376   8.622  11.000 -0.0031 -0.0765 -0.1241
26091W        W41900  17.640   7.649  14.148 -0.2322 -0.2157  0.0882
26092W        W41901   7.207   0.090  11.389 -0.2742  0.1844  0.2258
26093W        W41902  10.055   1.754  15.423 -0.0335 -0.1508 -0.1705
26094W        W41903  15.006   8.010   5.018 -0.0743  0.1267 -0.0909
26095W        W41904  10.195  14.441   5.417 -0.1303 -0.2181 -0.1034
26096W        W41905  15.006  13.029   2.006 -0.2315  0.1071 -0.3778
26097W        W41906  15.491   8.760  11.843  0.0596 -0.0893  0.2857
26098W        W41907  15.615   3.438  11.053 -0.0147  0.1470 -0.1265
26099W        W41908   8.945  18.065  11.777 -0.3077  0.1616 -0.0150
26100W        W41909  13.876  15.558  11.374 -0.0964  0.1052  0.1411
26101W        W41910   3.913   2.441  11.292  0.0111 -0.1347  0.1294
26102W        W41911   7.478  10.282  14.285 -0.3040 -0.1160 -0.1465
26103W        W41912   9.284  12.810  11.146  0.1270 -0.3407  0.1494
26104W        W41913  12.402  16.547  11.618  0.0836 -0.1507 -0.0448
26105W        W41914   4.327   9.614  12.050  0.0841 -0.1598 -0.0108
26106W        W41915  10.592  15.741   1.057 -0.1289 -0.2492  0.0850
26107W        W41916  11.656   8.269   5.498  0.2220 -0.1512  0.3976
26108W        W41917   0.170   6.872  11.694 -0.3151 -0.1607 -0.0989
26109W        W41918  11.030  12.726  15.087 -0.2121 -0.2556 -0.2853
26110W        W41919  15.935   2.174  15.220 -0.0536  0.1926  0.0154
26111W        W41920  16.408   6.127   1.914 -0.0477 -0.0077  0.1184
26112W        W41921   3.492   2.513  15.775  0.2033 -0.4006 -0.0253
26113W        W41922  13.543  18.226  15.122  0.1326  0.0727  0.3526
26114W        W41923   9.967   6.296  13.304  0.2661 -0.0734  0.1542
26115W        W41924  15.935  10.304   5.751  0.2634 -0.1177 -0.0212
26116W        W41925   5.255  15.692   5.776  0.0854  0.3237 -0.1513
26117W        W41926   3.237   9.093  11.757  0.0006  0.2053  0.2462
26118W        W41927  12.843   8.821   5.478 -0.1833  0.2372  0.2552
26119W        W41928   3.277   3.384  15.480 -0.1006  0.0857 -0.0355
26120W        W41929   6.848  15.868   4.715 -0.1697  0.1041 -0.1187
26121W        W41930   1.238  14.426   4.268 -0.1166  0.2030 -0.3576
26122W        W41931  13.677   2.143  10.889 -0.0535 -0.0351 -0.2379
26123W        W41932   0.535   1.776  15.347  0.0286 -0.0686 -0.0669
26124W        W41933   1.333  14.374  11.900  0.0314  0.1509 -0.3077
26125W        W41934   4.324   2.077   2.135 -0.2403  0.2254 -0.1808
26126W        W41935  13.960  14.455  13.323 -0.1357 -0.1868 -0.1996
26127W        W41936  17.296  17.228  13.046 -0.3921  0.1312  0.2583
26128W        W41937   0.404   2.016  11.753 -0.0624  0.1386  0.2954
26129W        W41938   1.782   9.392   0.569  0.0816  0.1255  0.2618
26130W        W41939  17.567   9.880   5.157 -0.1550  0.1427 -0.1525
26131W        W41940  10.805   8.588  10.961  0.1595  0.3853 -0.3690
26132W        W41941   9.015   2.871  11.533 -0.3234 -0.2534 -0.0559
26133W        W41942  16.522   1.326   0.062  0.0520 -0.1584 -0.0434
26134W        W41943  17.426   6.511  11.611 -0.1086 -0.0702  0.0232
26135W        W41944   6.231   6.653   5.595  0.1107  0.2488 -0.0179
26136W        W41945  15.296  16.388  11.937 -0.0610  0.0645  0.2274
26137W        W41946  17.886   0.277  13.149 -0.2645 -0.0159  0.2079
26138W        W41947   6.606   8.783   1.090 -0.0697 -0.3412  0.0834
26139W        W41948   7.289  14.289   3.883  0.0894 -0.0221 -0.2600
26140W        W41949  12.559  13.615   5.320 -0.1955  0.3463  0.2662
26141W        W41950   0.490   2.486   1.850  0.2391  0.0545  0.1268
26142W        W41951  12.088   5.838  15.208 -0.1022 -0.1219  0.0303
26143W        W41952   7.907  18.204  15.701 -0.2013  0.1137 -0.4132
26144W        W41953   8.020  16.563   2.368  0.1166  0.2889  0.0175
26145W        W41954  11.062  14.414   4.423 -0.3504  0.0767 -0.1761
26146W        W41955   7.384   3.989  11.933  0.2099 -0.3551  0.0575
26147W        W41956  16.621  16.639   0.598 -0.4550  0.3266 -0.0086
26148W        W41957   9.352   0.852  11.920  0.1839  0.2217  0.0808
26149W        W41958  15.078   6.071  11.254  0.1792 -0.0951 -0.0913
26150W        W41959   8.807  17.987  15.340 -0.2320  0.2722 -0.0484
26151W        W41960   5.062   2.895   1.551  0.1144 -0.0832  0.1947
26152W        W41961   6.795   0.378  14.390 -0.1461  0.0725  0.1231
26153W        W41962   7.953   2.013  13.551  0.1703 -0.0289 -0.1082
26154W        W41963   5.360  11.251   1.072  0.0890  0.0213 -0.1439
26155W        W41964  18.097  14.731   2.069  0.0716 -0.0792  0.0535
26156W        W41965   8.207   3.301   0.482  0.0180 -0.0622  0.0524
26157W        W41966   7.871  13.549   0.684  0.2342 -0.1777 -0.0624
26158W        W41967  12.083   1.765  12.631 -0.0803  0.3808 -0.0651
26159W        W41968  15.718  18.233  13.881  0.0568 -0.1055 -0.3542
26160W        W41969  11.414  13.643   3.042  0.0439 -0.1046  0.0877
26161W        W41970   5.347  16.752   3.325  0.1954 -0.0240 -0.1368
26162W        W41971   1.752  10.248   5.277  0.1579 -0.3794  0.2334
26163W        W41972  16.684   4.191  10.610  0.1747 -0.2221  0.1476
26164W        W41973  12.627  17.411   4.900 -0.2622  0.0158 -0.0811
26165W        W41974   3.775  12.637   4.974 -0.3333  0.0353 -0.3103
26166W        W41975  15.159  12.066  15.353  0.1410  0.1938  0.1228
26167W        W41976  14.079  12.458  15.213  0.0197 -0.0345 -0.1158
26168W        W41977  13.265   8.326   3.249 -0.2692 -0.2949 -0.0214
26169W        W41978   7.430  10.435   1.544  0.1243 -0.1356  0.1174
26170W        W41979   5.304   4.243  12.218  0.0548  0.1260 -0.1011
26171W        W41980   4.227   2.070  14.262 -0.2484  0.1824  0.0882
26172W        W41981  15.409  12.373   4.339  0.1790  0.2492  0.0861
26173W        W41982   7.287  13.117  12.998 -0.1051 -0.0883  0.0866
26174W        W41983   5.011  16.650  11.063  0.0122 -0.1404  0.1443
26175W        W41984  14.188  14.880  11.268 -0.1842  0.0988 -0.0780
26176W        W41985   9.142   5.830  10.844 -0.1998 -0.0403 -0.2103
26177W        W41986   7.600   1.389  12.838 -0.0577 -0.0345 -0.0999
26178W        W41987   1.110   5.968  14.280  0.0499 -0.2112  0.0719
26179W        W41988   7.456   6.427  10.984  0.1702 -0.1217  0.1013
26180W        W41989  12.403   1.495   5.752 -0.0800  0.3866 -0.2279
26181W        W41990   1.357   4.162  13.433  0.3758 -0.3337  0.3349
26182W        W41991  14.127  16.228  12.641  0.2532  0.4299  0.0567
26183W        W41992  12.352   6.871  12.327  0.1586  0.0209 -0.2997
26184W        W41993  17.525   3.029  11.124 -0.2944 -0.1405 -0.1054
26185W        W41994   2.509   5.807   1.691 -0.2606  0.0896 -0.1923
26186W        W41995  10.755   2.746   3.270  0.1108 -0.2234 -0.2449
26187W        W41996  16.251  13.382   0.690  0.2556  0.2822  0.0656
26188W        W41997  15.157   8.042   3.183  0.0672  0.1771 -0.1093
26189W        W41998   5.446   0.430   3.945  0.0338  0.1024 -0.0576
26190W        W41999  10.258  13.497   1.008  0.3015 -0.1091 -0.0510
26191W        W42000  13.467  15.092  15.742 -0.0549  0.3560  0.0455
26192W        W42001   9.670   9.265   0.125  0.0793  0.0312 -0.0607
26193W        W42002   7.468  18.207   1.250  0.2828 -0.1261  0.1963
26194W        W42003   2.456   1.232   4.724 -0.1173  0.4456 -0.2276
26195W        W42004   8.295   7.011   3.405  0.0444 -0.1520 -0.0335
26196W        W42005   1.752  16.057   2.801  0.0453 -0.3163 -0.3808
26197W        W42006   6.513  17.135   0.767 -0.3246  0.0690 -0.0290
26198W        W42007  12.683   9.348   0.556  0.0038  0.0064 -0.1405
26199W        W42008  10.706   3.815   3.864 -0.2194  0.0493 -0.0654
26200W        W42009  15.718   2.003  11.307  0.0251 -0.1352 -0.2433
26201W        W42010  15.303   8.801   2.056  0.0795 -0.1886  0.0674
26202W        W42011  11.560  13.570  14.817 -0.1038  0.2491  0.0015
26203W        W42012   8.852   2.284  14.578  0.0194  0.2360 -0.2623
26204W        W42013   7.461  13.741   5.164 -0.3545 -0.0367  0.0230
26205W        W42014   8.947  17.164   5.876 -0.0138  0.2755  0.1459
26206W        W42015  12.841   7.551   4.325  0.3528  0.0990 -0.0621
26207W        W42016  18.395   5.526   1.758 -0.0533 -0.1518 -0.1368
26208W        W42017   0.886  12.317  12.428  0.2534 -0.0099 -0.0848
26209W        W42018   5.389   4.144   5.252  0.4519  0.1481  0.0067
26210W        W42019   4.199   3.924   2.630 -0.1066 -0.1025 -0.1368
26211W        W42020   6.583  10.486  13.833 -0.0401  0.1719 -0.1944
26212W        W42021   9.679   9.018  11.048  0.0175  0.0623  0.0486
26213W        W42022   0.253  16.221   0.095  0.2602  0.1495  0.0486
26214W        W42023   2.340   6.223   0.384  0.0151 -0.1225 -0.0431
26215W        W42024   6.450   5.302  12.165  0.0587  0.1427  0.0672
26216W        W42025   6.489   4.667   1.174 -0.0438  0.0906  0.0742
26217W        W42026   4.454  12.416  14.827  0.0722 -0.0402  0.0682
26218W        W42027   6.191  12.384  10.085 -0.0474 -0.0112 -0.0762
26219W        W42028  12.991   3.762  13.296  0.1316  0.2094 -0.1623
26220W        W42029   6.866   8.748   3.230  0.0635  0.1694  0.1967
26221W        W42030  13.346  13.409  11.990 -0.2548  0.0929 -0.2434
26222W        W42031   7.066   9.429   0.658  0.0058  0.1325 -0.0773
26223W        W42032   3.564  13.086   4.735 -0.2509  0.0644  0.3093
26224W        W42033   4.222   9.663   4.580 -0.2063 -0.1108  0.2325
26225W        W42034  13.156  13.758  12.374 -0.1670 -0.0545 -0.1139
26226W        W42035  16.697   7.482   1.284  0.1500 -0.0164 -0.1526
26227W        W42036  13.296   0.687  15.089  0.0503 -0.1107  0.1713
26228W        W42037  12.330   7.086  12.847 -0.1962  0.1553  0.1023
26229W        W42038  17.146   1.974   1.988  0.2796  0.2006  0.0423
26230W        W42039   6.395  12.008  14.597  0.1661 -0.0343  0.1254
26231W        W42040   4.085  10.235   0.742 -0.0705 -0.0666 -0.0363
26232W        W42041  13.236   0.101   5.061  0.0428  0.1069 -0.0257
26233W        W42042   3.624  14.245   5.501  0.0345 -0.0515  0.2030
26234W        W42043   9.222   2.875  13.326 -0.0861 -0.0255 -0.1183
26235W        W42044  12.431   2.422   5.261  0.0356 -0.0585 -0.0900
26236W        W42045  17.731   6.338   2.992 -0.2055  0.1279  0.3356
26237W        W42046   8.187  18.177  14.158 -0.0761  0.0987  0.0007
26238W        W42047  14.667  10.537   5.654  0.1035 -0.0475 -0.1284
26239W        W42048  14.947   0.974  11.587 -0.0220  0.1819  0.2477
26240W        W42049   2.223  11.616   2.427 -0.0131  0.1700  0.1599
26241W        W42050  15.245   2.310  15.096  0.0820  0.0961  0.1596
26242W        W42051   1.809  18.033   5.030 -0.0367 -0.1705 -0.2874
26243W        W42052   4.515  11.479  12.575 -0.2491 -0.0010  0.3826
26244W        W42053  17.624   7.541  11.669  0.2055  0.2190  0.0011
26245W        W42054  13.074   1.992  12.792  0.0846  0.1032 -0.1509
26246W        W42055  16.713   9.435  15.151  0.2187 -0.1253 -0.0204
26247W        W42056  10.650  14.276  13.536 -0.0326 -0.4853  0.0303
26248W        W42057   5.639   4.434  14.902  0.0096  0.3101  0.0985
26249W        W42058  12.601   5.936  15.350 -0.2029  0.1308  0.0430
26250W        W42059  17.577   2.040  13.165  0.2190 -0.1339 -0.1779
26251W        W42060   8.410  12.653   2.054 -0.0718  0.0935  0.0191
26252W        W42061   9.302  12.050  11.865  0.0688 -0.1540 -0.0971
26253W        W42062  11.112  18.387  12.140  0.0013 -0.2847 -0.1303
26254W        W42063  15.199   7.015   0.599 -0.2157  0.1867  0.1158
26255W        W42064  10.981  16.015  10.913 -0.2104 -0.1705 -0.1384
26256W        W42065  13.520  11.204  12.482  0.0984 -0.1110  0.2640
26257W        W42066   2.598   6.181   4.782  0.3094 -0.0707 -0.1266
26258W        W42067   9.259  17.401  11.161 -0.0332  0.2308  0.4558
26259W        W42068  12.783   7.331   1.057 -0.0122 -0.2916  0.0403
26260W        W42069   7.224   7.929   4.734 -0.0036 -0.3553 -0.2229
26261W        W42070   5.648   0.880  15.353 -0.2782  0.1737 -0.3013
26262W        W42071  13.123  12.444  13.813 -0.3311 -0.0767  0.0606
26263W        W42072  17.578  17.415  12.724 -0.2702  0.5331 -0.0983
26264W        W42073   6.957  13.665  15.778  0.1929  0.0279  0.2416
26265W        W42074  14.655  12.888  14.355 -0.1636  0.1582 -0.1775
26266W        W42075  17.839  16.854  11.793 -0.0702 -0.0991  0.4524
26267W        W42076   8.109   6.008   3.889  0.1171 -0.0149 -0.0925
26268W        W42077   3.172  14.159   2.247 -0.2077 -0.0335  0.0180
26269W        W42078  10.056  10.963  13.330 -0.0417 -0.1455  0.1300
26270W        W42079  12.336  14.363   3.424  0.1503 -0.1620  0.0359
26271W        W42080   4.456   6.871  11.036  0.2802 -0.0213  0.0307
26272W        W42081   7.177  13.418  15.391 -0.1159 -0.0843 -0.0628
26273W        W42082  17.650  17.483  14.435 -0.2333 -0.1174  0.0584
26274W        W42083   3.816   1.804  11.942  0.1425 -0.1525  0.3019
26275W        W42084   0.672   8.255  14.218 -0.0876 -0.1128  0.1262
26276W        W42085  14.291  10.193   4.079 -0.2486 -0.2130 -0.2494
26277W        W42086   4.633  17.592   1.316  0.3891  0.2235  0.0336
26278W        W42087   7.471   5.631  13.871 -0.0068  0.3912  0.1232
26279W        W42088   5.965  13.676   1.721  0.0142 -0.2289 -0.1462
26280W        W42089   0.630   7.866   1.002  0.1994 -0.1973  0.1245
26281W        W42090   4.981  15.528  13.454  0.1738  0.0603 -0.1515
26282W        W42091   8.875  16.055   3.339  0.1097 -0.1837 -0.2494
26283W        W42092  16.759  10.918   0.972  0.3099 -0.2291  0.0775
26284W        W42093   9.662  17.179   5.213  0.5278 -0.1483  0.1505
26285W        W42094   8.782  13.289   3.633  0.1503  0.1167 -0.3209
26286W        W42095  11.459   4.482   4.054  0.1002 -0.1517 -0.3228
26287W        W42096  16.899   8.593  15.093 -0.2090  0.1742  0.3316
26288W        W42097   3.389  12.786   9.999  0.0652  0.5406 -0.2433
26289W        W42098   2.543   9.110   3.823  0.1579  0.0066  0.3310
26290W        W42099  15.214  10.175  15.794  0.0769 -0.1344  0.0292
26291W        W42100   4.777   6.960  14.404 -0.0566 -0.0087  0.0039
26292W        W42101   3.579   5.109  12.893 -0.1889  0.0212 -0.0403
26293W        W42102   1.091   7.516  14.483  0.1970  0.0495 -0.1398
26294W        W42103   3.938   9.492  12.907  0.0121  0.1007 -0.1203
26295W        W42104   1.859   8.341   2.838 -0.1175 -0.1588 -0.0785
26296W        W42105   2.845   0.042   4.235 -0.1069  0.1232  0.2976
26297W        W42106   9.428  16.830  12.957 -0.0658 -0.1739  0.0446
26298W        W42107   1.850   9.314   2.329  0.1833  0.1117 -0.0343
26299W        W42108   4.850   2.874  13.893 -0.2959  0.0917 -0.1014
26300W        W42109  17.903   1.851  13.512  0.1817  0.0769  0.0739
26301W        W42110  13.230   5.153  15.167  0.0101  0.0308 -0.4607
26302W        W42111   9.885  10.205   2.095 -0.1122  0.2473 -0.2576
26303W        W42112  16.974  10.130  13.246 -0.2870 -0.0716  0.0215
26304W        W42113  10.643  14.855   4.230  0.1135 -0.1463  0.1723
26305W        W42114  13.017   1.618  12.499  0.0429 -0.1345 -0.0699
26306W        W42115   6.986  13.664   2.227  0.0401  0.1329 -0.3410
26307W        W42116  16.532   3.563   3.740 -0.0277  0.1835  0.0320
26308W        W42117   5.531  14.196   0.183  0.4566 -0.5569 -0.0040
26309W        W42118  13.437   0.815   1.533  0.0334  0.0650  0.1913
26310W        W42119   0.863   6.013   5.947 -0.3581 -0.1608 -0.0233
26311W        W42120  12.985   2.153   4.031  0.1659  0.0474 -0.1142
26312W        W42121   5.846   8.007   3.550 -0.1031 -0.1254 -0.0134
26313W        W42122   1.778   4.818  13.831  0.1840 -0.1125 -0.1620
26314W        W42123   0.560  17.910   3.113 -0.0969  0.3621 -0.0848
26315W        W42124   3.511  11.192  13.623 -0.0741 -0.0949 -0.0763
26316W        W42125  14.782  17.534   2.175  0.0605 -0.0957 -0.1163
26317W        W42126   4.338   7.392  11.133  0.1384 -0.5474  0.0371
26318W        W42127  10.372  17.414  14.931 -0.0943 -0.3546 -0.0469
26319W        W42128  13.687   8.537   4.324  0.1167  0.0488  0.0617
26320W        W42129   7.066  12.648   2.449  0.4088 -0.2849  0.1039
26321W        W42130  12.363   6.839  13.941 -0.0984  0.0469 -0.4196
26322W        W42131   0.225  13.570  12.355 -0.0779 -0.0086  0.0437
26323W        W42132   4.152  16.169   3.329 -0.2215  0.0800  0.0998
26324W        W42133   1.247   3.694  13.556 -0.0779 -0.0090 -0.0838
26325W        W42134  10.266   2.593   3.553  0.2511  0.1070  0.0289
26326W        W42135  11.917   9.258  14.725  0.2616  0.2793 -0.0433
26327W        W42136  17.009   8.486  13.171 -0.1117  0.1976 -0.3768
26328W        W42137  14.253  14.619  14.754  0.3129  0.0290 -0.0870
26329W        W42138   7.632   8.511   1.230  0.3037 -0.1772 -0.1087
26330W        W42139  16.912   3.363   4.049 -0.2614 -0.0618 -0.0055
26331W        W42140  17.710   6.210  11.261  0.1514  0.1923 -0.0249
26332W        W42141   7.432  11.995   4.248 -0.0420 -0.2437  0.2853
26333W        W42142   0.709   0.816  11.469 -0.0997 -0.2321 -0.0464
26334W        W42143   0.523   7.537  11.718 -0.4621  0.1370  0.0384
26335W        W42144   7.515  12.560   1.762  0.2266  0.4499 -0.1381
26336W        W42145  13.210   1.213   1.845 -0.1075  0.4074  0.3192
26337W        W42146   4.467   0.423  11.874 -0.2024  0.0065 -0.1343
26338W        W42147  15.570  13.693   2.288  0.0689 -0.3332 -0.0078
26339W        W42148  16.011   1.720   2.753  0.1781 -0.0612 -0.2362
26340W        W42149  18.211   5.581  15.230 -0.2258  0.1135  0.0958
26341W        W42150   7.999  11.176   2.508 -0.0709  0.2182  0.0902
26342W        W42151   9.586  10.965  12.706  0.3081 -0.0088  0.3389
26343W        W42152   9.605   8.373   0.588  0.0797 -0.1666 -0.0706
26344W        W42153  16.196  15.930  14.841  0.0472 -0.1874  0.3045
26345W        W42154   8.331   5.520  12.067 -0.0313  0.2746  0.1013
26346W        W42155  10.789   0.694  12.385  0.2806  0.0021  0.0405
26347W        W42156  14.814  15.846   2.299 -0.1170 -0.2895 -0.0774
26348W        W42157  15.453  12.236   1.267 -0.3290 -0.2480 -0.0373
26349W        W42158   3.535   1.976  13.152  0.0688  0.0467 -0.2685
26350W        W42159  10.503  14.585   2.012 -0.2066  0.2246  0.1462
26351W        W42160   5.261  11.304  13.758  0.3479 -0.4411  0.1027
26352W        W42161  16.711  12.149  12.314 -0.0356  0.3309 -0.2827
26353W        W42162   6.386  13.241   5.291 -0.0754  0.0553 -0.0796
26354W        W42163  15.847   2.989   0.493 -0.0550 -0.1467 -0.0775
26355W        W42164  15.537   1.118  14.286 -0.3681  0.0732  0.3405
26356W        W42165  13.650   8.675  13.405 -0.0028  0.0735  0.0724
26357W        W42166  10.273   5.914  13.316 -0.1307  0.0159 -0.0669
26358W        W42167  11.292   5.921   2.336 -0.2326  0.1876  0.0580
26359W        W42168   5.163   3.994   0.301 -0.1895  0.1627  0.1968
26360W        W42169   6.979  10.847   3.389  0.0674 -0.1415  0.0010
26361W        W42170  16.600  10.066  12.876 -0.1112 -0.3450 -0.2089
26362W        W42171   7.591  17.532  12.913 -0.2431 -0.3798  0.0909
26363W        W42172  10.392   7.841  11.187  0.0614 -0.0113 -0.0126
26364W        W42173   2.077   6.436  12.825 -0.1803  0.0485 -0.1635
26365W        W42174   0.089   9.559   5.622  0.0503 -0.1762 -0.0477
26366W        W42175  11.048  17.361  14.015  0.0833 -0.0932  0.1136
26367W        W42176  14.102  10.736   0.677 -0.0448 -0.0328  0.1208
26368W        W42177   8.819  15.330   0.835 -0.0061  0.5055 -0.3092
26369W        W42178   2.001   8.984  13.306  0.0117  0.3004 -0.0297
26370W        W42179  10.610  17.109  11.284  0.3720  0.0382  0.1064
26371W        W42180   6.817  14.153   1.150 -0.1580 -0.0622 -0.1630
26372W        W42181   9.936   3.361  12.764 -0.1504 -0.2039 -0.2392
26373W        W42182   9.894   2.803   4.050  0.0852 -0.2269 -0.0627
26374W        W42183   1.215   4.886  14.479  0.2055  0.0195  0.2817
26375W        W42184   5.545  13.286   1.697  0.1262  0.1153  0.0028
26376W        W42185   2.626   5.669   4.898  0.0215  0.0514  0.2081
26377W        W42186  17.480  15.801   0.500 -0.2661  0.0761  0.2968
26378W        W42187   9.892  16.185   4.804  0.0121 -0.3327 -0.2628
26379W        W42188   7.216   3.100   3.232  0.2025 -0.0196  0.0130
26380W        W42189   4.089  18.066  12.175  0.1129  0.1366 -0.0636
26381W        W42190  10.096  14.930   4.813  0.1160 -0.0618  0.2114
26382W        W42191   3.036  10.488  15.117  0.1796  0.1286  0.2361
26383W        W42192   2.574   2.164   3.026 -0.0588 -0.0827  0.0377
26384W        W42193   3.852  12.090   2.409 -0.0572  0.1272  0.0137
26385W        W42194  17.749  12.070   3.067 -0.4363  0.0298 -0.4035
26386W        W42195  11.199   8.642  15.796  0.1847 -0.2083 -0.1067
26387W        W42196   3.808   8.021  12.368  0.1645  0.0881 -0.0732
26388W        W42197  12.245   8.036   2.208  0.2318  0.0208 -0.2443
26389W        W42198   4.061  12.044   4.374  0.2558  0.1655  0.0453
26390W        W42199   0.674   5.780   0.268  0.0328 -0.0208 -0.0462
26391W        W42200   4.592   8.033   0.479  0.2159 -0.0747 -0.2226
26392W        W42201   2.932  11.834   5.353  0.0395  0.3711  0.0799
26393W        W42202   8.533  11.307   3.682 -0.1263 -0.1758  0.0480
26394W        W42203  16.374   9.402   4.960  0.0689  0.0125 -0.0358
26395W        W42204  11.547  12.089  15.104  0.1694  0.1218 -0.1778
26396W        W42205   7.311  12.995  12.471 -0.0645 -0.2037 -0.1384
26397W        W42206  12.262  13.739  15.504 -0.4270 -0.0674 -0.0922
26398W        W42207   2.808   8.565  11.023 -0.0988 -0.0155 -0.4526
26399W        W42208  10.686  11.432   3.799 -0.0123  0.2054 -0.0652
26400W        W42209  10.652  11.636  15.012 -0.1122 -0.0260 -0.2902
26401W        W42210  11.797   5.771   0.686  0.1502  0.2183 -0.0878
26402W        W42211   9.188  15.202   3.733  0.2223  0.0329 -0.0582
26403W        W42212   7.122   4.860  11.222 -0.3546  0.5287 -0.0468
26404W        W42213  17.018   0.441  15.017 -0.0936  0.1808 -0.3839
26405W        W42214  15.581  17.796  10.919  0.2482 -0.0663 -0.0147
26406W        W42215  13.251  12.043   3.953  0.1505 -0.3789 -0.1241
26407W        W42216  16.473   4.245   4.582 -0.1462 -0.0877  0.1035
26408W        W42217   2.098  16.594   4.943  0.2337 -0.0981  0.0357
26409W        W42218   8.818   1.662   5.478  0.3628 -0.0206  0.0536
26410W        W42219   4.185   0.381   5.786  0.0657 -0.0295 -0.4490
26411W        W42220  12.905   5.301   2.308  0.2195 -0.2165 -0.0233
26412W        W42221   0.011   3.632   0.638  0.0252 -0.1933 -0.0373
26413W        W42222  14.970   9.865   4.912 -0.2792 -0.0662  0.0347
26414W        W42223  17.232  14.921   0.921 -0.0988  0.2458 -0.3012
26415W        W42224   3.526   9.663  13.697  0.1547  0.0654 -0.2043
26416W        W42225   4.707  15.283   0.146 -0.4008 -0.0616  0.1995
26417W        W42226  12.448  18.082  13.636  0.0658  0.0961 -0.2949
26418W        W42227  14.020   4.203  12.272  0.1339  0.2195  0.1473
26419W        W42228   2.499  10.259   4.463  0.0761  0.2421 -0.0883
26420W        W42229  15.981  18.171   3.196  0.0643 -0.2338  0.0071
26421W        W42230  10.711   7.217   4.416 -0.0405 -0.1097 -0.1077
26422W        W42231   3.765   2.894  11.202 -0.1465  0.1098 -0.3651
26423W        W42232   6.137  15.556  12.761  0.0946  0.2860 -0.1826
26424W        W42233   0.238   5.975  15.775  0.1949 -0.0972 -0.0264
26425W        W42234  11.226  13.015  13.767 -0.1981  0.2306 -0.2472
26426W        W42235  11.771  13.930   4.657 -0.0374 -0.0538 -0.1898
26427W        W42236  11.073  13.928  13.675  0.1189 -0.1102  0.1569
26428W        W42237   4.074  14.357  13.463 -0.0469  0.0933  0.0040
26429W        W42238  14.042   0.160   5.412  0.0280  0.1032  0.3430
26430W        W42239   4.523   8.745  12.311 -0.0323  0.0108  0.1372
26431W        W42240  14.621  16.562  12.526  0.1483  0.4213  0.2025
26432W        W42241  18.242  11.344  13.232  0.0537 -0.0328  0.2848
26433W        W42242  11.635   6.145  13.625 -0.1659  0.0721  0.2755
26434W        W42243  17.101  10.383  15.092 -0.1531  0.1113  0.0285
26435W        W42244  11.880  18.360  11.558 -0.1197 -0.0782  0.0050
26436W        W42245   1.514  12.131  12.723 -0.0383 -0.1824 -0.3187
26437W        W42246   6.737   8.967   2.830  0.1485 -0.0199 -0.0160
26438W        W42247  11.789  12.240   3.603  0.0199  0.1373  0.2289
26439W        W42248   3.261   3.799  13.660 -0.2321 -0.3664  0.2174
26440W        W42249   4.156   7.190  11.958 -0.4275  0.1971 -0.1926
26441W        W42250   7.756   1.214   3.061  0.0986  0.2711  0.0574
26442W        W42251  16.377  16.413   4.544 -0.3927  0.2738  0.1676
26443W        W42252  12.789  13.941   0.368  0.2709 -0.0196  0.0072
26444W        W42253  14.156  16.552  13.865  0.2233 -0.0235  0.0295
26445W        W42254  16.637   4.582   5.880  0.2135 -0.0197 -0.0264
26446W        W42255   1.452   8.958  11.352 -0.2675 -0.2246  0.1872
26447W        W42256  16.429   5.421  12.926  0.0758 -0.2555  0.0501
26448W        W42257   0.041  15.383  14.629 -0.0435  0.1337  0.2302
26449W        W42258   0.679   7.014  12.442 -0.4022 -0.0551  0.1211
26450W        W42259  14.811  17.012   4.290 -0.3268 -0.4078  0.5626
26451W        W42260   2.526   8.882   0.298  0.3847  0.0034 -0.2403
26452W        W42261   5.769  11.054  11.371 -0.2044 -0.2620 -0.4539
26453W        W42262  10.445  14.211   1.135  0.1353  0.0954  0.2312
26454W        W42263   2.630   9.969  15.590 -0.0860  0.1702  0.1637
26455W        W42264  10.175  10.817   3.251 -0.0384 -0.2220 -0.0093
26456W        W42265  13.671   6.178   0.538  0.1245  0.0722 -0.0546
26457W        W42266   4.377   4.659  10.133 -0.2345  0.0091 -0.2461
26458W        W42267   4.115  11.140  11.707  0.0669  0.1201  0.0103
26459W        W42268  12.133   0.829   1.117  0.0481  0.2801 -0.2405
26460W        W42269  10.335   7.034  14.128  0.0087  0.3073 -0.1814
26461W        W42270   5.521   8.453  12.310 -0.2294 -0.1025  0.0169
26462W        W42271   5.546  14.449   1.033 -0.1320  0.0201 -0.0913
26463W        W42272  16.813   4.172  12.854 -0.2127  0.0417  0.1606
26464W        W42273   2.035  11.367   4.249 -0.1120  0.1018 -0.1786
26465W        W42274  16.701  14.130  14.502 -0.0289  0.1938  0.1714
26466W        W42275  16.373   4.436   0.123 -0.2345 -0.0212 -0.1033
26467W        W42276  18.239   5.931   0.416 -0.1068  0.0051  0.1061
26468W        W42277   8.093  15.715   1.488 -0.3322  0.1349 -0.2586
26469W        W42278   6.319  15.492   0.960 -0.1007 -0.1515  0.2255
26470W        W42279   0.344   7.194  13.373 -0.2951 -0.2793  0.0356
26471W        W42280   9.003   5.330  15.111  0.1359 -0.1900 -0.0856
26472W        W42281  11.589  15.106  13.391  0.1448 -0.0322  0.1655
26473W        W42282  15.974   6.063  15.297  0.3447  0.2853  0.0705
26474W        W42283  13.027  10.614   4.335  0.1979  0.0607 -0.2609
26475W        W42284   4.323  11.262  12.160 -0.1444  0.2016  0.0500
26476W        W42285  14.829   2.511  12.841 -0.0911 -0.1095 -0.0036
26477W        W42286   3.569  11.741   1.034 -0.1684  0.4550  0.0622
26478W        W42287   5.643  14.195  14.918  0.0553  0.0291 -0.1164
26479W        W42288  17.919   5.726   0.776  0.0356  0.0737  0.0529
26480W        W42289  14.891   7.263   1.307  0.2684  0.4336  0.0005
26481W        W42290  15.440   8.289  11.660 -0.2176  0.1043 -0.1467
26482W        W42291  14.094   5.348  14.058  0.0576 -0.1847 -0.1777
26483W        W42292   3.372   4.744   5.239  0.0755  0.1458 -0.0842
26484W        W42293   2.221  14.636   3.316  0.1431  0.2229 -0.1565
26485W        W42294  13.795   9.963   4.854  0.0312  0.2539 -0.0176
26486W        W42295   6.840   6.027  12.289 -0.2149 -0.2981  0.2514
26487W        W42296   3.716   7.005   5.391 -0.4508 -0.0445 -0.0259
26488W        W42297   2.189  14.682  10.847  0.5504 -0.0421  0.0298
26489W        W42298  10.739   4.674  13.828  0.1327  0.0973 -0.2303
26490W        W42299   3.581   2.199   1.921 -0.0702 -0.1140  0.0989
26491W        W42300  17.352  14.133  10.069  0.3516 -0.0305  0.0694
26492W        W42301  14.394  13.671  13.694 -0.1259  0.1452  0.1562
26493W        W42302  10.206  10.169   4.117 -0.0079 -0.1072  0.3410
26494W        W42303   0.592   8.587  12.713  0.4306 -0.0940  0.1146
26495W        W42304   2.882  16.005  13.445 -0.1730  0.1191 -0.2983
26496W        W42305   1.672   7.028  11.267 -0.0110 -0.3047 -0.1909
26497W        W42306  10.618  17.559   1.372  0.1011  0.0116 -0.0739
26498W        W42307   0.969   8.233   0.995  0.0938  0.0489  0.0563
26499W        W42308  18.302  17.322   0.756  0.2637  0.3599 -0.1371
26500W        W42309   0.459  16.222   1.510 -0.1129  0.3135 -0.1352
26501W        W42310  17.255  18.043  12.116  0.1995  0.1131  0.0986
26502W        W42311  13.149  17.992   1.874 -0.0292 -0.4928  0.0702
26503W        W42312   7.036   5.202   1.832 -0.0628  0.2208  0.0974
26504W        W42313   7.378   6.052  13.544 -0.1982 -0.0168  0.0620
26505W        W42314  13.843  15.247  12.702 -0.2643  0.0522  0.2709
26506W        W42315   5.835   3.481  11.354 -0.1401 -0.0930 -0.0870
26507W        W42316  13.802  17.812   1.035 -0.2886  0.0203 -0.0684
26508W        W42317   1.168  15.271  13.999 -0.1756  0.3272 -0.2175
26509W        W42318   6.121   9.838   2.728 -0.0579  0.1610 -0.0743
26510W        W42319   6.204   2.856  13.432 -0.2682  0.1172 -0.1360
26511W        W42320   7.602  12.949  12.064 -0.0760  0.1300  0.2435
26512W        W42321   9.579  12.075  13.245  0.0421  0.0857  0.0812
26513W        W42322   3.987   4.865  14.776  0.0636  0.3303 -0.0510
26514W        W42323   4.329   2.519   0.409 -0.1711 -0.1443 -0.0087
26515W        W42324  17.973   9.342  12.602 -0.0154  0.0147  0.0778
26516W        W42325   0.838   3.075   2.956 -0.0848 -0.1025  0.0137
26517W        W42326   6.319   8.616   3.235 -0.1640  0.5315  0.0776
26518W        W42327  16.503   9.174   2.244 -0.0979 -0.0828 -0.3229
26519W        W42328  15.438  15.473  14.887  0.0707  0.1930 -0.1151
26520W        W42329   2.107   2.609   1.755  0.0558 -0.0522 -0.0492
26521W        W42330   2.089  15.947   2.435  0.0109  0.2779  0.1359
26522W        W42331   5.177   7.107  10.994  0.0278 -0.1321 -0.0084
26523W        W42332  16.068   8.477   4.160  0.1919  0.0211 -0.2697
26524W        W42333   2.050   9.648   1.396 -0.0160  0.0647 -0.2482
26525W        W42334   4.932   5.681  14.968 -0.0497  0.1341 -0.2305
26526W        W42335  10.582  13.983   4.597 -0.1374 -0.1389  0.3123
26527W        W42336  13.321   2.459   2.758 -0.4032  0.1260  0.1439
26528W        W42337   7.545   6.519   1.976  0.0499 -0.0945 -0.0339
26529W        W42338   3.312   9.978   2.440 -0.2900 -0.0454  0.3425
26530W        W42339  12.893   2.565  13.373 -0.1555  0.1721 -0.0055
26531W        W42340   5.225   1.555   2.049  0.1639  0.0238 -0.0443
26532W        W42341   6.948  16.129  12.379 -0.3602  0.0704  0.0821
26533W        W42342   9.782  13.354  13.538  0.1682  0.0612 -0.0583
26534W        W42343   3.220   5.133   0.360  0.0618  0.1079  0.2302
26535W        W42344  11.020   2.459   2.870 -0.0394  0.1944  0.1081
26536W        W42345  10.665   3.139   5.103  0.0260  0.0507  0.2500
26537W        W42346  14.429  17.325   5.615  0.2357  0.1548  0.0163
26538W        W42347   8.040   5.130  15.758  0.2586 -0.0012  0.0416
26539W        W42348   6.068   3.484  11.793  0.1096  0.1691  0.1863
26540W        W42349   8.324   9.374  14.159 -0.0813  0.0026  0.1949
26541W        W42350  13.470   7.853  15.412 -0.1723  0.0131 -0.0972
26542W        W42351   7.459   7.107   0.197  0.0583  0.0678  0.1335
26543W        W42352  12.658   9.056  15.445 -0.0549 -0.2875  0.0051
26544W        W42353   3.086  12.143  14.263  0.1100  0.0638  0.0835
26545W        W42354  14.171  14.387  11.154  0.2834  0.2430  0.2221
26546W        W42355  12.685  16.178   1.727 -0.1887  0.2888 -0.2263
26547W        W42356   9.988   8.834   4.895 -0.2178 -0.1529  0.0904
26548W        W42357   0.062  17.154  14.029 -0.0722 -0.0186  0.0144
26549W        W42358   5.040  11.821  15.097  0.1156  0.0573 -0.0026
26550W        W42359   8.333   3.879   4.365 -0.2392 -0.2787 -0.0725
26551W        W42360  15.653   3.026   2.048  0.1830 -0.0208  0.0571
26552W        W42361   8.601  13.732  12.890  0.0899 -0.3002 -0.0016
26553W        W42362  17.081   2.228   4.971 -0.1694  0.1617  0.0707
26554W        W42363   5.477  18.004  12.610  0.2004  0.1157  0.0445
26555W        W42364  15.018  13.621  12.570 -0.1944  0.0835  0.0597
26556W        W42365   5.872   6.186  14.652 -0.0296  0.0722 -0.0580
26557W        W42366   6.940   0.765   2.109  0.1459  0.1598  0.2192
26558W        W42367  12.329   1.547   1.309  0.1425  0.0329  0.3063
26559W        W42368  15.607  12.913   5.828 -0.1609  0.1433  0.0221
26560W        W42369   0.770   2.618  13.929 -0.0873  0.5057  0.0753
26561W        W42370  13.040   3.446  12.921  0.0358 -0.0621  0.0251
26562W        W42371   6.784   6.630  12.186  0.0653  0.3886 -0.2875
26563W        W42372   1.973  11.162   2.618  0.0487 -0.0332  0.1675
26564W        W42373  17.200   5.398  12.142  0.0581  0.1402  0.2161
26565W        W42374  13.344   6.126   2.552 -0.1335  0.0154 -0.0677
26566W        W42375  11.458   0.385  12.936  0.2168 -0.1052  0.2388
26567W        W42376  17.459   3.067  14.741  0.1282  0.0609 -0.1413
26568W        W42377  12.393  12.582   3.532  0.0866  0.2495  0.0234
26569W        W42378   7.368   0.326   2.643  0.5230 -0.0662  0.0065
26570W        W42379  15.226  16.074  12.687 -0.0799  0.3215  0.0912
26571W        W42380  16.011   9.836  12.196  0.0408 -0.0980 -0.3086
26572W        W42381   4.855   6.544  14.841  0.3268 -0.2167  0.2784
26573W        W42382   5.445  12.899   3.125  0.1608 -0.0892  0.1008
26574W        W42383   5.839   5.762  14.341 -0.2417  0.1776  0.2485
26575W        W42384  16.195   0.741   2.560 -0.1610 -0.1518  0.1506
26576W        W42385  14.766  10.762  15.164  0.0321  0.0994 -0.2984
26577W        W42386  12.920  15.453  11.596 -0.1555  0.1549 -0.0585
26578W        W42387  17.949   2.313  12.722  0.2809  0.1964 -0.0699
26579W        W42388  11.963  14.806  10.941  0.1069  0.4865  0.0257
26580W        W42389   1.007   1.790  11.737 -0.1663 -0.1558 -0.0352
26581W        W42390   7.349  15.396   0.789 -0.1285 -0.1829 -0.1093
26582W        W42391  16.473   3.502   4.312 -0.0777  0.1613 -0.0593
26583W        W42392  11.635   1.972  12.592  0.0838 -0.0070  0.1046
26584W        W42393  10.274   5.303   5.477  0.2200 -0.1631  0.0144
26585W        W42394   3.865   4.900  13.215  0.0748  0.1316  0.0135
26586W        W42395   7.181   3.669   1.583  0.1425  0.0671  0.1701
26587W        W42396   6.708   0.452  15.691 -0.0641 -0.1357 -0.2484
26588W        W42397  15.743  14.575   0.977 -0.1558  0.1637  0.0525
26589W        W42398   7.932   5.045  11.070 -0.2393  0.0383  0.0914
26590W        W42399   6.834  12.706  14.195  0.0283  0.1075  0.0476
26591W        W42400  11.126   0.672   4.093  0.0454 -0.3388  0.1670
26592W        W42401   4.660   9.858   4.344  0.0862 -0.2904  0.0279
26593W        W42402   0.000  16.269   1.988  0.0881  0.1312  0.1288
26594W        W42403   8.806  14.141  12.150 -0.0863 -0.3942 -0.0374
26595W        W42404   1.852  10.698   5.524  0.1214  0.1294 -0.2616
26596W        W42405   0.527  14.589   2.046  0.2829 -0.0518  0.0986
26597W        W42406   1.881   5.537  12.598  0.1764 -0.2184  0.0425
26598W        W42407  16.178   7.282   1.001  0.2066  0.2674  0.0244
26599W        W42408   2.338   0.889  14.006  0.0262  0.1539 -0.0253
26600W        W42409  12.029   7.413  15.444 -0.1011 -0.1042 -0.1489
26601W        W42410   2.627   0.872   3.739  0.2863 -0.0808  0.3454
26602W        W42411   5.675   6.730  13.059  0.0477  0.1632 -0.3341
26603W        W42412  11.058   3.656   5.082  0.0425 -0.0465 -0.2287
26604W        W42413   3.168   0.374   0.730  0.1162  0.1198  0.0651
26605W        W42414   5.588  16.477  13.613  0.0614  0.2972 -0.2396
26606W        W42415   5.839  14.603  15.191 -0.0221  0.0704 -0.1357
26607W        W42416  13.411  11.039  15.017  0.0440  0.0238 -0.2649
26608W        W42417   9.231  11.693  13.044 -0.1203  0.2538 -0.1690
26609W        W42418  17.205   8.771   0.364 -0.0686 -0.0557  0.0210
26610W        W42419  15.199   3.049   1.778 -0.1363  0.2131  0.0051
26611W        W42420  16.626   4.805   3.800 -0.0095  0.0052  0.0795
26612W        W42421  17.382   8.183   1.131  0.1857  0.2471  0.0333
26613W        W42422   6.682   2.893   2.018  0.0689 -0.0319  0.0444
26614W        W42423  17.018   1.150   0.939  0.0213  0.0894  0.0591
26615W        W42424   5.797   1.987  15.245  0.2287 -0.2983 -0.1788
26616W        W42425  12.335   8.110   1.274 -0.3048  0.1888  0.4371
26617W        W42426  16.228  15.667  14.349 -0.0418 -0.1244 -0.2569
26618W        W42427   6.777   4.208  10.676  0.1218 -0.0226 -0.0393
26619W        W42428  18.223  10.246  15.521 -0.4447 -0.1916  0.1672
26620W        W42429   9.316   5.324   1.661 -0.0320 -0.0188  0.2509
26621W        W42430  10.108  16.986   2.528  0.0220 -0.1678  0.2237
26622W        W42431  14.152  15.287  14.029 -0.0121 -0.0475  0.3597
26623W        W42432  15.571   1.033   3.250 -0.2639  0.1286 -0.0960
26624W        W42433  13.074  11.120   1.268  0.0728  0.1749  0.0193
26625W        W42434   2.004   5.914   5.547 -0.1220 -0.0513 -0.2242
26626W        W42435  12.587   6.792  15.222  0.0869 -0.1099  0.0367
26627W        W42436   4.032   3.691   5.315 -0.0268 -0.2449 -0.2045
26628W        W42437  14.539   4.904  11.612 -0.3535 -0.0055  0.1204
26629W        W42438  17.103   5.218  11.209  0.0539  0.0891 -0.0546
26630W        W42439  13.867   1.644   2.953  0.0203 -0.1708  0.0516
26631W        W42440  17.184  10.680   5.682  0.0527 -0.0047  0.3301
26632W        W42441  17.481   2.500  12.651  0.2530 -0.0173  0.1040
26633W        W42442  17.754  17.943  12.040  0.0377  0.3093  0.3302
26634W        W42443  15.205  17.682   1.797 -0.1834  0.0510 -0.0975
26635W        W42444   1.609   9.780   3.354 -0.2431 -0.2479 -0.2992
26636W        W42445  16.785  16.753   4.816 -0.0522 -0.1161  0.2711
26637W        W42446  14.106  12.642   0.538 -0.0745  0.1544 -0.0497
26638W        W42447  15.790  13.925   3.609  0.1489  0.0114 -0.2103
26639W        W42448  10.018  11.926   5.408 -0.2965  0.0557 -0.0276
26640W        W42449   9.131  12.758   0.311  0.0594 -0.0422  0.1863
26641W        W42450   4.351   8.925  10.951 -0.1959  0.1299  0.3146
26642W        W42451   0.912   2.718  14.489  0.0387 -0.3665 -0.0330
26643W        W42452  10.725  16.853   2.960  0.0529  0.0348  0.0513
26644W        W42453  14.036   4.905  11.716  0.1472  0.0189  0.0246
26645W        W42454  14.162   5.895   4.799  0.1339 -0.0305 -0.0542
26646W        W42455  10.472   8.935  11.308  0.2973 -0.0066  0.1328
26647W        W42456  17.014   8.275   3.042  0.0465 -0.2201  0.0995
26648W        W42457   9.250  10.988  14.596 -0.2476 -0.0656 -0.0431
26649W        W42458  15.949   3.890  11.240 -0.0497 -0.0758  0.0287
26650W        W42459   0.574  12.354   4.835 -0.4279 -0.2273 -0.1243
26651W        W42460  10.800   2.516   0.418 -0.1377  0.0041  0.1680
26652W        W42461  10.948  10.903  13.767  0.3158 -0.0957 -0.2024
26653W        W42462  17.157   0.220  13.503  0.5933 -0.0691 -0.1271
26654W        W42463  12.437   9.526  15.592  0.0529  0.0786 -0.4273
26655W        W42464   5.714   1.191   1.986  0.1144  0.0836  0.0958
26656W        W42465   4.874  18.265  13.149 -0.2017  0.1751  0.1110
26657W        W42466   9.367   5.271   2.480  0.0047  0.2785 -0.1674
26658W        W42467  17.554   1.197  15.141 -0.2111  0.0399 -0.0460
26659W        W42468   6.966   3.901   4.885  0.0648  0.0354 -0.3179
26660W        W42469  11.754   4.925  11.139 -0.0643  0.1482  0.0943
26661W        W42470  13.187  16.902  11.152 -0.1501 -0.0211 -0.5366
26662W        W42471   5.925  13.883  14.574  0.1221 -0.1830  0.0089
26663W        W42472   6.021  11.254   0.514  0.0843  0.0780  0.1326
26664W        W42473   8.531   8.818  13.119 -0.1408  0.1041  0.1500
26665W        W42474   8.064   7.964  13.961 -0.1643 -0.4459 -0.1358
26666W        W42475  15.476   7.676   1.445 -0.3384  0.1457 -0.0878
26667W        W42476   7.810  15.006   3.417 -0.0489 -0.1567 -0.1926
26668W        W42477  13.123  10.652  15.250  0.0009  0.0159  0.1286
26669W        W42478  15.139  15.008   2.826 -0.1740 -0.2359 -0.0763
26670W        W42479   0.766  10.285   2.800  0.1589  0.2894  0.1312
26671W        W42480   6.338   6.124   5.824  0.1752 -0.1581  0.0661
26672W        W42481   6.347  13.797   4.003 -0.2676  0.1529 -0.2784
26673W        W42482   9.773   2.839  12.018  0.2151  0.1708 -0.0531
26674W        W42483   9.293   8.118  12.317  0.0854 -0.1243  0.0664
26675W        W42484  18.086   9.636   0.765  0.1340  0.0341 -0.0944
26676W        W42485  15.021   3.612   3.748 -0.0286  0.1455  0.0341
26677W        W42486  13.895   5.067  13.212 -0.1531  0.1717  0.2512
26678W        W42487  18.316  18.411   0.446  0.2863  0.1074  0.1728
26679W        W42488  17.492  17.646   3.815 -0.1377 -0.0558  0.2099
26680W        W42489   1.973   0.943   1.417 -0.2359 -0.0576 -0.1418
26681W        W42490  12.886  15.224  14.647  0.2401 -0.0764  0.4120
26682W        W42491   0.369   3.438   0.322  0.3006  0.1598 -0.1192
26683W        W42492  16.256   6.447  11.158 -0.2231 -0.0431 -0.2647
26684W        W42493   3.211  14.778  13.782 -0.1451  0.1488  0.1667
26685W        W42494   0.815  12.952   3.664 -0.2775  0.2559  0.0475
26686W        W42495   2.705  15.952   3.954 -0.2454  0.0045  0.1251
26687W        W42496  11.814  17.274   0.651 -0.0676 -0.1123 -0.4728
26688W        W42497  13.894   0.089   1.937  0.1296 -0.3245 -0.0189
26689W        W42498  16.104  11.024  15.184  0.0414 -0.0161 -0.2004
26690W        W42499   9.522  16.888   9.925 -0.0227  0.2653  0.0145
26691W        W42500   6.426  15.066   0.709  0.0336  0.1770 -0.4602
26692W        W42501   3.134  14.540  12.451 -0.0518  0.2576 -0.0956
26693W        W42502  15.001   3.548   2.642  0.4300  0.5572  0.3189
26694W        W42503  15.004   4.491  13.170  0.0078  0.0114 -0.0610
26695W        W42504  14.018   9.341   3.398 -0.0193 -0.1305 -0.2651
26696W        W42505   0.749  11.174   6.196  0.0489 -0.1084 -0.1022
26697W        W42506   9.443  15.805  14.798  0.0322  0.1934  0.3299
26698W        W42507   2.297  11.340  11.027 -0.1260 -0.2629  0.1935
26699W        W42508  18.009   1.486  13.880  0.3313  0.1492  0.0196
26700W        W42509   5.508  15.502   0.368  0.0677  0.1928 -0.0900
26701W        W42510   7.583   7.005  12.207  0.0910 -0.0308  0.0336
26702W        W42511  10.041  13.803   4.028  0.2346  0.1951 -0.2472
26703W        W42512  16.344   0.857   0.251 -0.1104 -0.2867 -0.0610
26704W        W42513   3.523   4.352   4.919 -0.1059  0.2087 -0.1927
26705W        W42514   2.987  11.861  14.678 -0.0982 -0.1841  0.3627
26706W        W42515   5.014   1.223  11.132  0.1186  0.1000  0.0236
26707W        W42516   0.066   1.687  11.592 -0.1993  0.2371 -0.0487
26708W        W42517  10.824   8.841   4.976 -0.0019 -0.0245 -0.1861
26709W        W42518   7.672  11.934   0.171 -0.1278 -0.0312 -0.1531
26710W        W42519   3.248  18.395  12.574 -0.0416 -0.0944  0.0044
26711W        W42520  16.935   4.704  10.584 -0.0383  0.0221  0.0549
26712W        W42521  11.708  10.993  10.809  0.1234  0.1296  0.2646
26713W        W42522  13.788   7.797   3.730  0.0657  0.2142 -0.1673
26714W        W42523   8.999   2.757  11.042 -0.1459  0.2469  0.0987
26715W        W42524  13.374  14.549   4.091  0.1474  0.1127  0.1295
26716W        W42525  11.767   7.938   3.536 -0.1530  0.2237  0.0408
26717W        W42526  12.294  17.305   2.968  0.0056  0.0755  0.2816
26718W        W42527   6.457   9.496   3.688 -0.0467 -0.1713 -0.0585
26719W        W42528  13.813   4.860  15.272 -0.0261  0.1738  0.0848
26720W        W42529  15.282   0.967   1.271  0.0591  0.0627  0.0452
26721W        W42530  16.627   5.708   3.180  0.0402 -0.0080 -0.0204
26722W        W42531   6.996  14.106  13.929 -0.0319  0.0303 -0.0567
26723W        W42532  12.664  14.873  14.984 -0.2628 -0.1885  0.3678
26724W        W42533   6.302   4.830   1.697  0.3102  0.0632  0.1645
26725W        W42534  10.278   4.528   9.945 -0.1139  0.0451  0.2182
26726W        W42535   9.763   2.027  13.736 -0.1171 -0.1844  0.0564
26727W        W42536   8.747   4.362   2.391  0.1878  0.0242 -0.2324
26728W        W42537   3.561   1.477  13.271 -0.0075 -0.1077  0.3947
26729W        W42538   8.670   8.134  15.184 -0.1111 -0.0887  0.0628
26730W        W42539   1.705  15.476  10.787  0.2719 -0.3036  0.1580
26731W        W42540  10.145   7.891  12.240  0.3999  0.1566  0.1226
26732W        W42541   8.300   6.274   2.930  0.0367  0.2997  0.1838
26733W        W42542  16.655   5.384   0.202 -0.0228  0.1084 -0.0398
26734W        W42543   1.047   7.063   4.746  0.1877 -0.0132  0.0799
26735W        W42544  11.077   7.257   5.384 -0.2600 -0.1106  0.1234
26736W        W42545  12.605   7.498  12.870 -0.4402 -0.0577 -0.0847
26737W        W42546   6.734  11.001   4.362 -0.1629 -0.1244 -0.3093
26738W        W42547  18.011  11.388  14.611 -0.2234  0.3160  0.1561
26739W        W42548   5.401  16.320   3.903 -0.3018  0.1087 -0.3238
26740W        W42549   1.773  13.249  14.650  0.1754 -0.0681  0.0937
26741W        W42550   2.246  11.598   0.700 -0.1907  0.0411 -0.1790
26742W        W42551   3.172   5.958  11.265  0.2632 -0.2891 -0.3355
26743W        W42552  11.755  17.501  13.658  0.0117  0.1471  0.1235
26744W        W42553  17.262   6.481  14.131  0.2324 -0.2153  0.1780
26745W        W42554   7.859   6.953   4.057  0.1412  0.1016  0.0140
26746W        W42555   7.836  17.509   1.652  0.1052 -0.0297  0.0104
26747W        W42556   0.795  14.548  13.544 -0.0808  0.1829  0.0692
26748W        W42557  17.980  16.318   2.313 -0.1647 -0.1649  0.1097
26749W        W42558   8.394  13.507  13.936 -0.2168 -0.2461  0.0480
26750W        W42559   3.143   0.332  14.120 -0.1290  0.0307 -0.0368
26751W        W42560   4.485   1.873   1.553 -0.0445 -0.0396 -0.0958
26752W        W42561   1.407  14.085  11.477 -0.1436 -0.2644 -0.0278
26753W        W42562   6.505   5.195  10.658  0.0697  0.0174 -0.1099
26754W        W42563   0.114  16.039  12.783  0.1231 -0.2136 -0.1287
26755W        W42564  17.894  18.445  14.826  0.4379 -0.0115 -0.0516
26756W        W42565   1.957  17.116   4.893 -0.1420  0.2318  0.0908
26757W        W42566  11.901  16.307   5.373 -0.1370 -0.2249 -0.2683
26758W        W42567  12.239   9.602  13.837  0.1594 -0.1003 -0.0905
26759W        W42568   3.818   6.635   1.082  0.0626  0.2203 -0.2819
26760W        W42569  12.834  13.147   2.125  0.1307  0.0346  0.0081
26761W        W42570  11.255  16.996   1.104  0.0374  0.1999 -0.0912
26762W        W42571  17.829  12.441   4.001  0.0219  0.0129  0.1206
26763W        W42572  15.383   5.335   4.324  0.0539  0.1410  0.1194
26764W        W42573   8.076  13.436   1.608 -0.1412  0.3185  0.2404
26765W        W42574   0.739  17.033  11.733  0.1604  0.1454  0.1267
26766W        W42575  17.383   7.779   0.857 -0.2333 -0.2273  0.1097
26767W        W42576  17.154  14.696  12.581  0.0305 -0.1782 -0.1471
26768W        W42577   1.849   6.862  14.583 -0.0920  0.3128  0.0285
26769W        W42578   6.933   9.544   3.576  0.1601 -0.0495  0.2581
26770W        W42579   1.254   2.301  13.519  0.3082 -0.2721 -0.0216
26771W        W42580   8.357   4.527  14.393  0.2253 -0.0483 -0.0349
26772W        W42581  14.659   3.100  13.614 -0.3032 -0.0140 -0.1759
26773W        W42582  17.680  13.410   9.623 -0.1819  0.1723  0.0528
26774W        W42583  10.875  13.795  15.545 -0.0895  0.1141 -0.3488
26775W        W42584   8.649  12.274   5.116  0.0099  0.1482 -0.2644
26776W        W42585  11.255   4.078   2.336  0.0969  0.0330  0.1617
26777W        W42586  11.478  10.489   0.682  0.0601 -0.1672  0.0508
26778W        W42587  18.040  15.135   3.146  0.1960  0.0024 -0.1931
26779W        W42588   7.176  18.210  11.834 -0.4046  0.2042  0.0111
26780W        W42589  10.189   1.620  11.296  0.0515 -0.0489 -0.0592
26781W        W42590  13.420  10.933  13.978 -0.0265 -0.0586 -0.1388
26782W        W42591   1.836  14.020   3.800  0.3315  0.0402 -0.3289
26783W        W42592   9.542  12.322   1.885  0.2877 -0.1218  0.0457
26784W        W42593  17.605   8.996   1.658  0.0450  0.1027  0.2051
26785W        W42594  15.557  16.477  15.362 -0.3608 -0.1196 -0.1708
26786W        W42595   3.388   6.805   0.972  0.2789  0.4214  0.1564
26787W        W42596  13.625  13.815   4.262  0.0572 -0.3635  0.1230
26788W        W42597   5.495   9.064   5.187  0.2248 -0.2550  0.2666
26789W        W42598   9.602   7.838   2.968  0.4367  0.3765  0.0655
26790W        W42599   6.192   6.537  14.779 -0.3414 -0.1351  0.0182
26791W        W42600   4.094   9.050   2.768  0.3377 -0.0465  0.3223
26792W        W42601   7.293  17.411   5.829 -0.3887 -0.0754 -0.1435
26793W        W42602   9.874   3.045   3.127  0.1734 -0.0565 -0.2304
26794W        W42603   7.880   0.742   3.860  0.1011 -0.1243 -0.1320
26795W        W42604   1.918   2.632  13.297  0.1333  0.0881 -0.3846
26796W        W42605   0.797   1.502   2.034 -0.0230 -0.0470  0.0719
26797W        W42606   1.945   5.886  13.156  0.1066 -0.0862 -0.1610
26798W        W42607  15.018  16.721   0.701 -0.1027  0.1048 -0.2701
26799W        W42608   3.189   7.074   4.526  0.2262 -0.0289  0.3298
26800W        W42609  17.464  10.303   0.838 -0.0498  0.1406  0.0887
26801W        W42610  13.539   4.016  12.994 -0.1273 -0.2280  0.3560
26802W        W42611   8.118  12.325   2.288  0.1819  0.1052 -0.0372
26803W        W42612  14.043  13.576   4.404  0.0745 -0.1028  0.0486
26804W        W42613   8.848  15.105   4.658  0.0415  0.1497  0.3479
26805W        W42614  11.216   0.673  13.397 -0.0950 -0.1745 -0.0655
26806W        W42615   0.434   9.700   4.629 -0.1330  0.1926 -0.0333
26807W        W42616   6.690  12.412   2.725 -0.3234 -0.0785 -0.3180
26808W        W42617   1.125   4.704  12.106  0.1112 -0.0277 -0.0148
26809W        W42618  14.444  10.095  13.622 -0.0454  0.4024 -0.3504
26810W        W42619   1.233  14.384  11.037  0.2861 -0.0904  0.0810
26811W        W42620   5.179   5.338   3.482  0.0405 -0.1233  0.1003
26812W        W42621  13.864  17.012   4.423 -0.0943  0.2687 -0.0134
26813W        W42622   9.129  15.023  12.602 -0.0272 -0.1634  0.1494
26814W        W42623  17.445   7.502   2.616  0.1265 -0.1174 -0.1267
26815W        W42624  12.106   1.433  11.318  0.2832  0.1224  0.2536
26816W        W42625   0.047   0.243  11.364  0.1305  0.1437  0.1425
26817W        W42626  11.748   4.605   4.386  0.0688  0.0281 -0.3376
26818W        W42627   6.906   8.575   2.451  0.1487  0.0690  0.0088
26819W        W42628   1.728   8.735   0.443 -0.3055 -0.2574 -0.2568
26820W        W42629  11.631  17.815   4.338 -0.3188  0.1785 -0.2833
26821W        W42630  12.459   9.834  11.336  0.0134 -0.0123 -0.0304
26822W        W42631  15.131  15.630   0.344  0.0314 -0.0956  0.0779
26823W        W42632  16.394   3.928   2.938  0.1151  0.3921 -0.1072
26824W        W42633  10.554   0.866   4.856  0.1062  0.1623  0.4854
26825W        W42634  17.348  13.692  11.720  0.0072 -0.0774 -0.0043
26826W        W42635   2.152   2.431  14.839 -0.0004 -0.0667  0.2337
26827W        W42636   5.695   6.981   3.396 -0.3894 -0.0887  0.0168
26828W        W42637  14.145  13.559   1.192  0.1618  0.1494 -0.1840
26829W        W42638  16.182  10.899   2.191  0.1535  0.1334  0.0862
26830W        W42639  11.329  17.686  14.307 -0.2509 -0.6821  0.0844
26831W        W42640   1.018  18.173  12.650 -0.3257  0.0765 -0.2124
26832W        W42641   6.950   8.224  10.899 -0.0584 -0.0879  0.1646
26833W        W42642  15.689  13.829  15.302  0.1763  0.2449  0.3186
26834W        W42643  13.373   0.258   0.744  0.2229  0.3027  0.0474
26835W        W42644  14.544   9.089   0.152  0.3078 -0.0166  0.1653
26836W        W42645  10.586  16.742   5.257 -0.0578  0.2233 -0.0317
26837W        W42646   6.409   2.357   5.550 -0.0278 -0.0663 -0.0910
26838W        W42647   0.655   0.777   1.632 -0.0293 -0.1363 -0.0658
26839W        W42648  17.043   4.344   4.282 -0.0549  0.0248  0.3591
26840W        W42649  11.217   8.746  14.240  0.1136  0.0236  0.2506
26841W        W42650  10.070   9.257   0.469 -0.2886  0.4507 -0.0782
26842W        W42651   0.850   5.236   4.047  0.0078  0.0134  0.0553
26843W        W42652   5.246   0.286  11.081 -0.0325 -0.1505 -0.2815
26844W        W42653  11.168   9.651  12.333  0.0615  0.1063  0.1180
26845W        W42654   0.652  14.383  13.048 -0.2046  0.1535 -0.1815
26846W        W42655  18.266  12.217   3.237  0.0732 -0.0953 -0.2577
26847W        W42656  11.925  11.495  14.463  0.0208 -0.0908 -0.0337
26848W        W42657  11.775   1.693  15.310 -0.0422  0.1884  0.1791
26849W        W42658  17.149  17.649  12.778 -0.0128  0.0883 -0.3238
26850W        W42659  11.623   1.107  12.049 -0.0036 -0.2374  0.1173
26851W        W42660   8.592  13.209   0.288  0.2589 -0.1364 -0.1730
26852W        W42661  10.375   5.548   1.597  0.3145  0.2433  0.0072
26853W        W42662  13.441   6.592  12.587 -0.0132  0.1534  0.1217
26854W        W42663  15.839   0.942  13.384  0.0219  0.1109  0.0517
26855W        W42664   8.654   6.896  14.363  0.0656 -0.2952  0.0881
26856W        W42665  10.711   4.917  12.046  0.1559  0.2701  0.0319
26857W        W42666  15.416  17.155  13.569 -0.3595 -0.0799  0.1173
26858W        W42667   1.474  13.337   9.738 -0.0593  0.1110  0.2406
26859W        W42668   1.903   6.596   4.245 -0.0627 -0.1230  0.3282
26860W        W42669  18.036  16.660  12.627  0.0393  0.1034 -0.1414
26861W        W42670   0.538  17.616   3.488 -0.2988  0.0098 -0.3726
26862W        W42671   1.935  15.734   4.227 -0.1401  0.0766 -0.1918
26863W        W42672  17.664   5.277  15.846 -0.2371  0.1656 -0.2556
26864W        W42673   4.013   8.443   5.116  0.0210 -0.1678  0.2101
26865W        W42674  17.572   8.694   5.547 -0.1306 -0.2070  0.1147
26866W        W42675   8.026   5.245  14.803 -0.1380 -0.0127  0.0273
26867W        W42676   1.301   9.503   4.836 -0.0496  0.2856  0.1069
26868W        W42677  17.245  13.307  14.521 -0.0397  0.0388  0.1324
26869W        W42678  15.940  11.493   0.823  0.1044 -0.0717 -0.0969
26870W        W42679  13.932   0.289   4.141 -0.0645 -0.0936 -0.1124
26871W        W42680   6.842   8.062   2.616 -0.2020 -0.2290 -0.2831
26872W        W42681   4.822   1.460  13.595  0.2013  0.1977 -0.1974
26873W        W42682  15.207   8.757  14.476  0.2266  0.1264 -0.0086
26874W        W42683   6.298  16.870  12.925  0.0114 -0.0057 -0.0378
26875W        W42684   9.721  16.672  12.536  0.1560 -0.1363  0.1140
26876W        W42685  14.674   0.641  13.921  0.1873  0.0884 -0.0107
26877W        W42686  17.428   2.051  10.241  0.1131 -0.0513 -0.0141
26878W        W42687  12.934   6.592   3.176 -0.0251  0.0058  0.0553
26879W        W42688   9.120   1.814   0.698  0.1655  0.1719 -0.3229
26880W        W42689   9.645  17.621  14.208  0.0241  0.0882 -0.2157
26881W        W42690  10.273  18.130   0.499 -0.2338  0.3119  0.0087
26882W        W42691   6.160   9.324  11.196  0.1028  0.0305  0.1759
26883W        W42692   7.976  11.221  11.792  0.2017 -0.2526 -0.0711
26884W        W42693  11.544  13.586  12.349  0.0266  0.0044 -0.2809
26885W        W42694   0.157  14.770   4.206  0.0491  0.1466  0.1981
26886W        W42695   1.182   0.965   4.098  0.0122 -0.1043 -0.3929
26887W        W42696   4.410  14.354   1.160  0.2367 -0.0523  0.2397
26888W        W42697  11.773   3.604   0.361 -0.2810 -0.0043 -0.0913
26889W        W42698   6.912  16.928  15.684 -0.0303  0.1101 -0.0680
26890W        W42699  14.742  16.655  11.642 -0.1776 -0.0657  0.0307
26891W        W42700   1.469   3.827   2.081  0.2245 -0.2375  0.1147
26892W        W42701   9.625   1.734   5.531  0.1760  0.2273 -0.0673
26893W        W42702  16.607  13.869  12.960 -0.1255  0.4029 -0.2034
26894W        W42703  15.320  13.093  12.153  0.3916 -0.0116 -0.2847
26895W        W42704  11.101  12.067   0.899  0.2382 -0.0266 -0.0589
26896W        W42705  10.482  10.445   0.999  0.1041  0.1055 -0.2253
26897W        W42706  12.708  16.974   4.185  0.1259 -0.0489 -0.3321
26898W        W42707  15.989  10.922  10.773 -0.0870 -0.2651 -0.0956
26899W        W42708   6.923   8.244  11.849 -0.3610 -0.0892  0.2422
26900W        W42709   4.161   3.440   2.307  0.1598  0.2112  0.0873
26901W        W42710   0.268  11.910  14.363 -0.3958  0.0930  0.1112
26902W        W42711   1.051  14.959   3.445  0.0855 -0.0647 -0.2117
26903W        W42712   0.869  18.321   3.262  0.1332  0.1727  0.1167
26904W        W42713   6.081   9.815   4.118  0.0624 -0.1399  0.0055
26905W        W42714   0.779   0.079  12.797 -0.1122 -0.0802 -0.0353
26906W        W42715  10.456  12.145  11.305 -0.1335 -0.0819  0.1002
26907W        W42716   6.767  11.310  10.400 -0.1580 -0.3055  0.1365
26908W        W42717   0.408  12.729   0.411 -0.1276  0.1653  0.0658
26909W        W42718   1.842   8.058  14.754  0.0180 -0.1245  0.0125
26910W        W42719  16.303   1.419  14.458 -0.2147  0.0559 -0.1168
26911W        W42720   2.555  10.995   4.944  0.0181  0.0219  0.0473
26912W        W42721   6.584  11.919   0.332 -0.0501  0.2519 -0.1089
26913W        W42722  16.440   1.788  11.266 -0.0791  0.2240 -0.1376
26914W        W42723  14.390   2.146   4.252  0.1724 -0.2100  0.1626
26915W        W42724  17.701  14.184  12.153 -0.1871  0.1400  0.0200
26916W        W42725   5.797   4.800   0.323 -0.0275  0.2890 -0.1907
26917W        W42726   4.633  11.131   2.019  0.0461 -0.1586  0.1996
26918W        W42727  11.968   4.029   0.288 -0.0257 -0.1390  0.3153
26919W        W42728   5.671  13.487   4.791 -0.1726  0.0710 -0.0033
26920W        W42729   5.256  11.662   2.032  0.1679  0.1770 -0.0047
26921W        W42730  13.960   9.017  14.526  0.0372  0.1628  0.0833
26922W        W42731  12.617   7.274   2.157 -0.3603 -0.0053  0.1227
26923W        W42732   2.579   8.281   4.003  0.2791 -0.2223 -0.0498
26924W        W42733  13.647  13.834  15.052  0.1837 -0.1965  0.0805
26925W        W42734   3.168   0.456   3.126  0.0168 -0.3461 -0.2497
26926W        W42735  10.029   3.374  14.141 -0.1719 -0.0951 -0.2275
26927W        W42736  10.673  10.867  14.263  0.2052  0.1867  0.1344
26928W        W42737  16.855   7.984  12.261 -0.0198 -0.0432  0.3655
26929W        W42738   6.806   3.809   2.505  0.0603  0.0600  0.3326
26930W        W42739  16.643  12.933  11.736  0.0033 -0.0666 -0.2866
26931W        W42740   3.969  16.807  13.326 -0.1822 -0.2187 -0.0037
26932W        W42741   8.919  16.049  15.172 -0.0745  0.3747 -0.1181
26933W        W42742   0.945  10.935   3.370  0.0381 -0.0893  0.0412
26934W        W42743  11.969   0.911   0.669 -0.1229 -0.1686 -0.0506
26935W        W42744  15.339   7.077  13.377 -0.0034 -0.1018  0.1987
26936W        W42745  16.721   1.154   0.516 -0.0256 -0.0500  0.0080
26937W        W42746   7.288  15.111  11.903 -0.0644  0.3019  0.1889
26938W        W42747  13.788   6.124   1.485 -0.0380  0.2437  0.0255
26939W        W42748  10.451   0.273  12.244 -0.1664 -0.4247  0.0747
26940W        W42749   3.442   5.491  10.954  0.0342 -0.1990 -0.0441
26941W        W42750   6.745   7.661  13.699  0.0758 -0.0673  0.1197
26942W        W42751   0.462  17.294   1.822 -0.1170 -0.1433 -0.7272
26943W        W42752  17.788   8.980   1.165  0.1958 -0.0812 -0.0658
26944W        W42753   4.020  11.184  12.547 -0.2079 -0.0010  0.1567
26945W        W42754   9.618   7.173   5.291 -0.0776  0.0119  0.0512
26946W        W42755   6.396  12.926   0.881  0.1684 -0.0494 -0.1261
26947W        W42756  14.657   0.216   2.526 -0.1397 -0.0268  0.0396
26948W        W42757   4.472   3.873  12.354  0.0657 -0.0580 -0.1131
26949W        W42758  12.131  10.075  13.041  0.0497 -0.1991 -0.2274
26950W        W42759  15.615   6.599   4.171 -0.3330  0.3604  0.1659
26951W        W42760   3.694  13.306  11.440 -0.1923  0.0946 -0.1483
26952W        W42761   6.203   2.311   1.376 -0.2307 -0.0571 -0.1619
26953W        W42762   3.769   3.337   0.493 -0.1886  0.0191 -0.3027
26954W        W42763   0.868   8.753   0.787  0.0567  0.2387 -0.0394
26955W        W42764   8.249   3.274   3.053 -0.1392  0.0739 -0.0448
26956W        W42765  14.886   6.317   2.979  0.3957  0.0246  0.1436
26957W        W42766  17.645  15.022   4.550 -0.3577 -0.2270  0.0910
26958W        W42767  11.993   7.998  15.346  0.1365  0.0850 -0.0127
26959W        W42768  14.988   0.119   4.710 -0.1751 -0.1729 -0.0964
26960W        W42769   1.299  13.268   6.014 -0.2892 -0.0438  0.0307
26961W        W42770   3.199   0.873  13.899  0.0478  0.0890 -0.0526
26962W        W42771  17.330  12.728  13.364 -0.1999 -0.0453 -0.0953
26963W        W42772  12.600   3.923   5.275  0.1561  0.0607 -0.0413
26964W        W42773   0.105   2.512   4.739  0.0518  0.2544  0.0740
26965W        W42774   0.717   7.048   0.553  0.0828  0.0309  0.3567
26966W        W42775   4.944  13.924  14.393  0.0119  0.1051  0.0151
26967W        W42776   9.308   8.746  10.951  0.4027  0.0247  0.2586
26968W        W42777   5.137   2.802  12.807 -0.1332  0.1862  0.2747
26969W        W42778  15.946  15.766  12.288 -0.3500  0.2119 -0.4178
26970W        W42779  17.153  12.656   0.444 -0.3129  0.0831 -0.2767
26971W        W42780   6.404   7.552   2.723  0.0309  0.0340  0.0985
26972W        W42781   7.207  17.175  13.843  0.1374 -0.1484 -0.1609
26973W        W42782   5.776   6.992   2.549  0.1152 -0.0508 -0.1332
26974W        W42783  16.522   4.025  11.136  0.0534  0.1313 -0.0078
26975W        W42784  14.671   1.452  12.905 -0.0291 -0.2175 -0.2188
26976W        W42785  14.834   0.786   0.454 -0.0116 -0.0881 -0.0314
26977W        W42786   1.239  17.592  14.208  0.1644 -0.2830  0.2025
26978W        W42787  17.918  17.547  12.324 -0.3703 -0.2649  0.2487
26979W        W42788   2.557   0.786   0.237 -0.1815 -0.0561 -0.1719
26980W        W42789  12.969   6.983   2.386 -0.4016  0.2143  0.0648
26981W        W42790  11.919  14.586   1.457  0.0402  0.2327  0.4682
26982W        W42791   3.874   0.086  11.379  0.0747 -0.2961 -0.3129
26983W        W42792   2.747  12.990   0.029  0.3277  0.1949 -0.0721
26984W        W42793   2.306   9.487   0.658  0.1281 -0.0136 -0.0965
26985W        W42794  12.173   5.906   3.738  0.0189 -0.0051  0.2422
26986W        W42795   8.282   0.159   2.781  0.0420  0.1302 -0.1578
26987W        W42796  14.318   5.936  10.715  0.1870  0.0287  0.1991
26988W        W42797   5.026  10.397   1.413 -0.0193 -0.4526  0.1192
26989W        W42798  16.008   4.814  14.661 -0.1744 -0.0374 -0.0007
26990W        W42799   0.469  12.729  13.035 -0.0041 -0.0472  0.0689
26991W        W42800  13.221   8.414  14.844 -0.1176 -0.2124  0.1971
26992W        W42801  13.962   9.713  11.363 -0.1610  0.2786 -0.0506
26993W        W42802   8.792   8.407   0.800 -0.2027  0.2005 -0.1745
26994W        W42803   6.865  17.836   3.399 -0.0345  0.0380  0.1667
26995W        W42804  11.067   3.273  15.207  0.2568  0.1005  0.2151
26996W        W42805   9.980   7.813  15.347 -0.0242 -0.2403  0.2060
26997W        W42806   2.752   3.937   4.434 -0.0812  0.0004  0.1663
26998W        W42807  18.386  15.122   3.859 -0.1448  0.0283  0.1403
26999W        W42808   0.382   2.873   2.875 -0.0584 -0.0041  0.2711
27000W        W42809  12.925  16.429  11.280  0.1641 -0.0768  0.0372
27001W        W42810   4.695   2.099  14.491 -0.4402  0.1478 -0.2032
27002W        W42811   6.797   7.416  10.105 -0.3387  0.1422 -0.0015
27003W        W42812   5.468   3.802  15.746  0.0927 -0.0206 -0.3790
27004W        W42813  18.107   0.271   3.157  0.3118  0.0199  0.0901
27005W        W42814  13.078   5.087  11.081 -0.0744  0.1691  0.1872
27006W        W42815  14.639   1.291   1.661  0.1053 -0.3727 -0.2910
27007W        W42816   0.433   1.988  10.803 -0.2457 -0.1960  0.0368
27008W        W42817   8.552  16.273   3.629 -0.0720 -0.2144 -0.0185
27009W        W42818  13.565  14.120   5.307 -0.0132  0.4621 -0.0676
27010W        W42819  14.811   3.717   4.309  0.2220 -0.0718  0.0377
27011W        W42820  11.418   5.831  12.086  0.2192 -0.2118 -0.0492
27012W        W42821   0.654   9.526  13.915  0.1525  0.0171  0.2368
27013W        W42822   0.139  16.821   3.080  0.0748 -0.1185  0.1147
27014W        W42823   4.801   7.946   9.891  0.0960  0.1074 -0.3949
27015W        W42824  18.054  11.661  15.091  0.0212 -0.1050 -0.1526
27016W        W42825  13.177   9.420   1.096  0.0156  0.0737 -0.1065
27017W        W42826   9.094   5.631  12.851 -0.0280  0.1557  0.1595
27018W        W42827  10.954   0.864  11.275 -0.2850 -0.2018 -0.0615
27019W        W42828   7.951  17.014   0.067  0.0439 -0.1261  0.1565
27020W        W42829  12.557  17.140  11.099 -0.0010 -0.0302 -0.0262
27021W        W42830   0.668  13.271  10.673 -0.0415 -0.0640  0.0289
27022W        W42831   8.235   8.845   3.431 -0.0760 -0.1586  0.0780
27023W        W42832   0.540   3.507  12.511 -0.1679 -0.1106  0.0016
27024W        W42833   2.989  17.105  11.542 -0.3444 -0.0945  0.1879
27025W        W42834   9.640   7.698   5.936  0.1106  0.0073 -0.1772
27026W        W42835  14.002   7.130   0.367  0.2142  0.0039 -0.0274
27027W        W42836  15.793  12.664   5.422  0.1978  0.1124 -0.2002
27028W        W42837   7.820   5.939  13.754 -0.3340 -0.2114  0.0099
27029W        W42838  10.631  10.544   3.238  0.0055  0.0516  0.0598
27030W        W42839  17.705   0.323   0.507  0.0416  0.1223  0.0255
27031W        W42840   3.685   8.313   0.685  0.1201 -0.1234  0.0886
27032W        W42841   5.094   1.278   2.977 -0.3648 -0.0470  0.1852
27033W        W42842  14.580   0.250  12.955 -0.1053  0.0258  0.0556
27034W        W42843   1.441  17.884   0.547 -0.2594  0.0044 -0.0298
27035W        W42844  10.407   3.753  14.243 -0.3483  0.1179  0.4602
27036W        W42845   2.935   7.572   1.253  0.0840  0.4079  0.0424
27037W        W42846   1.748   8.051  11.395 -0.0213 -0.0381 -0.0669
27038W        W42847   6.435  15.035   4.409  0.0716  0.0516  0.0478
27039W        W42848  10.041   3.983  13.430 -0.1084  0.1802  0.0690
27040W        W42849   9.469   3.402   0.222  0.0055  0.1262 -0.2501
27041W        W42850   2.983   7.594   2.049 -0.2176 -0.0639 -0.2139
27042W        W42851  14.320   9.209  13.673  0.1284 -0.0000 -0.1272
27043W        W42852   3.883  12.727   0.116 -0.0717  0.1200  0.0931
27044W        W42853  13.346   2.780  11.035  0.1759 -0.0710  0.1646
27045W        W42854  16.981   3.366   0.902  0.1078 -0.0022  0.0376
27046W        W42855   8.874   6.750  15.189 -0.0822 -0.0215 -0.1506
27047W        W42856   9.767  11.067  14.947 -0.0561  0.0662  0.3529
27048W        W42857   5.177   4.844   0.287 -0.0647  0.2577 -0.1400
27049W        W42858   1.689   0.578  15.028  0.1450  0.0703 -0.0606
27050W        W42859   0.398   1.808   2.942 -0.0071 -0.5211 -0.1522
27051W        W42860  13.051   9.284  13.313  0.1346 -0.0543 -0.0327
27052W        W42861  16.482   5.041  11.759 -0.1181  0.0677  0.0106
27053W        W42862   8.064  12.448   2.891  0.0438 -0.0275  0.1309
27054W        W42863   0.441  12.263  13.929  0.0116  0.1172  0.0593
27055W        W42864   5.161   9.010   1.954 -0.1240 -0.1432  0.0146
27056W        W42865   7.758  15.667  12.561  0.0390 -0.1403 -0.0210
27057W        W42866  17.203   8.811  14.190  0.2255 -0.0404  0.0866
27058W        W42867   4.142  14.531  14.488 -0.1140 -0.0782 -0.2173
27059W        W42868   9.804  14.691  13.729 -0.0483  0.1469  0.0187
27060W        W42869   2.663   7.007  11.254 -0.0651  0.0368  0.1330
27061W        W42870   3.433  15.985   3.448 -0.0194 -0.2090  0.4879
27062W        W42871   9.094  11.908   1.807 -0.1706 -0.0136 -0.1736
27063W        W42872  16.199  15.137   4.891  0.0443 -0.0881 -0.4296
27064W        W42873  11.592  10.313   2.520  0.1205 -0.2491 -0.0979
27065W        W42874  12.536   3.950   0.312 -0.2546 -0.1107  0.0740
27066W        W42875  10.955   5.026   4.130  0.1481 -0.0532 -0.1311
27067W        W42876   2.330  14.101   1.226 -0.0357 -0.2032  0.2410
27068W        W42877  10.985   8.725  12.772 -0.0706  0.0576  0.0146
27069W        W42878  15.918  12.965  14.385 -0.2271 -0.2740  0.1736
27070W        W42879   6.221  10.569   5.030  0.1037 -0.2146 -0.0048
27071W        W42880  13.384  14.928   2.386  0.1193 -0.1039  0.0264
27072W        W42881   9.139   2.714   5.606 -0.3329 -0.0037  0.1284
27073W        W42882  14.933   7.461   5.279 -0.0819 -0.4305  0.0691
27074W        W42883   5.981   2.570  11.511 -0.3529 -0.1770 -0.0657
27075W        W42884  14.390   7.400   0.129 -0.0594 -0.0257 -0.0111
27076W        W42885   3.339  15.775   0.365  0.2070 -0.0940 -0.3994
27077W        W42886  16.249  12.207  12.000  0.4768  0.1682  0.0099
27078W        W42887   0.197  10.074  15.089  0.0650 -0.2076 -0.2919
27079W        W42888   5.291   2.026   3.144  0.1295 -0.1138  0.1270
27080W        W42889   5.843  15.571   3.341 -0.2970  0.1147 -0.0114
27081W        W42890  12.504  17.424   0.694  0.1702 -0.1982 -0.1894
27082W        W42891   9.780  18.358  10.846  0.1472 -0.1644  0.1456
27083W        W42892   7.086   8.641   4.299  0.1056  0.1715  0.0854
27084W        W42893   5.829  14.203  11.567 -0.0702 -0.3738  0.0670
27085W        W42894   9.334   8.579  13.630 -0.1245 -0.2285 -0.2079
27086W        W42895  14.577  14.956   3.571 -0.0608 -0.2487 -0.2750
27087W        W42896  15.155   5.264   2.111  0.2408 -0.0625  0.2740
27088W        W42897   0.203  14.289   3.351 -0.1525 -0.1283 -0.2057
27089W        W42898  12.008   5.756   2.728  0.1350 -0.2211  0.3693
27090W        W42899  14.458   7.421   1.083 -0.0477 -0.3740  0.0468
27091W        W42900  11.283  12.666   0.927  0.3684  0.1966  0.1073
27092W        W42901  11.447   3.996   2.970  0.0879 -0.0841 -0.1574
27093W        W42902   4.690   9.150   5.548  0.1325  0.0278  0.2669
27094W        W42903   3.597  11.663  13.914  0.5280 -0.2312 -0.0922
27095W        W42904   9.979   1.030  10.443  0.2834 -0.0513  0.0692
27096W        W42905  18.037   7.433  11.413  0.2472  0.2012 -0.0441
27097W        W42906  12.322   8.876   4.398  0.0776 -0.3187 -0.0677
27098W        W42907   6.347  11.533   5.622 -0.2370 -0.2364  0.1936
27099W        W42908   8.879  10.576   4.798 -0.3334 -0.2744  0.0070
27100W        W42909  17.275   4.062   3.404  0.2682 -0.4609  0.0438
27101W        W42910   2.444  12.020   4.553  0.4345 -0.1145  0.0624
27102W        W42911   2.753   4.684  13.482  0.0383 -0.3884 -0.2916
27103W        W42912   9.807  11.758   4.978  0.1758  0.1311  0.0102
27104W        W42913   6.526  16.346   3.115  0.3661  0.0073 -0.0098
27105W        W42914  10.916  17.340  13.118 -0.1084  0.0624 -0.1981
27106W        W42915   4.346  11.991  11.561  0.0723  0.1392 -0.1810
27107W        W42916  12.791   3.372  12.443  0.3005 -0.1087  0.1893
27108W        W42917   2.079   7.846  12.805 -0.0797 -0.3053  0.2524
27109W        W42918   6.095  18.257   3.594 -0.1384 -0.1716 -0.1227
27110W        W42919   1.434   6.916   3.394  0.4497 -0.4713  0.0750
27111W        W42920   4.755  14.456   3.780 -0.0264 -0.0395  0.0283
27112W        W42921  13.117  17.513  13.337 -0.1064 -0.3659 -0.0611
27113W        W42922   8.152   4.074   3.212 -0.1000  0.0121  0.1531
27114W        W42923   0.495  10.040   5.712  0.0202 -0.0012  0.3744
27115W        W42924  11.287  16.792  11.216 -0.0689  0.1220 -0.0386
27116W        W42925   1.702   9.579  12.614  0.2034  0.0053  0.0873
27117W        W42926  11.013   1.011  13.917 -0.0808 -0.0074 -0.0167
27118W        W42927   5.825   3.884  13.576 -0.0116 -0.1024  0.0109
27119W        W42928   9.550   2.461   3.051  0.0543  0.1543  0.1621
27120W        W42929   0.490   2.175  13.880 -0.2180 -0.1359 -0.1152
27121W        W42930   2.360  15.123  11.252  0.1397 -0.0814  0.0584
27122W        W42931  16.688  10.332   4.361  0.1217  0.0011  0.0016
27123W        W42932   0.543   4.172  15.353 -0.1590  0.2331  0.5491
27124W        W42933   6.024  12.969  11.720  0.0087  0.0756 -0.3137
27125W        W42934   6.931  17.740   2.155  0.0031  0.0249  0.0593
27126W        W42935   2.916   4.768  13.022 -0.0166 -0.0861  0.1722
27127W        W42936   3.053  18.352   0.817 -0.0658 -0.1278  0.3036
27128W        W42937  17.551   1.334  13.748 -0.1046  0.2214  0.1114
27129W        W42938  12.644   8.427   4.400  0.1449  0.0057 -0.3324
27130W        W42939  11.589  17.478  13.135  0.3001  0.0850  0.2663
27131W        W42940   4.212  12.908  12.017  0.3569  0.1323 -0.0917
27132W        W42941  13.244   3.365  13.644 -0.1981 -0.3333 -0.2938
27133W        W42942   9.087  16.761   4.686 -0.0965 -0.0356  0.0547
27134W        W42943  11.319  13.129   1.080 -0.0643  0.1499  0.0290
27135W        W42944  11.479  12.898   2.249  0.0836 -0.2487 -0.3163
27136W        W42945   7.883   7.231  12.523  0.0545 -0.1032  0.0015
27137W        W42946  11.319  15.306  11.607  0.0203  0.1942  0.0262
27138W        W42947   9.261  16.502  12.601 -0.0726  0.0662 -0.4841
27139W        W42948   9.304  13.317  12.222  0.2238  0.1236 -0.1243
27140W        W42949   2.613  10.419  13.210  0.0037  0.4009 -0.1224
27141W        W42950  14.153   4.842  14.141 -0.0034  0.2132 -0.2449
27142W        W42951   0.420   6.846  10.838 -0.1397  0.0125 -0.2438
27143W        W42952   9.809   8.996   0.842 -0.3565 -0.2340 -0.0404
27144W        W42953   2.958   7.877  15.396 -0.0712  0.0058 -0.1354
27145W        W42954  17.778   7.760   2.337  0.4178  0.2020 -0.0297
27146W        W42955   7.680   6.403   5.810 -0.0891 -0.1940  0.0237
27147W        W42956  12.960   7.017   1.876 -0.0567 -0.1646  0.0156
27148W        W42957  17.198   9.130  13.798 -0.0710 -0.1043 -0.1973
27149W        W42958   8.753   7.067   2.525 -0.2046  0.1936  0.0445
27150W        W42959  17.206  13.380  12.071  0.2459 -0.0570 -0.0456
27151W        W42960   3.664   0.330   0.940 -0.0583 -0.0695 -0.0098
27152W        W42961   5.429  16.333  13.096 -0.2341  0.2961 -0.2094
27153W        W42962  10.648   7.939  12.179 -0.0570  0.1930 -0.0707
27154W        W42963   3.247   3.535   0.486  0.0500  0.2791 -0.0516
27155W        W42964   9.563  12.378   0.190  0.0247  0.1199  0.2736
27156W        W42965  12.317  17.039  11.549  0.0540 -0.0860  0.0476
27157W        W42966   7.635  14.250  15.386 -0.1387 -0.0638  0.3052
27158W        W42967   8.705  17.477   0.845  0.0867 -0.0711  0.0456
27159W        W42968  11.157  12.289  15.360 -0.1517 -0.0865  0.0080
27160W        W42969   2.137   0.398   2.548 -0.0759  0.1673 -0.1452
27161W        W42970   8.261   3.865  15.742 -0.1105  0.1189 -0.0491
27162W        W42971  15.791   1.124  11.499  0.0141 -0.1211 -0.2195
27163W        W42972  10.145   6.597  13.610  0.1799  0.3892  0.0238
27164W        W42973  18.296   3.823   3.755 -0.0504 -0.3424 -0.4931
27165W        W42974  10.163  18.064  13.584 -0.1202  0.1773  0.1586
27166W        W42975   9.919   6.384   2.428  0.1715  0.0883  0.0920
27167W        W42976  10.734   4.889  11.351 -0.0132 -0.3807 -0.4033
27168W        W42977  12.052  13.477   0.501 -0.3233  0.0919  0.1812
27169W        W42978  13.131  14.935   5.142 -0.0230 -0.0256 -0.0225
27170W        W42979  18.444  17.358  13.114  0.0458 -0.3521  0.0895
27171W        W42980  15.383   6.099   4.140  0.1457  0.1257  0.2972
27172W        W42981  10.569   8.868   2.613 -0.0056  0.1292  0.3170
27173W        W42982   7.022   9.782   6.260 -0.2641  0.1340 -0.1489
27174W        W42983  10.593  12.943  11.507  0.1184 -0.0932 -0.1539
27175W        W42984   2.526   7.899  14.053 -0.0880  0.0465  0.0619
27176W        W42985   8.926   8.206   0.280  0.2793 -0.1010  0.2415
27177W        W42986  15.193  12.288  12.578 -0.3021  0.1485 -0.2443
27178W        W42987  17.619  14.731   2.398  0.3470  0.1540 -0.0353
27179W        W42988  12.637   2.868  14.440  0.0524 -0.0708  0.1013
27180W        W42989   1.079  14.726   5.832 -0.0809  0.2212  0.1516
27181W        W42990  11.403   9.493  10.903  0.1774 -0.0178  0.2076
27182W        W42991  12.280  16.460   4.574  0.2109 -0.2051 -0.0646
27183W        W42992  15.004   6.891   1.717  0.0567  0.1399 -0.2689
27184W        W42993  15.570  16.584  13.520  0.0981  0.2739 -0.1316
27185W        W42994   8.543   1.207  11.400 -0.1001 -0.2089  0.0463
27186W        W42995   8.274   5.831  10.799 -0.0985  0.0122  0.0943
27187W        W42996   7.727  17.796   5.837 -0.0800  0.1249 -0.3914
27188W        W42997   4.852  17.092   1.030  0.2209 -0.2333  0.1399
27189W        W42998   8.960  10.466  13.735  0.1464  0.1740  0.1581
27190W        W42999   7.135   1.061  10.939  0.0726 -0.0201  0.0204
27191W        W43000  17.347   3.644   4.192 -0.1837  0.1436  0.0131
27192W        W43001   5.880   8.949  11.441 -0.2927 -0.0822  0.0456
27193W        W43002   3.842   7.975   2.048  0.1561  0.2630 -0.0964
27194W        W43003   8.470  11.698  12.329  0.0783 -0.1999  0.0541
27195W        W43004   0.150  12.427  14.735 -0.2813  0.1714 -0.1838
27196W        W43005  14.929  11.338  13.088  0.0915  0.3320 -0.2949
27197W        W43006  11.955   7.146   4.115 -0.2037  0.1154 -0.1163
27198W        W43007   5.165  16.334  13.860  0.2200  0.0353 -0.0001
27199W        W43008   9.836  13.466  12.415 -0.4844 -0.3104 -0.1432
27200W        W43009  17.550   7.982   5.126  0.2327 -0.0242  0.4012
27201W        W43010  10.241   0.597   5.657  0.4392  0.1173 -0.2310
27202W        W43011   2.799   7.253   1.725  0.0560  0.1079  0.1805
27203W        W43012  17.089   2.758  14.596  0.1576 -0.5676 -0.0930
27204W        W43013  12.526  10.793   4.383 -0.1002  0.2552  0.0305
27205W        W43014   2.678  10.632  14.396 -0.0485 -0.1680 -0.0755
27206W        W43015   3.074   6.399  14.079  0.3982 -0.1212  0.2133
27207W        W43016   5.049   4.215   4.834 -0.0398  0.1464  0.0869
27208W        W43017  15.843  10.261  10.986 -0.0438 -0.5097  0.0261
27209W        W43018  10.606   3.038   1.271 -0.0478  0.0162 -0.2935
27210W        W43019   2.048  14.625  14.837  0.2578  0.0972  0.1025
27211W        W43020  10.653  15.496   4.610 -0.1354 -0.1342 -0.3014
27212W        W43021  12.216   5.510  15.803 -0.2010 -0.3145 -0.3987
27213W        W43022  17.815   3.857   4.574 -0.0250  0.4860 -0.1380
27214W        W43023  14.700   7.161   3.192 -0.2754 -0.0711 -0.2138
27215W        W43024  10.831   5.837  11.612  0.1382 -0.1518  0.0200
27216W        W43025  13.439  16.514  11.378  0.0519  0.1822  0.0769
27217W        W43026  12.142  17.551   0.440  0.0257 -0.3246  0.3469
27218W        W43027   1.739  11.745   1.184 -0.0689 -0.1362  0.1026
27219W        W43028   8.103   0.075  14.842  0.0269 -0.0427 -0.0344
27220W        W43029   1.356   8.670  10.657  0.0197 -0.2414  0.2975
27221W        W43030  10.530  17.583  10.580  0.1568 -0.1241 -0.0319
27222W        W43031  11.827   9.872   2.404 -0.2484 -0.1780  0.2250
27223W        W43032   4.143   4.761  10.646 -0.0335  0.2025 -0.3646
27224W        W43033   6.567   6.517   4.341 -0.2754  0.1237 -0.1447
27225W        W43034   0.804   0.201   2.444  0.0591  0.1303  0.2086
27226W        W43035  14.546  16.880   3.367  0.1668  0.1427  0.1864
27227W        W43036  11.025   4.359   1.340  0.1397 -0.0162 -0.0893
27228W        W43037  13.757  17.330   1.120  0.1595  0.0790 -0.3270
27229W        W43038   3.288  13.569   4.229  0.2902  0.1925  0.2415
27230W        W43039  12.175  16.221  11.921  0.2451  0.3972  0.0731
27231W        W43040   9.180   1.531  12.589  0.2299  0.0769  0.2547
27232W        W43041  15.071  11.144   5.278  0.0035  0.1101 -0.1518
27233W        W43042   3.403   7.568  11.782 -0.0675 -0.2488 -0.1787
27234W        W43043   0.664  17.215  14.637 -0.2162 -0.1221 -0.1326
27235W        W43044   9.098   9.707  14.267  0.1674 -0.1607 -0.0670
27236W        W43045   8.850   3.202  11.209  0.0128  0.0859  0.2090
27237W        W43046  14.505   5.174  13.003 -0.0671  0.1650 -0.1354
27238W        W43047  15.832   4.027   2.346  0.0563 -0.2751 -0.1197
27239W        W43048  10.231   0.385  14.332  0.3889 -0.2204 -0.3152
27240W        W43049  11.101  10.737  11.405 -0.0760 -0.0376 -0.0056
27241W        W43050   1.918   2.547  10.691  0.0236 -0.3926 -0.2221
27242W        W43051  10.023  12.282  15.018  0.0454  0.2928 -0.0873
27243W        W43052   0.365  11.790  13.810 -0.3278 -0.1251 -0.3443
27244W        W43053  15.934  16.964  13.674 -0.1089 -0.0904  0.3917
27245W        W43054  17.747   0.060   3.366  0.0682 -0.1285 -0.1163
27246W        W43055  10.729   6.616   0.170  0.1322 -0.0790  0.0702
27247W        W43056   6.983   2.058   2.437  0.1756 -0.3370 -0.0109
27248W        W43057   7.871   4.579   2.773 -0.2757 -0.1050  0.1471
27249W        W43058  16.768   0.484  13.386  0.1303 -0.4052 -0.1857
27250W        W43059  10.588  13.773  13.756 -0.1708  0.0157  0.0735
27251W        W43060  14.199   7.204   4.883  0.4823 -0.2759 -0.1204
27252W        W43061  11.674   8.045   4.666  0.0541 -0.0891  0.0443
27253W        W43062  10.791  11.545  14.475  0.0584 -0.0664  0.3091
27254W        W43063  14.923   3.994   1.116 -0.1467 -0.2319 -0.0374
27255W        W43064   9.157   4.965   4.627  0.5198 -0.2817  0.0592
27256W        W43065  18.248   2.479  12.205  0.1148  0.2060 -0.1722
27257W        W43066   6.105   5.661   1.569  0.0693  0.1122  0.1495
27258W        W43067  16.518   7.652   3.661  0.2322 -0.0445 -0.1576
27259W        W43068   1.354   2.521   1.611  0.0143  0.2026  0.0616
27260W        W43069   3.225   8.995  13.677  0.1386  0.0781  0.1828
27261W        W43070  14.325  12.591  10.861  0.1314 -0.0329  0.2455
27262W        W43071   3.297   3.017   3.241  0.0894 -0.0338 -0.2749
27263W        W43072   2.410   3.163  11.794 -0.6004  0.3227 -0.0906
27264W        W43073  14.758   9.305   3.244 -0.1781  0.1101  0.0620
27265W        W43074   8.796   2.470   1.343 -0.3883 -0.1156  0.0357
27266W        W43075  12.352  14.104   1.695 -0.2731 -0.3099  0.2563
27267W        W43076  11.915   6.533  15.624  0.2672 -0.3053 -0.2034
27268W        W43077  16.292  18.350  11.914  0.4277 -0.3032  0.0370
27269W        W43078   5.496  18.168  10.956 -0.1400 -0.0939 -0.0100
27270W        W43079  10.696  18.364  12.487 -0.0617 -0.1055  0.0299
27271W        W43080   3.479  17.044  10.618  0.1501  0.2620  0.1143
27272W        W43081   6.612  15.404   1.364 -0.2634 -0.1465  0.2024
27273W        W43082  17.033  14.785  13.699  0.3815  0.0219  0.2483
27274W        W43083  11.696  16.733   6.192  0.0210 -0.1244  0.1591
27275W        W43084   6.188  12.739   1.994  0.0196 -0.3708 -0.0456
27276W        W43085   6.222   8.104  14.991  0.0290  0.1075 -0.2429
27277W        W43086  17.709   0.673   5.870  0.1107 -0.2342  0.0884
27278W        W43087  11.002  13.156   0.520 -0.1181  0.0619  0.3964
27279W        W43088   5.769   4.414  12.277  0.0991  0.2187  0.1063
27280W        W43089  16.495  17.040   2.507  0.1899 -0.3694  0.1690
27281W        W43090  17.950  12.307   0.209  0.0419 -0.0090 -0.5267
27282W        W43091  15.778  15.062   0.859 -0.2416  0.0841 -0.0584
27283W        W43092   6.120   6.428  13.155 -0.3311  0.0872  0.1173
27284W        W43093   2.427   3.911  12.989  0.0219  0.1894 -0.4766
27285W        W43094  14.152  15.417  10.502 -0.4103  0.0319  0.1486
27286W        W43095   5.926   5.816   5.905  0.0214  0.2367  0.3905
27287W        W43096  14.798   8.398  15.557  0.3240 -0.0474 -0.0206
27288W        W43097  12.943  13.691  15.023  0.0166 -0.0179  0.0976
27289W        W43098   0.832  13.139  11.224  0.1408 -0.0254 -0.1238
27290W        W43099   4.699  17.935  14.874  0.0983  0.0418 -0.1969
27291W        W43100   0.190  15.017  14.243  0.0831  0.0221 -0.1613
27292W        W43101   2.776  16.533   2.355  0.0709 -0.1795 -0.0270
27293W        W43102  15.277   6.584  13.265 -0.2115  0.2585 -0.2023
27294W        W43103  14.364  18.046   3.167  0.4558  0.2263 -0.1765
27295W        W43104  14.787  15.154  12.431  0.1011  0.1953 -0.1679
27296W        W43105   2.693   0.789  12.612  0.0169  0.1323 -0.1114
27297W        W43106   9.982   9.960  12.022  0.0510 -0.1457  0.0535
27298W        W43107   2.165   0.961  15.579 -0.0072  0.2622 -0.0559
27299W        W43108  17.290  15.780   1.396  0.0345 -0.0383 -0.1007
27300W        W43109   2.236  13.272  10.764 -0.0906  0.3883 -0.2564
27301W        W43110  17.990   4.233   5.275 -0.1485  0.2055 -0.0026
27302W        W43111   8.832  17.143   3.770 -0.3383 -0.1451 -0.0732
27303W        W43112  10.752   4.526  13.011  0.2050 -0.3724 -0.0329
27304W        W43113  13.570   8.883  10.655  0.0677 -0.1398 -0.1327
27305W        W43114  13.999  12.284   1.000 -0.2975  0.3142  0.5252
27306W        W43115  11.783  11.494  10.875  0.0734  0.0684  0.2307
27307W        W43116   6.284   9.029   3.009 -0.1524 -0.2316 -0.1480
27308W        W43117   5.880  12.121   0.769  0.1001  0.1091  0.0547
27309W        W43118  15.872  10.446  12.869 -0.2785 -0.0681 -0.0677
27310W        W43119  12.556   0.152  12.829  0.0955 -0.1157  0.4723
27311W        W43120  16.065  12.143   3.853 -0.2050  0.4167  0.1591
27312W        W43121  12.119  18.299  12.012 -0.0332  0.1023  0.4016
27313W        W43122  12.379  14.052  11.397  0.4970  0.0822 -0.2218
27314W        W43123   8.800  10.954   5.142  0.0234  0.0111 -0.0019
27315W        W43124  18.305   9.885  12.278 -0.2257 -0.2653  0.0658
27316W        W43125   3.906  13.070   1.777  0.1121  0.1157 -0.3061
27317W        W43126  12.814  13.774   0.921 -0.1108  0.3348  0.1578
27318W        W43127   3.220   8.381   0.893  0.1720 -0.0432 -0.0765
27319W        W43128   1.980  15.370  15.229  0.0561 -0.2147  0.0719
27320W        W43129   3.762  13.892   1.854  0.0522  0.2484  0.0919
27321W        W43130   6.504   2.552   3.789  0.1648 -0.1243  0.2420
27322W        W43131   6.037   0.732   5.098 -0.3312  0.1170  0.2305
27323W        W43132   6.060   4.339   4.477  0.0661 -0.0849  0.0271
27324W        W43133  17.311   7.939   2.475 -0.3110  0.0090 -0.1064
27325W        W43134  17.820  16.881  15.076  0.2159 -0.0626  0.0067
27326W        W43135   3.254  18.081   2.417 -0.0179 -0.1903 -0.3026
27327W        W43136  17.233   8.972   2.020  0.0106 -0.2328  0.2119
27328W        W43137   6.974  16.569  15.364 -0.2763 -0.1002  0.0858
27329W        W43138  14.039   0.853  14.523  0.1623  0.0150 -0.1587
27330W        W43139   4.957  11.247   4.084  0.3161 -0.1225  0.1047
27331W        W43140  14.624   3.212   4.276  0.0560  0.0973  0.0533
27332W        W43141  17.890  11.691  12.972  0.0143 -0.3649  0.1006
27333W        W43142   4.468  14.893  15.152  0.0711 -0.1968 -0.0232
27334W        W43143   1.163   0.721  15.603 -0.0028  0.1187  0.0190
27335W        W43144   3.662   9.396   4.134 -0.1285 -0.0985 -0.0864
27336W        W43145  11.078   6.951   0.293  0.0683 -0.0695  0.1462
27337W        W43146   8.436  16.676   2.139  0.1924  0.0250  0.0668
27338W        W43147  14.484   6.530   3.209 -0.1926  0.0161  0.0455
27339W        W43148  11.875   7.700   2.313 -0.2163  0.2653 -0.0279
27340W        W43149   3.354   2.811   1.129 -0.1210 -0.3218  0.4325
27341W        W43150   5.894  15.696   5.035 -0.0325 -0.0390 -0.1277
27342W        W43151   2.107  16.407   0.322 -0.1092  0.0148  0.0166
27343W        W43152   5.244  14.684   0.211  0.0331  0.0566 -0.0479
27344W        W43153   0.698   8.532   1.304  0.0293  0.0633 -0.0745
27345W        W43154  11.888   8.197   0.327  0.0609 -0.1075  0.1095
27346W        W43155  15.857   5.213  14.372 -0.1952  0.1277  0.3671
27347W        W43156   9.796  18.428   2.055  0.0510  0.0391  0.1899
27348W        W43157   5.757  11.225  15.499 -0.4234 -0.4072 -0.0395
27349W        W43158  11.702   2.634   3.495 -0.3259  0.4051  0.0510
27350W        W43159   0.928  12.205  15.082 -0.0766 -0.0762  0.1803
27351W        W43160  15.930  17.020  11.820  0.0626  0.0036  0.2624
27352W        W43161   8.511  16.699  10.672  0.0364  0.1169 -0.4207
27353W        W43162  16.125  11.997   1.075  0.0479  0.0938  0.1560
27354W        W43163   1.558   1.215   2.217  0.1878  0.1335  0.0689
27355W        W43164   4.137  15.512  11.181  0.2190  0.1721 -0.0410
27356W        W43165   8.212  13.895  12.640  0.1653  0.0013  0.0215
27357W        W43166   4.680   8.034  14.022  0.1582 -0.2037 -0.3207
27358W        W43167   8.278  16.257   4.703 -0.2710 -0.0937  0.0765
27359W        W43168   7.069   1.441  14.800  0.0232  0.3605  0.2412
27360W        W43169   1.839  13.955  15.513  0.1019  0.0020 -0.0465
27361W        W43170  14.626   9.494  13.970 -0.0971  0.3035 -0.3730
27362W        W43171  15.754  17.987   2.399 -0.0463  0.2933  0.2313
27363W        W43172  13.165  14.465  10.382 -0.0320  0.0890 -0.0512
27364W        W43173  17.613   9.973   3.079  0.2354  0.0889  0.7389
27365W        W43174  10.439  13.207  13.498 -0.0312 -0.2422 -0.1310
27366W        W43175   3.874   9.568  15.813 -0.0550  0.0464  0.0118
27367W        W43176  11.962  15.684  14.330  0.0902  0.0921  0.2571
27368W        W43177   3.766   1.341  14.455  0.1615 -0.1372  0.0215
27369W        W43178   3.053   9.601   3.248  0.0563  0.0932 -0.1345
27370W        W43179   8.281   0.037   1.764  0.0201 -0.0154 -0.0796
27371W        W43180   2.127   1.206   1.870 -0.2080 -0.0847 -0.0160
27372W        W43181   2.732   1.622  13.915 -0.0134 -0.1439  0.0830
27373W        W43182   3.401   5.233   5.164  0.0006 -0.4282 -0.1077
27374W        W43183  17.768  11.675   5.536  0.1055  0.1282 -0.1062
27375W        W43184  10.678  15.295  12.916  0.1685 -0.1644  0.0923
27376W        W43185  17.957  14.944   4.989  0.0727 -0.1958  0.0125
27377W        W43186   9.856   7.897  11.752 -0.5408 -0.0536  0.3422
27378W        W43187  11.305  12.698  14.469 -0.1051  0.0890 -0.0076
27379W        W43188   1.066  15.995   4.299  0.1779 -0.0153 -0.0441
27380W        W43189   5.903   4.652  10.575 -0.1943  0.0294 -0.3778
27381W        W43190  15.869  13.747  11.381  0.0083 -0.3668 -0.1293
27382W        W43191  16.764   4.304   3.349 -0.1548 -0.1219 -0.4162
27383W        W43192   6.573   9.007  10.758  0.3419  0.0586 -0.3404
27384W        W43193  11.549  10.989  12.136  0.0751  0.1091 -0.1091
27385W        W43194  11.850   2.945   3.068  0.1849  0.3910  0.0242
27386W        W43195  17.472   0.731   3.883  0.6163 -0.0587  0.1944
27387W        W43196  12.970   3.961   4.715  0.0036 -0.1781  0.0445
27388W        W43197  12.351  14.278  12.205  0.0234  0.1331 -0.2326
27389W        W43198   6.653   9.329   1.041  0.0330 -0.0924  0.0425
27390W        W43199  15.767   4.847   4.789 -0.3868  0.3009 -0.0577
27391W        W43200   9.955  14.857  10.671  0.1403  0.0912  0.1168
27392W        W43201   7.360   3.971  14.164  0.2881 -0.0378  0.0113
27393W        W43202   9.046  12.143   1.166  0.2338 -0.0445 -0.0618
27394W        W43203   1.627  16.543   2.947  0.0663  0.0343 -0.1012
27395W        W43204   7.651  17.020  13.001 -0.1688 -0.2203 -0.0407
27396W        W43205  14.504  17.328   3.524  0.2627  0.0201  0.1987
27397W        W43206  11.697   2.518   0.310 -0.1717  0.2500  0.1197
27398W        W43207  10.796  13.535   3.889 -0.1714  0.0284 -0.0274
27399W        W43208   4.762  10.121   3.157 -0.3368 -0.0801 -0.1077
27400W        W43209  11.299   8.500  11.041  0.3008  0.3836 -0.0091
27401W        W43210  10.586  15.848   0.519  0.1218  0.0303  0.2118
27402W        W43211   6.744   8.618  11.606  0.1803 -0.2663  0.1165
27403W        W43212   1.889   4.990  14.620 -0.1859 -0.3964 -0.4970
27404W        W43213   0.164   3.888   4.737 -0.0505  0.3626 -0.1973
27405W        W43214   9.699   5.895  10.879 -0.0389  0.0865 -0.0075
27406W        W43215   1.825   5.940  11.231 -0.0156  0.0413  0.3308
27407W        W43216   4.686   6.950   1.619 -0.1468 -0.0886 -0.2865
27408W        W43217   3.405   8.670   0.307  0.2224  0.1795 -0.0429
27409W        W43218  10.105   1.401   4.322 -0.0537  0.2040 -0.0685
27410W        W43219   0.840   2.668  12.633 -0.0057  0.0305 -0.0149
27411W        W43220   6.528  13.112   1.873 -0.1789 -0.1747  0.0248
27412W        W43221   1.387  14.413   2.018  0.0524 -0.0996  0.1585
27413W        W43222   1.998  10.235   1.105 -0.0386 -0.2644  0.1066
27414W        W43223   3.321   3.566   4.569 -0.1230  0.2628 -0.0310
27415W        W43224   5.281  10.350   3.430 -0.0125 -0.1099  0.1028
27416W        W43225   2.485  15.602   5.141 -0.2319 -0.3474  0.0782
27417W        W43226  13.332   5.641   0.804  0.1175 -0.1235  0.0375
27418W        W43227  10.197  16.319   1.072  0.1194  0.0107 -0.0275
27419W        W43228   7.450  12.026  12.140 -0.0917 -0.3173 -0.0439
27420W        W43229  10.367  18.017  11.513 -0.1995 -0.2143 -0.1669
27421W        W43230   0.720  16.347  15.722 -0.2513 -0.1154  0.1258
27422W        W43231   5.007   7.882   0.738 -0.0823 -0.0349  0.3103
27423W        W43232  10.047  10.746   0.997 -0.0940  0.3701 -0.1583
27424W        W43233   9.155  18.360  12.128 -0.1780 -0.0321  0.1695
27425W        W43234   9.430  15.997   1.364 -0.1609  0.1390 -0.3131
27426W        W43235   7.308   3.735  12.956  0.0268 -0.2335 -0.3868
27427W        W43236   6.775  17.044  11.428 -0.4169  0.0088  0.0962
27428W        W43237  13.213   6.748  11.310  0.0301 -0.0131  0.0279
27429W        W43238  17.192   8.321  11.258  0.4234 -0.0458  0.0512
27430W        W43239   3.391  13.375  15.382  0.1778 -0.2709  0.1782
27431W        W43240   9.692  16.233   0.999 -0.3582  0.1115 -0.0529
27432W        W43241   9.045   6.160  12.895  0.0007 -0.1800  0.2961
27433W        W43242  11.348   3.535   1.223  0.2902  0.0083  0.2857
27434W        W43243  10.699   9.838  13.272  0.1683  0.1497 -0.2236
27435W        W43244   1.081   3.041   4.843 -0.1414 -0.1004 -0.0645
27436W        W43245  13.667   0.940  14.906  0.0179 -0.3469 -0.3292
27437W        W43246   8.000   6.810  15.043  0.0430  0.1560 -0.0425
27438W        W43247   2.824  15.462   3.691 -0.1203  0.1338 -0.2025
27439W        W43248  17.822   0.526  11.208 -0.2240  0.0882  0.0157
27440W        W43249  12.663   9.898  10.854 -0.0350  0.1953  0.0386
27441W        W43250   6.399   8.064   4.546 -0.0277 -0.1494 -0.2977
27442W        W43251   6.958  10.077   3.733 -0.0224 -0.1907 -0.1954
27443W        W43252  10.487  11.247   0.485 -0.0498 -0.0105  0.1421
27444W        W43253   7.122   3.328  10.662 -0.1284  0.0751  0.1594
27445W        W43254   6.598   9.801  11.707 -0.1733 -0.0713 -0.2989
27446W        W43255  16.499   8.966   1.017 -0.4132  0.1457 -0.1392
27447W        W43256  14.155  15.857   5.273 -0.0290  0.1025  0.1139
27448W        W43257   8.222  14.281   5.055  0.0845 -0.1778 -0.0756
27449W        W43258   0.282   7.419  13.917 -0.3685 -0.3272  0.0734
27450W        W43259  12.592   2.051   3.669  0.2745  0.1412 -0.0747
27451W        W43260  15.286   6.445  13.790 -0.0119  0.2411  0.0536
27452W        W43261   6.175   1.701   0.465  0.0260  0.2551 -0.2148
27453W        W43262   6.065  13.288  14.405 -0.1572 -0.2551  0.0177
27454W        W43263   9.908  15.764  12.892  0.0647  0.0675 -0.3846
27455W        W43264   9.916   1.889  12.051  0.2101 -0.3012  0.0700
27456W        W43265   5.430   3.792   1.428  0.0941 -0.1380  0.1882
27457W        W43266   8.973   6.596   4.788  0.1996  0.1182 -0.0539
27458W        W43267   9.232  17.797   0.829 -0.0065 -0.2591  0.0625
27459W        W43268  10.899  12.358  12.081 -0.0479 -0.0637 -0.0789
27460W        W43269   7.814  15.193  10.733 -0.4750  0.0468  0.1119
27461W        W43270   7.006   4.928   3.220  0.1671 -0.1537  0.2287
27462W        W43271  15.487   7.145   4.844 -0.2407  0.2422  0.2417
27463W        W43272   9.301   8.380   4.276 -0.0110 -0.0947 -0.1578
27464W        W43273   0.265  17.049   1.461  0.2032 -0.0855  0.5769
27465W        W43274   2.945  12.266   1.206  0.0955  0.2309 -0.3644
27466W        W43275   9.890  10.660  15.679  0.2538 -0.0165  0.0950
27467W        W43276   1.357   6.469  14.000 -0.1222  0.0048 -0.1036
27468W        W43277  14.029   1.610   5.492  0.2365  0.2343 -0.0251
27469W        W43278  13.956  14.956  13.656 -0.1263  0.1427 -0.0109
27470W        W43279  18.054   8.288   3.402  0.2877 -0.2815  0.1331
27471W        W43280   1.820  17.376  13.236  0.0360  0.3012 -0.0716
27472W        W43281  10.435   8.412  11.329  0.2645  0.3127 -0.1545
27473W        W43282  14.673   8.858   4.832  0.2053  0.0597 -0.1028
27474W        W43283   7.443   2.480   0.861  0.0552  0.1561 -0.0594
27475W        W43284  16.921  18.282  14.360  0.0695 -0.1519 -0.1527
27476W        W43285  15.330  14.034  13.825  0.2818 -0.2619 -0.2244
27477W        W43286   1.142   0.774   1.529 -0.0435 -0.0693  0.1865
27478W        W43287   1.632   0.760   0.673  0.1586 -0.2309  0.0798
27479W        W43288  12.996   0.741   1.375  0.2034 -0.0626  0.3974
27480W        W43289   4.857  17.211   0.093 -0.3368 -0.1637  0.0216
27481W        W43290  14.986  10.744   3.281 -0.0448  0.0737 -0.2526
27482W        W43291   6.589   6.356  13.958 -0.1920 -0.0670 -0.1977
27483W        W43292  10.438  14.505   3.427 -0.0053 -0.3454 -0.1193
27484W        W43293   1.475  10.263   1.017 -0.0264 -0.3174 -0.0618
27485W        W43294   6.481   4.984  14.081  0.0235 -0.0896  0.1361
27486W        W43295   0.136   2.774  14.547  0.2625  0.1935 -0.3265
27487W        W43296  10.108  15.016   4.031  0.0532 -0.3316  0.1535
27488W        W43297   0.577   4.740  13.558  0.3550 -0.1619  0.3381
27489W        W43298   2.930  11.382  15.033 -0.0529  0.0084  0.3489
27490W        W43299   7.144   7.010   2.825 -0.1493  0.0146 -0.2541
27491W        W43300   1.996   4.782   0.640  0.3556  0.0882  0.2353
27492W        W43301   8.696   1.208   5.311  0.1755 -0.0215 -0.0060
27493W        W43302  10.485  12.422   3.648  0.2724 -0.0187  0.1758
27494W        W43303  17.895   1.535   3.701  0.0517  0.1864  0.0626
27495W        W43304   7.052  13.647   3.669  0.0849 -0.3719  0.1536
27496W        W43305  13.542   7.428   3.193 -0.2991 -0.1002 -0.1436
27497W        W43306   2.570   3.388  11.067 -0.4144 -0.2961  0.1425
27498W        W43307  17.793   2.617   0.187  0.6653  0.0643  0.2950
27499W        W43308   1.277   2.885   2.925  0.2805  0.2312  0.2884
27500W        W43309   3.118   3.117   3.837 -0.1794  0.0222  0.1225
27501W        W43310  14.832  13.338  13.651 -0.1688 -0.5025  0.1782
27502W        W43311   8.763  14.512  14.688 -0.1738  0.0692  0.0332
27503W        W43312   0.412   0.518   2.567  0.1598 -0.1062 -0.1482
27504W        W43313   7.674  16.388   1.049 -0.0239  0.3675 -0.0292
27505W        W43314  11.779  16.136   0.640  0.1984  0.2941 -0.0971
27506W        W43315  11.367   4.609   4.880  0.0238 -0.0186 -0.3329
27507W        W43316  12.342  15.514  14.007  0.3139 -0.3517  0.4028
27508W        W43317  13.726  13.073  13.913  0.1353  0.0166  0.1015
27509W        W43318  16.351  13.792  11.242  0.2226 -0.2827 -0.2436
27510W        W43319   9.685   3.312   2.244 -0.0791 -0.1560 -0.1721
27511W        W43320   0.960   5.720  11.516 -0.2517  0.1254 -0.1034
27512W        W43321  13.944  10.172   5.279 -0.1677 -0.0026  0.2286
27513W        W43322  13.878   5.575   3.150  0.4457  0.0658 -0.2953
27514W        W43323  17.695  10.797  12.921 -0.0827  0.1316 -0.1949
27515W        W43324  17.311  16.226  12.669  0.0190  0.0539 -0.0415
27516W        W43325   9.625   8.159   5.137  0.1520  0.0799 -0.0143
27517W        W43326  18.293   7.539  13.259  0.0932 -0.0119 -0.1071
27518W        W43327   9.229  15.779   0.207 -0.0846 -0.2629  0.2070
27519W        W43328  12.120   0.472   1.506 -0.2814  0.2156  0.0738
27520W        W43329   6.198  13.529  15.376  0.0292 -0.0372 -0.1894
27521W        W43330   6.576   9.519  15.184 -0.2585 -0.2182  0.2349
27522W        W43331   4.392  11.268   1.242  0.0764 -0.2754 -0.0981
27523W        W43332   3.754  11.567  15.458  0.0610 -0.0803 -0.0466
27524W        W43333  12.937   9.540   3.040  0.0405  0.1620 -0.3987
27525W        W43334  13.483   4.656   2.871  0.1753  0.0042 -0.0078
27526W        W43335   3.697   3.561  13.833  0.4667  0.3855 -0.0380
27527W        W43336  15.728   8.537   2.356  0.0600  0.2617  0.2640
27528W        W43337   8.399  15.078   0.482 -0.1397 -0.1028  0.0177
27529W        W43338   5.452  13.226  12.461  0.0768  0.0353 -0.3355
27530W        W43339   3.059   9.507   0.505 -0.2144  0.0966 -0.1145
27531W        W43340   2.200  12.900  15.056 -0.4349 -0.1384 -0.1025
27532W        W43341   6.436  16.303   4.999  0.1015 -0.1202 -0.0905
27533W        W43342   7.514  14.142  13.967 -0.0978  0.0128 -0.3811
27534W        W43343   2.021  11.708  13.615 -0.1430 -0.0540 -0.0194
27535W        W43344   3.425   5.729   1.901 -0.1659 -0.1417  0.1038
27536W        W43345   6.736  12.231   3.491  0.0407  0.0169 -0.2912
27537W        W43346  17.963  12.945  14.185 -0.1719 -0.2304 -0.2547
27538W        W43347  12.147  11.400   1.256  0.1131  0.2777 -0.0755
27539W        W43348   1.118  10.942   0.477  0.2482 -0.2925 -0.0525
27540W        W43349  16.166   5.809   2.582 -0.4891 -0.1038  0.1083
27541W        W43350  16.786   5.618   1.440  0.2057  0.0327  0.0899
27542W        W43351  13.111   1.192  13.392 -0.2098  0.1929 -0.1240
27543W        W43352   2.712  15.228   4.153 -0.2550 -0.2330 -0.2113
27544W        W43353   4.020   2.123   2.585 -0.0143 -0.1192  0.1486
27545W        W43354   4.763   6.449   1.580 -0.1603  0.4096  0.0369
27546W        W43355  12.558   0.338   3.529 -0.2781 -0.0427 -0.3373
27547W        W43356  14.541  15.788   0.671 -0.2380 -0.3911 -0.0436
27548W        W43357  11.373   2.650  13.210 -0.1492 -0.2816  0.2161
27549W        W43358   4.865   7.728   5.446 -0.0805  0.2695 -0.0394
27550W        W43359  13.432  13.728  13.408  0.0068  0.1669 -0.1092
27551W        W43360  11.281  15.748  12.611  0.2758 -0.2235 -0.1635
27552W        W43361  17.228  15.773  12.809  0.2180  0.0209  0.0208
27553W        W43362   6.152   8.518   1.035 -0.0216  0.1655  0.0374
27554W        W43363   9.408  17.312   4.075  0.3412  0.2392 -0.1900
27555W        W43364   1.261  15.341  12.347  0.0519 -0.0538  0.2224
27556W        W43365  16.014  18.301   1.288 -0.3086  0.2160 -0.1810
27557W        W43366   1.786   7.338  12.560 -0.1672 -0.1014 -0.1401
27558W        W43367   2.931   2.869  14.805 -0.2127  0.1325  0.1204
27559W        W43368   1.697  14.454  15.258  0.1738  0.0268  0.0288
27560W        W43369   4.255   8.494   2.025  0.3148 -0.2125  0.0241
27561W        W43370   6.914   6.659   3.128 -0.2560  0.4055 -0.0902
27562W        W43371   9.683   7.072   5.987  0.1454 -0.3208  0.2043
27563W        W43372  12.615   3.499   0.691  0.0516 -0.3002  0.0162
27564W        W43373   7.827  14.564   5.505  0.1841 -0.0521  0.2816
27565W        W43374  16.884   3.734   2.717 -0.1057 -0.2734 -0.2036
27566W        W43375   6.020  15.018  15.565 -0.1392 -0.0236 -0.1380
27567W        W43376   1.859  10.792   3.369 -0.1189  0.0886  0.2100
27568W        W43377   0.997  15.590  14.470  0.0127  0.0946  0.1818
27569W        W43378   2.523   3.997  14.029 -0.0625  0.3536 -0.2126
27570W        W43379  10.774  17.374   4.760 -0.1408 -0.0527 -0.2700
27571W        W43380   9.277   4.603  15.396  0.2074 -0.2726 -0.0811
27572W        W43381  17.693   6.148  13.184 -0.1234  0.1476  0.1353
27573W        W43382   2.655  12.273   5.627  0.1268  0.1412  0.1511
27574W        W43383  14.312   1.930  12.265  0.0641 -0.2583 -0.0509
27575W        W43384  14.365  12.195   0.611 -0.0872 -0.1765 -0.0837
27576W        W43385  11.425  14.005  14.702 -0.1326 -0.3904 -0.0465
27577W        W43386   0.025   9.998   5.301  0.2210  0.0501 -0.1068
27578W        W43387   3.550   0.420  12.614 -0.0123  0.0227  0.0009
27579W        W43388   4.460  15.392   3.106  0.1857 -0.2227 -0.0066
27580W        W43389  18.293  10.874  14.521  0.1142  0.2105 -0.0422
27581W        W43390  14.588   1.521  12.450 -0.1234  0.1912  0.1526
27582W        W43391   4.862  16.075   0.085 -0.0754 -0.1292  0.0684
27583W        W43392   3.799  10.973  11.341 -0.1385 -0.1593  0.0545
27584W        W43393   9.185   3.095   0.963 -0.2123  0.2088 -0.0225
27585W        W43394  17.338   4.928   2.828  0.0170  0.0756  0.1576
27586W        W43395   7.170   9.767   1.998 -0.2386  0.1767 -0.2896
27587W        W43396   3.445  10.161   0.079 -0.0498 -0.0466  0.1074
27588W        W43397  10.281   6.878  15.713 -0.2629 -0.0517  0.1840
27589W        W43398   0.337   8.401  12.322 -0.2318  0.0699 -0.3058
27590W        W43399  18.402  15.877  14.500 -0.0786  0.3438  0.0363
27591W        W43400  16.367  17.006   1.576  0.0284 -0.1177  0.0532
27592W        W43401  16.808  18.141  15.662 -0.1439 -0.1118  0.2413
27593W        W43402  13.800  14.731   4.621 -0.0357 -0.1117 -0.5846
27594W        W43403   6.449   2.318   0.120 -0.0582 -0.0827 -0.5666
27595W        W43404  17.942   5.837   1.378 -0.1676  0.1644  0.2319
27596W        W43405  12.736   5.508   4.389  0.4093 -0.0301 -0.0869
27597W        W43406   8.205  10.369   0.950  0.2553  0.0671  0.1812
27598W        W43407   7.324   1.641   2.101  0.3667  0.1817 -0.1300
27599W        W43408  16.742   5.469  11.849 -0.1424 -0.1734 -0.2651
27600W        W43409   0.940  10.516  12.416 -0.0169  0.1947  0.0419
27601W        W43410   2.325   5.047   2.242 -0.2409  0.0084 -0.0880
27602W        W43411   9.441   2.323  15.468 -0.1205  0.1887 -0.2084
27603W        W43412  15.590  16.258   1.433  0.0175 -0.1369 -0.3709
27604W        W43413   0.395  16.839  12.009 -0.3162  0.1253 -0.0966
27605W        W43414  18.440   5.166  12.704 -0.0012  0.1726  0.0731
27606W        W43415  10.024   0.407  12.869 -0.0197  0.0523  0.0849
27607W        W43416   3.030   5.283  11.174  0.4473 -0.0750  0.2675
27608W        W43417   0.628   4.383  13.209 -0.0785  0.0296 -0.2424
27609W        W43418  15.590   4.797  13.706  0.0713 -0.2675  0.0290
27610W        W43419  13.253   9.579   4.800 -0.0762 -0.2003  0.1371
27611W        W43420   5.351  17.069   1.939  0.1203  0.0859 -0.2784
27612W        W43421  10.334  16.637   2.797  0.0596 -0.0435 -0.4306
27613W        W43422   1.206   2.025   2.119  0.0278 -0.1276 -0.1530
27614W        W43423  13.335  17.000   0.932 -0.6104  0.0129 -0.0796
27615W        W43424  17.421   8.744  15.541 -0.4160 -0.1509 -0.1220
27616W        W43425  11.302  15.058   1.158 -0.1882  0.1159 -0.0681
27617W        W43426  13.876  14.488   5.440 -0.2148 -0.0376  0.1053
27618W        W43427  13.727  16.196  10.824 -0.3483 -0.0850 -0.1181
27619W        W43428  16.326   6.327  15.044 -0.0853  0.2543  0.1070
27620W        W43429   3.880   4.847   2.065  0.1344  0.1237  0.0189
27621W        W43430   5.114   8.564  12.723 -0.0566  0.0729  0.0213
27622W        W43431   1.762  12.759   4.027  0.0519 -0.2937 -0.1538
27623W        W43432  15.496  16.021  12.232  0.3406 -0.2807  0.3039
27624W        W43433   3.317   7.256   3.229  0.1070 -0.2913  0.0826
27625W        W43434   1.414  15.719   2.932  0.3345  0.0510  0.0318
27626W        W43435   5.305  12.348  13.784  0.0528 -0.0213  0.1344
27627W        W43436  11.938  18.390   2.122  0.1026  0.0379 -0.2249
27628W        W43437   3.697  13.420   3.779 -0.4260  0.0921 -0.0374
27629W        W43438  18.223  13.323   5.118  0.0845 -0.1811  0.6826
27630W        W43439   0.397  11.400  14.076  0.0115 -0.0177  0.3924
27631W        W43440   6.514   1.647   3.527 -0.0188  0.2268 -0.0689
27632W        W43441   7.783  11.076   5.808  0.0492  0.3459 -0.0578
27633W        W43442   4.157  10.686   0.484 -0.1318  0.1180  0.1126
27634W        W43443   6.877   0.956   5.744 -0.0397 -0.2291  0.1034
27635W        W43444   3.273   0.639  13.397  0.1239  0.1187 -0.3286
27636W        W43445  14.621  15.275   9.667 -0.0983 -0.1733 -0.0297
27637W        W43446  16.049  14.467  10.359 -0.2401 -0.0104 -0.1709
27638W        W43447   8.528   2.819  11.384 -0.4415  0.0847 -0.1626
27639W        W43448   0.909   9.211  12.533 -0.2655  0.0963  0.1861
27640W        W43449   1.935   9.832   0.783  0.1315 -0.0603 -0.0621
27641W        W43450   6.468   0.733   3.444  0.0235 -0.1458  0.2355
27642W        W43451  18.124  14.078  15.355 -0.1031  0.1108 -0.0116
27643W        W43452   6.259  14.651  14.313 -0.1551 -0.0329 -0.0249
27644W        W43453  14.590   2.493   1.232  0.2220 -0.2050  0.0257
27645W        W43454   9.999   5.457  10.697 -0.0509  0.1596  0.4036
27646W        W43455   5.521  16.270   0.834  0.0501  0.1632  0.3749
27647W        W43456  16.159  15.814   3.068  0.0501 -0.0208  0.2318
27648W        W43457  15.270  13.584   2.698  0.1284 -0.0676 -0.1512
27649W        W43458   0.184   7.090   2.596 -0.1572 -0.1676 -0.4123
27650W        W43459   6.131  17.161   4.662  0.0613 -0.0452  0.0769
27651W        W43460   9.974  15.086  15.060  0.4067 -0.0386  0.1861
27652W        W43461  13.565   5.874   3.423  0.4534 -0.1399  0.1012
27653W        W43462  15.044   7.265  14.272  0.2057  0.0444 -0.0442
27654W        W43463  13.484  15.221  13.599  0.0996  0.2278  0.1267
27655W        W43464   1.152   6.443  12.894  0.1382 -0.1252 -0.0127
27656W        W43465  16.362   2.981  15.052 -0.4604  0.1672  0.2401
27657W        W43466  13.081   8.022   1.522  0.2547 -0.1344 -0.0291
27658W        W43467  10.729   5.413   2.816 -0.2176  0.2242  0.1312
27659W        W43468  17.334  10.116   3.458  0.3642 -0.1811  0.0877
27660W        W43469   2.884  18.124  14.614  0.3396 -0.0648 -0.2356
27661W        W43470   1.779   1.501   3.082  0.0858 -0.1047  0.0782
27662W        W43471   1.159   9.270   3.241 -0.0905  0.0960 -0.0927
27663W        W43472  17.122  13.646  12.997  0.0804 -0.0778 -0.1200
27664W        W43473   7.431  18.001  15.008 -0.2594  0.1185  0.3204
27665W        W43474   4.701   4.521  11.580  0.3362  0.3168 -0.0667
27666W        W43475  14.261   0.541  12.669  0.0960  0.2442  0.3876
27667W        W43476   1.590   8.164   0.410 -0.0628 -0.0825  0.0159
27668W        W43477  14.433   1.956   3.825  0.0536 -0.0989 -0.1435
27669W        W43478   2.427   2.009  14.662  0.1583  0.1162  0.1675
27670W        W43479  14.012  17.483   4.367 -0.4283  0.3362 -0.0021
27671W        W43480  16.482   5.531  14.108  0.1989  0.2064  0.0551
27672W        W43481  13.889   8.560   0.716  0.4940  0.0007 -0.0085
27673W        W43482   7.575  11.786  12.534  0.0116 -0.2846 -0.2621
27674W        W43483   0.778   2.852  10.899  0.1264 -0.0614  0.1246
27675W        W43484   7.897   3.099   2.556  0.1671 -0.0852  0.3289
27676W        W43485  15.942   2.899   3.794 -0.1167 -0.5058  0.0688
27677W        W43486   3.111  10.244  14.231 -0.3152  0.0475  0.0271
27678W        W43487   2.536  12.945   4.955  0.1184  0.0966 -0.1973
27679W        W43488   2.320   1.373   1.377 -0.0877  0.3065 -0.0806
27680W        W43489  10.319  16.710   4.210 -0.0352  0.0156 -0.1393
27681W        W43490  12.969   7.070  10.513  0.3872  0.0915 -0.1811
27682W        W43491   1.767   8.966   1.905  0.1856  0.1331  0.0729
27683W        W43492   9.353   5.854  11.988 -0.0195  0.0844  0.1602
27684W        W43493  12.959  15.240   4.749 -0.0237 -0.2885 -0.1662
27685W        W43494  15.344   1.013   4.829  0.0232 -0.0116  0.2457
27686W        W43495   2.917  18.057   4.160 -0.1567  0.3187 -0.1364
27687W        W43496   6.320   3.087   2.323  0.2626  0.1271 -0.1838
27688W        W43497  16.004   0.217   0.965 -0.1465  0.1319 -0.0299
27689W        W43498  10.440   1.013  13.215 -0.4933 -0.4234 -0.2510
27690W        W43499   8.700   4.454  13.744  0.3286  0.2795  0.2162
27691W        W43500  15.550  17.713  13.553  0.0015  0.1312  0.0884
27692W        W43501   9.180   8.032   0.659 -0.0346  0.0030  0.3393
27693W        W43502   2.413   3.537  15.026 -0.0228 -0.0216 -0.2007
27694W        W43503  18.234  11.035   6.200  0.0425 -0.1197 -0.0302
27695W        W43504   2.958   2.833  11.164 -0.0894 -0.3051  0.0781
27696W        W43505  16.301  16.495  15.308 -0.2341 -0.0403  0.3587
27697W        W43506  11.080   2.877  15.649  0.1880 -0.1839  0.1242
27698W        W43507  11.184   5.022  14.994 -0.1652  0.2120  0.3214
27699W        W43508  15.648  10.991  15.493  0.1010 -0.2097 -0.0061
27700W        W43509   5.168   9.935  11.086 -0.4069 -0.0379 -0.0108
27701W        W43510   0.129  13.395   0.086  0.0010  0.0076 -0.1052
27702W        W43511   6.798   3.404   3.571 -0.1133  0.0187 -0.0714
27703W        W43512  18.415  17.200   2.866 -0.2098  0.0658 -0.0632
27704W        W43513  10.195  15.892   1.998 -0.0999  0.1011 -0.1103
27705W        W43514  17.052   6.652  12.760  0.2323 -0.1191  0.0968
27706W        W43515  10.485   4.139  12.548  0.0402  0.0808  0.0130
27707W        W43516   6.955   4.396  15.676  0.1173 -0.2627 -0.1957
27708W        W43517  15.762   8.853   4.819  0.1199  0.0392 -0.0158
27709W        W43518   9.261  13.019   0.848  0.0785  0.2963 -0.1473
27710W        W43519  17.138   7.707   1.258  0.1396  0.1189  0.0161
27711W        W43520  10.484  13.410   4.887 -0.2014 -0.3459  0.1552
27712W        W43521  10.938   8.212   5.007 -0.0941 -0.4408 -0.2159
27713W        W43522   6.912  16.896   1.434 -0.0859  0.0170 -0.0920
27714W        W43523  12.502  18.142   0.408 -0.1425  0.3065  0.0279
27715W        W43524  10.598  18.090  13.850 -0.0846 -0.0229 -0.1509
27716W        W43525   7.332  10.919   4.199 -0.0679 -0.1267  0.0949
27717W        W43526  14.077   9.829   2.221 -0.0283 -0.0938  0.0687
27718W        W43527   0.948  11.974   2.103 -0.0363 -0.0390 -0.0497
27719W        W43528  14.562   0.399   4.639 -0.5661 -0.1900 -0.2877
27720W        W43529  16.671  12.494  13.703 -0.0982  0.0833  0.0350
27721W        W43530  14.864   7.244  11.695 -0.1114 -0.0369  0.0263
27722W        W43531   3.294   4.824  13.359 -0.0938 -0.0811 -0.0114
27723W        W43532   9.118   6.712   3.805  0.1062  0.0678 -0.1818
27724W        W43533  13.178   0.614   4.036  0.4406  0.0967  0.1142
27725W        W43534   2.023  14.115   4.724  0.2459  0.2817  0.0434
27726W        W43535   8.622   0.258   0.473 -0.0157 -0.0414  0.0097
27727W        W43536  18.275   9.645   3.428  0.3044  0.0558  0.0076
27728W        W43537   3.519  16.717   1.500  0.0480  0.0224  0.0548
27729W        W43538   3.688  11.299   0.861  0.0357 -0.0558  0.1819
27730W        W43539   0.046   3.199   1.394  0.0334 -0.0324 -0.3564
27731W        W43540   4.230  13.955  11.884 -0.2113  0.0597  0.1690
27732W        W43541   9.560   6.896  11.476 -0.0451  0.0548 -0.1735
27733W        W43542  12.666  18.156  11.067 -0.2099  0.0689  0.1866
27734W        W43543   7.514  13.808   3.891 -0.0440  0.0604  0.3256
27735W        W43544   0.142   2.140  12.141 -0.1612 -0.1317  0.0074
27736W        W43545   0.390   9.142  11.244  0.1175  0.1654 -0.3300
27737W        W43546  15.151  13.611  11.198 -0.1316 -0.1308  0.0382
27738W        W43547   7.777   4.870   1.200 -0.1897 -0.2456  0.1451
27739W        W43548  15.989   7.997   0.108  0.0299  0.2066  0.1894
27740W        W43549  10.528  11.862   3.455 -0.2178  0.1480  0.2053
27741W        W43550  12.536   6.078   1.868  0.2450  0.0268  0.3501
27742W        W43551   6.154  11.228  14.188 -0.0256 -0.1069 -0.0871
27743W        W43552   7.684   1.242  11.459  0.2377 -0.0515  0.0563
27744W        W43553  10.833   1.695  13.195  0.4351 -0.2752  0.0048
27745W        W43554   5.895  11.244   4.548 -0.2071  0.0045 -0.0928
27746W        W43555  13.686   7.465  11.712  0.2593  0.0936 -0.1514
27747W        W43556   2.775   8.191   4.714  0.1003 -0.2062 -0.4863
27748W        W43557  15.222   2.409   3.632  0.0188 -0.0383  0.2199
27749W        W43558   3.934   6.106   1.100  0.0023 -0.1933 -0.3013
27750W        W43559   7.246   3.619  14.683  0.0978  0.0620 -0.2402
27751W        W43560  15.406   1.463  12.182 -0.1706 -0.1593  0.0214
27752W        W43561  13.537   2.108   1.177 -0.0482 -0.1191  0.0562
27753W        W43562  14.895  11.656   5.232 -0.0805  0.0859 -0.2452
27754W        W43563   4.720  10.166   2.234 -0.0779  0.2192 -0.3321
27755W        W43564   3.025  11.631  14.211  0.0768 -0.2386 -0.2168
27756W        W43565  16.497   5.017  13.560  0.2325 -0.1533  0.4123
27757W        W43566   2.176  13.863   4.120 -0.1545 -0.2682  0.0706
27758W        W43567   5.759   4.802  14.580  0.3585  0.2437  0.0572
27759W        W43568   3.258  13.357  13.912  0.1618  0.0972  0.1939
27760W        W43569  16.844  15.594  11.527  0.0876  0.0069 -0.2061
27761W        W43570   5.802   9.793  15.364  0.2933  0.0470 -0.0566
27762W        W43571  15.997   9.609  15.584  0.2428 -0.1104  0.0927
27763W        W43572  12.373   4.588  14.852  0.3363 -0.0262 -0.1123
27764W        W43573   2.746   3.524  15.521 -0.1346 -0.0045 -0.1098
27765W        W43574   9.624   2.193  14.197 -0.2010  0.3740  0.0970
27766W        W43575   3.444   6.117   4.564 -0.0564 -0.1409  0.0283
27767W        W43576  15.173   1.311   1.590 -0.1390 -0.0962 -0.1079
27768W        W43577  12.564   8.728  13.456  0.1782 -0.1111  0.0292
27769W        W43578   4.018   9.320   2.340 -0.0341 -0.0854 -0.3200
27770W        W43579   2.798   5.842   2.366  0.0041 -0.1145  0.2828
27771W        W43580   6.316   0.243  14.340 -0.0909  0.0069 -0.1181
27772W        W43581  11.489  11.809  14.726  0.1608  0.1142 -0.2672
27773W        W43582   1.714  12.356   1.276 -0.3498  0.0594  0.2603
27774W        W43583  15.212  10.030  11.487 -0.0377  0.2846 -0.0912
27775W        W43584  13.961  17.118  10.853  0.1776 -0.0593 -0.2782
27776W        W43585  14.152  13.250  12.962 -0.1470 -0.3693  0.0637
27777W        W43586   6.843  16.800  12.139  0.1726 -0.3928 -0.1106
27778W        W43587   4.149   3.337  11.016 -0.2558 -0.1665  0.2382
27779W        W43588   7.312   4.806  11.722  0.1761 -0.5187 -0.0398
27780W        W43589   3.796   3.986   1.611  0.0879 -0.2627  0.1661
27781W        W43590  12.489  10.561   1.258  0.0003  0.0625 -0.0730
27782W        W43591  17.147  14.489  15.496 -0.0559 -0.1586 -0.0600
27783W        W43592   5.163  14.839  13.087 -0.3965  0.0149  0.0377
27784W        W43593   2.473   3.703  14.573  0.0656 -0.0817 -0.0925
27785W        W43594   7.527  10.824   1.294  0.0804  0.1360 -0.1098
27786W        W43595  10.680   5.163  13.325 -0.0378 -0.0855  0.0333
27787W        W43596  13.853   3.591   4.400  0.0737 -0.2648  0.1158
27788W        W43597  14.631   8.263  13.274  0.0009  0.1363 -0.0499
27789W        W43598  11.466   3.176   2.781  0.3370  0.0250 -0.2516
27790W        W43599  16.096   5.329   3.093 -0.2946 -0.2556  0.4138
27791W        W43600   9.904  16.484  10.839  0.0846  0.1830 -0.1161
27792W        W43601   2.545  17.161  11.864 -0.0841 -0.0353 -0.3849
27793W        W43602   6.604  13.383   2.284  0.2102 -0.0593  0.2026
27794W        W43603   7.738  10.640   2.720  0.2239 -0.0107 -0.1644
27795W        W43604   3.750   5.200   3.074  0.0724 -0.0304 -0.0813
27796W        W43605  16.952   2.343   1.623  0.0855  0.0977  0.0198
27797W        W43606  17.977   4.240   1.309  0.3025 -0.2338  0.1041
27798W        W43607   7.265   8.852  11.051  0.0001 -0.7248  0.0676
27799W        W43608   6.147   7.794  12.327  0.3191  0.1999  0.5010
27800W        W43609  12.148   1.693   2.127  0.2831 -0.3324  0.0974
27801W        W43610  17.629  16.595   4.062  0.0888  0.1210  0.3064
27802W        W43611  11.421  16.432   5.169 -0.0473 -0.0633 -0.0924
27803W        W43612  11.019  15.063   9.832 -0.1579  0.0486  0.1883
27804W        W43613   0.378  10.416  11.045  0.1130  0.0930  0.2426
27805W        W43614  12.711   0.790   2.704  0.2204 -0.0292 -0.0500
27806W        W43615  13.602  13.658   3.505 -0.1291 -0.0665  0.0528
27807W        W43616   5.252  11.362   1.539  0.0583  0.3498 -0.0345
27808W        W43617  10.117   4.726   1.166  0.3817 -0.2106  0.0650
27809W        W43618   2.501  17.300  12.756  0.3264  0.0591  0.2314
27810W        W43619   3.946  10.300   5.716  0.0582  0.2009 -0.3094
27811W        W43620   2.374   2.660  13.082  0.0851 -0.0602  0.1289
27812W        W43621  18.159  11.010   0.662 -0.3203 -0.0683  0.4984
27813W        W43622   6.442   6.800   3.187  0.1684 -0.0040 -0.0379
27814W        W43623   0.976  11.935   0.080 -0.1545 -0.0059  0.3027
27815W        W43624  11.711  15.897  13.475 -0.4131  0.2111 -0.0775
27816W        W43625   5.206  12.895  13.296 -0.2216 -0.0308 -0.1276
27817W        W43626   5.396  14.045   5.157 -0.1714 -0.3750 -0.0173
27818W        W43627  10.767   2.319   3.785  0.0636 -0.2013 -0.4710
27819W        W43628  11.220   9.846   3.359  0.4466 -0.0819 -0.1561
27820W        W43629  13.163  11.715   3.622  0.0677  0.2964 -0.0373
27821W        W43630   9.752  14.623   5.149  0.1603 -0.0957 -0.0811
27822W        W43631   8.816   7.727   1.349  0.0519 -0.1552  0.2234
27823W        W43632  12.491   8.402  12.219  0.1614  0.0998 -0.0787
27824W        W43633   6.671  11.331   1.170 -0.1884 -0.2217  0.3213
27825W        W43634  11.632  11.148  11.642  0.4884  0.0733  0.1021
27826W        W43635   2.825   8.740   1.061  0.1495  0.1487 -0.1007
27827W        W43636   3.385  14.299  14.476 -0.1077 -0.3359  0.0677
27828W        W43637  15.530   7.731   1.962 -0.2036 -0.0859 -0.0777
27829W        W43638  16.927  17.677  11.911  0.2484  0.1804  0.0830
27830W        W43639   3.221  12.172   4.038  0.1124  0.2651 -0.0101
27831W        W43640  12.355   0.092   0.833 -0.1343 -0.2430  0.1290
27832W        W43641   3.952   0.295  10.682 -0.0047 -0.2969  0.1477
27833W        W43642  12.461   0.678  14.603 -0.0300  0.0909 -0.0088
27834W        W43643   0.730   3.042  11.378 -0.3042  0.1342  0.0976
27835W        W43644   1.129  13.312   2.249  0.1753 -0.3916  0.2556
27836W        W43645   4.861  15.596   3.443  0.0256 -0.0285  0.4036
27837W        W43646   4.153   3.261  11.497  0.1917 -0.1198 -0.1219
27838W        W43647   3.732  13.984  11.781 -0.0766 -0.1022 -0.0275
27839W        W43648   7.872  13.032   3.678 -0.0604  0.0718  0.2669
27840W        W43649   3.109   3.330  10.827  0.2151 -0.1236 -0.0734
27841W        W43650   1.962  11.269  15.339 -0.1466  0.3230 -0.1085
27842W        W43651   7.503   3.430   5.502  0.4644 -0.1825 -0.1088
27843W        W43652   9.981   1.147   0.768  0.0507 -0.0734  0.1097
27844W        W43653   7.102   3.107  15.295 -0.4802 -0.1452  0.2548
27845W        W43654   0.868   2.823   3.649 -0.1730  0.0447  0.2736
27846W        W43655   1.489  11.485   4.544 -0.1174 -0.1264  0.3737
27847W        W43656   8.390   9.908   0.825 -0.1243  0.3380  0.1198
27848W        W43657  17.268   8.296   5.475  0.0970  0.2142 -0.0016
27849W        W43658   0.171   4.825  15.391 -0.1072  0.2129 -0.0450
27850W        W43659   1.251  14.844  12.668  0.3700 -0.1210  0.1382
27851W        W43660  15.326   2.091   4.110  0.1320  0.1115  0.4699
27852W        W43661   7.279  12.680  15.675  0.1128  0.1906  0.3317
27853W        W43662  18.276  14.155  14.132 -0.1564  0.0548  0.0254
27854W        W43663   1.732   2.286   4.864 -0.1055  0.0597  0.0750
27855W        W43664  16.752   6.401  14.394  0.0879 -0.2755  0.0852
27856W        W43665  12.671   6.043   2.765 -0.1292 -0.1101  0.1673
27857W        W43666  17.844   5.355  14.057 -0.0320 -0.0201  0.0056
27858W        W43667   4.739   1.196  14.990 -0.2703 -0.1070  0.1612
27859W        W43668   6.022   4.749  15.750 -0.0743 -0.0466  0.3172
27860W        W43669  16.486   1.652   4.196 -0.1245 -0.4074 -0.2874
27861W        W43670   1.315   7.926  11.189  0.1405 -0.3509 -0.2247
27862W        W43671   6.757  12.376  13.843  0.0812  0.0208  0.3302
27863W        W43672   7.007   6.308   0.684 -0.2020  0.0552  0.0176
27864W        W43673  10.786  11.647   1.264  0.1196  0.1551 -0.2047
27865W        W43674   5.634  17.525  12.802  0.2325 -0.2613 -0.2967
27866W        W43675   3.920  16.590   1.179  0.0323  0.1124  0.1400
27867W        W43676  14.406  17.713   5.291 -0.0910 -0.3410 -0.4642
27868W        W43677   0.606  16.673  15.248  0.1665 -0.0145  0.1937
27869W        W43678  17.526   0.066   1.360 -0.3247 -0.3554 -0.0714
27870W        W43679  15.805  10.723  11.182  0.0681  0.1072 -0.0946
27871W        W43680  18.260  17.827   2.620 -0.0533 -0.0372  0.0356
27872W        W43681  12.345  11.623  14.657 -0.1571 -0.0503 -0.0083
27873W        W43682  14.648  18.448   2.027 -0.3568 -0.0466  0.0952
27874W        W43683  16.729   2.352  10.981  0.1513 -0.1544  0.0936
27875W        W43684   9.518  11.024   2.393  0.2072 -0.3943  0.0512
27876W        W43685   8.643  15.756   2.621  0.1313  0.0721 -0.0550
27877W        W43686  18.369   7.538  15.100 -0.0552  0.1068  0.2250
27878W        W43687   1.706   5.048   2.072 -0.2229 -0.1607 -0.0416
27879W        W43688   1.238  11.491  14.662 -0.1092  0.0033 -0.0730
27880W        W43689   7.539  16.960   3.283 -0.0404 -0.2901  0.1688
27881W        W43690   3.238   5.804  12.333  0.1353  0.1035 -0.0939
27882W        W43691   3.412   3.078   0.704  0.1185  0.0639  0.0758
27883W        W43692   9.728   0.155   2.922  0.1185  0.1528 -0.2092
27884W        W43693   7.937   2.434  12.631  0.0005 -0.0243  0.0819
27885W        W43694   9.961   6.042   2.963  0.0610 -0.0632  0.0392
27886W        W43695   0.161  12.868  10.743 -0.1739 -0.2663 -0.2606
27887W        W43696  17.195   0.916  15.323  0.1453  0.0050 -0.0548
27888W        W43697   3.806   3.225   3.261  0.2199 -0.0247  0.0909
27889W        W43698   8.792  15.631   4.651 -0.0543  0.0411 -0.1635
27890W        W43699   9.550   9.540  11.020 -0.2198  0.0432  0.1504
27891W        W43700   3.298   9.896  11.953  0.0337  0.1378  0.1309
27892W        W43701  12.977   1.027   0.025  0.2821 -0.0608 -0.1980
27893W        W43702   3.213   5.572   5.731 -0.1480 -0.2206 -0.2574
27894W        W43703   2.054  14.305   2.849 -0.1692 -0.1367 -0.1031
27895W        W43704  11.334  16.113   3.772  0.1971 -0.0502  0.0586
27896W        W43705  12.591   2.625   2.799  0.1225  0.1420  0.1152
27897W        W43706   1.647   9.502   3.803  0.2194  0.0649  0.2881
27898W        W43707  13.454  12.252  13.481 -0.1003  0.1082 -0.0064
27899W        W43708  16.644   2.232  11.658  0.1232  0.0971  0.3462
27900W        W43709  14.271  11.711   2.315 -0.0023 -0.2506  0.1702
27901W        W43710   8.003   8.259   4.626  0.1044 -0.1156 -0.2447
27902W        W43711   3.060  17.810  14.147  0.0493 -0.1768  0.1592
27903W        W43712   1.628   6.011  14.150 -0.2741 -0.1749  0.1629
27904W        W43713   5.059   8.338  13.711  0.2857  0.0161 -0.2466
27905W        W43714   2.910   7.116   4.975  0.0775  0.1053  0.1577
27906W        W43715   0.246   4.614  11.941 -0.0851  0.3028 -0.2182
27907W        W43716   1.190   1.707   5.109  0.1707  0.2362 -0.1103
27908W        W43717  17.877  16.800  13.795  0.0967  0.1624 -0.3603
27909W        W43718  13.254  11.356   0.629  0.0201 -0.1518 -0.2695
27910W        W43719  17.124   7.728  14.394 -0.0752 -0.2237  0.1817
27911W        W43720  15.845   2.428   4.152  0.1740 -0.2836  0.1184
27912W        W43721  16.626  13.075   2.810  0.1367  0.0054  0.1457
27913W        W43722   1.961   3.422   1.770  0.0360  0.0269  0.1687
27914W        W43723  14.484   5.571   4.091  0.2474 -0.1842  0.2517
27915W        W43724  11.017  16.973   4.864  0.0121 -0.1170 -0.0649
27916W        W43725  10.633   5.376   5.063 -0.1871  0.2484 -0.1884
27917W        W43726  15.531  17.947  12.620  0.0398  0.1258  0.1463
27918W        W43727  17.119  14.033  10.521  0.3683  0.0957  0.0039
27919W        W43728   7.867  17.594   4.828  0.0821  0.0712  0.0033
27920W        W43729   6.551  17.636   2.478 -0.1270  0.0716 -0.3330
27921W        W43730   1.915  12.127   3.156 -0.1463 -0.0365  0.0192
27922W        W43731  14.766   8.152   1.408 -0.0282 -0.4494 -0.0254
27923W        W43732  15.157   7.951  11.973  0.0607  0.3567  0.0873
27924W        W43733   8.772   9.132   4.689 -0.0749  0.0322  0.0507
27925W        W43734  11.985   6.373  13.336  0.1254  0.3323 -0.0809
27926W        W43735  14.227   3.774   1.468  0.3255  0.2481 -0.0796
27927W        W43736  17.096   1.951  12.065 -0.1910  0.1830  0.0051
27928W        W43737   9.710  15.188   5.454 -0.6282  0.1444 -0.1718
27929W        W43738  16.850  13.485   0.071 -0.1007  0.1102  0.1664
27930W        W43739   9.453  14.335   3.356  0.0022 -0.3637  0.0624
27931W        W43740   2.490  16.761  12.254 -0.3662 -0.0229 -0.0003
27932W        W43741   5.218  10.183  10.614 -0.0876  0.3087 -0.0776
27933W        W43742   4.254  17.605  14.798 -0.2912  0.0565  0.1316
27934W        W43743  16.170   9.200   1.384  0.5207 -0.0341  0.0739
27935W        W43744  10.569   6.925  13.618  0.0718  0.0601  0.1176
27936W        W43745  18.235   4.446  13.286  0.0997 -0.4286 -0.0580
27937W        W43746  10.256  12.731  12.453  0.1815  0.0628  0.2890
27938W        W43747   7.648  12.899   5.391  0.0013  0.1944 -0.1588
27939W        W43748  11.445   1.986  11.578  0.1238  0.1581  0.0506
27940W        W43749  18.361   7.204  13.650  0.0980  0.1053 -0.2010
27941W        W43750   3.115  17.142  13.327 -0.2867  0.0740 -0.1964
27942W        W43751   0.664  12.389  11.953 -0.1716 -0.0111  0.0048
27943W        W43752  10.710   7.126  15.799 -0.0641  0.2100 -0.0195
27944W        W43753  15.590  11.206  15.038  0.2383 -0.1298 -0.1895
27945W        W43754   1.433   4.155   0.702 -0.1805  0.2471 -0.1219
27946W        W43755   1.181   7.968   2.386 -0.1413  0.0335  0.4207
27947W        W43756   4.943   9.186  14.152 -0.0615  0.0404 -0.2670
27948W        W43757  13.896   7.528  14.744  0.2800  0.0996 -0.0037
27949W        W43758   6.712  12.377  14.529 -0.1295 -0.0703 -0.0256
27950W        W43759   0.689   1.978   1.931  0.2860 -0.1235 -0.0850
27951W        W43760   9.943   3.975   0.731 -0.0249 -0.2058  0.0728
27952W        W43761   7.487   4.020   4.154  0.4525 -0.3751  0.0625
27953W        W43762   1.169  12.562  10.595 -0.0198  0.0704  0.0073
27954W        W43763  17.239   6.319   2.297  0.0784 -0.2887  0.0310
27955W        W43764   8.621  12.056   4.167 -0.0058 -0.1574 -0.0142
27956W        W43765   9.322  15.615  11.836 -0.0252 -0.0331  0.0067
27957W        W43766   3.935  14.333  10.625  0.1238 -0.1704 -0.1690
27958W        W43767   6.599  15.803  13.505  0.2268  0.0524  0.0183
27959W        W43768  10.273  11.743   2.010 -0.1195  0.0618 -0.0806
27960W        W43769  14.464   8.937  14.614  0.3084 -0.0394 -0.1481
27961W        W43770  14.096  18.243  12.679  0.0337  0.0191  0.1336
27962W        W43771   7.156   3.044   3.772  0.1719 -0.1084  0.0278
27963W        W43772  16.266  13.988   4.376 -0.0816  0.0369  0.1179
27964W        W43773  14.917   7.765  12.486  0.0372  0.1264  0.2208
27965W        W43774   6.774   6.776   0.675 -0.0092  0.1309  0.1599
27966W        W43775  14.659   5.711  12.559  0.0147 -0.0679 -0.2103
27967W        W43776  11.153  11.595  12.523 -0.0790  0.1653 -0.0096
27968W        W43777  15.551  13.579  13.937 -0.2844  0.1223  0.1656
27969W        W43778  11.152  12.078  11.626 -0.0571 -0.0318  0.1216
27970W        W43779  13.696  12.228  11.853 -0.0751  0.2741  0.1508
27971W        W43780   5.392  18.418  14.299  0.2601  0.3193 -0.1984
27972W        W43781  17.764  17.448   4.866  0.0874 -0.0546 -0.0535
27973W        W43782  10.973   1.187  12.824  0.0809  0.1042 -0.1906
27974W        W43783   8.020  15.404   0.183 -0.1635  0.3942 -0.4013
27975W        W43784   4.621  16.318  11.726  0.0536 -0.0262 -0.1963
27976W        W43785   3.642   1.837   0.174 -0.1629  0.0532 -0.1055
27977W        W43786  18.296  14.212   4.167 -0.1838 -0.0546  0.3166
27978W        W43787  11.218  11.591  11.560  0.0769  0.3757 -0.0202
27979W        W43788   2.188  11.719   2.983  0.0834 -0.0557  0.3446
27980W        W43789   9.894   7.530  12.620 -0.2076 -0.0619  0.0533
27981W        W43790   0.786  15.571  14.936  0.3600  0.0593 -0.0706
27982W        W43791  10.817  18.224  12.942  0.2761 -0.0826  0.0079
27983W        W43792  12.826   1.305   1.552 -0.1210  0.5231 -0.2222
27984W        W43793   4.678   7.071   0.703  0.0650 -0.2025  0.2301
27985W        W43794  14.642  12.421   3.956  0.1522 -0.2099  0.1270
27986W        W43795  14.198   9.390   2.787  0.3504 -0.0286 -0.0385
27987W        W43796  17.907  14.657   1.550 -0.3161  0.3102  0.0608
27988W        W43797   2.839  11.404   3.159 -0.0077 -0.2706  0.0119
27989W        W43798   9.763   6.049  15.405 -0.7050 -0.2798 -0.0856
27990W        W43799  15.866  14.656  15.267  0.1259 -0.1375 -0.2487
27991W        W43800   9.240  10.592   1.603 -0.1644  0.0665 -0.0391
27992W        W43801   1.264   9.520  12.291 -0.2207 -0.1112  0.3231
27993W        W43802  13.169  12.473  12.625  0.0643  0.0337 -0.0755
27994W        W43803  10.993   8.623   2.857  0.0888  0.0490  0.3763
27995W        W43804   5.955   3.707  12.528 -0.3447  0.2095  0.0081
27996W        W43805   0.347   9.230   0.721 -0.1332 -0.0818 -0.0661
27997W        W43806  10.393   2.963  15.662  0.3554 -0.1167  0.1794
27998W        W43807   5.793   4.254  15.785 -0.5780 -0.0131 -0.0676
27999W        W43808   8.890   3.703  11.026 -0.1480 -0.0139 -0.0640
28000W        W43809   2.867   8.200  14.455 -0.0144 -0.1727  0.2256
28001W        W43810   3.481  14.937   4.737  0.1902  0.2294  0.0982
28002W        W43811   1.366  16.394  11.306 -0.1471  0.1043  0.2265
28003W        W43812  17.959  13.115   0.613  0.0369 -0.0475 -0.3087
28004W        W43813  10.347  15.221   2.715  0.1104  0.1018  0.2599
28005W        W43814   7.914  14.936   2.927 -0.2998 -0.0170  0.1876
28006W        W43815   3.053  16.343  10.090 -0.0735 -0.3376  0.0349
28007W        W43816   8.320  17.829   0.983  0.0575  0.0574  0.1729
28008W        W43817   7.675   9.840   1.159 -0.0723 -0.0392  0.0385
28009W        W43818  15.539   5.126  11.426  0.2090 -0.1162 -0.1188
28010W        W43819  14.764  10.903   0.755 -0.2784 -0.1106 -0.3251
28011W        W43820  10.769   4.000  12.966  0.0105  0.0674 -0.0418
28012W        W43821  12.250  10.323  11.405  0.0506 -0.0385 -0.1874
28013W        W43822   0.708  16.138  10.649  0.1947  0.1245 -0.0976
28014W        W43823  12.518   3.568  15.222 -0.0196  0.3823  0.3222
28015W        W43824   3.688  16.621   2.789  0.1074 -0.1513  0.1725
28016W        W43825   8.604  12.790  13.738 -0.0380 -0.2392 -0.1058
28017W        W43826  14.926  12.491   1.720 -0.0236  0.0795 -0.3155
28018W        W43827   7.336   9.496   4.895  0.2194  0.2581 -0.0280
28019W        W43828   1.066   4.642   2.346  0.1273  0.3000  0.0800
28020W        W43829  13.971   2.506   3.592  0.2985 -0.0373 -0.1432
28021W        W43830   8.905   6.687   5.250  0.2104  0.1564 -0.0664
28022W        W43831  12.984  13.315  11.021  0.0844  0.1868  0.3872
28023W        W43832   1.716   0.596  13.301 -0.0571  0.2740  0.4667
28024W        W43833   3.490  16.257   1.750 -0.0370  0.2113 -0.0537
28025W        W43834  10.872  17.421   0.550  0.1244 -0.0686 -0.0008
28026W        W43835  11.750  18.449  13.024 -0.2797 -0.3955 -0.0448
28027W        W43836  18.090  12.616   0.657 -0.1618  0.0673  0.1762
28028W        W43837   3.195   6.505  13.390 -0.1680  0.2404  0.0052
28029W        W43838   9.871   9.187   3.194 -0.0618  0.4623 -0.2046
28030W        W43839  17.243   1.165   5.278  0.1140  0.1182  0.2398
28031W        W43840   5.382  13.863   1.692  0.1240  0.0650 -0.1805
28032W        W43841  17.076   2.792  15.525 -0.2425 -0.0978  0.1040
28033W        W43842   5.663   0.989  12.250 -0.2061 -0.2163 -0.1394
28034W        W43843   4.493   0.565   3.489 -0.1227 -0.0427 -0.1571
28035W        W43844   3.045   2.051  13.030  0.0084 -0.0785  0.1547
28036W        W43845   4.975   0.609   3.580  0.1945  0.2174 -0.4463
28037W        W43846  16.542  17.977  13.620  0.1064 -0.0513  0.2523
28038W        W43847   2.160   9.929   5.068 -0.0731 -0.1759  0.1175
28039W        W43848  10.621   0.683   3.982  0.0546 -0.0804  0.1583
28040W        W43849   9.668   1.476  15.393 -0.1977 -0.1063  0.1260
28041W        W43850  15.321   8.988   2.722 -0.0251  0.2348  0.2120
28042W        W43851  14.208  15.090  15.326  0.2017  0.3694 -0.1400
28043W        W43852   4.307   8.189  12.214 -0.1375  0.1570  0.2171
28044W        W43853   1.376   3.535  15.166 -0.2516 -0.0734 -0.0184
28045W        W43854   3.770  12.786   3.066  0.0278 -0.0136  0.0700
28046W        W43855  14.419   8.364  13.884  0.1577  0.2430  0.2097
28047W        W43856  15.559  17.933   1.181  0.0227  0.2422 -0.1593
28048W        W43857   3.089   8.645   4.080 -0.1341 -0.0643 -0.2346
28049W        W43858   1.497   8.205   3.700 -0.5183 -0.2120 -0.0473
28050W        W43859  14.824  12.962  14.824 -0.0577  0.3163 -0.2220
28051W        W43860  17.436  15.331   0.198  0.1028 -0.0885 -0.0430
28052W        W43861  17.498  12.575   5.596 -0.1193 -0.1408  0.2162
28053W        W43862  18.037   2.025   3.564  0.1275 -0.0686  0.2517
28054W        W43863   9.257  17.609  10.687 -0.0410  0.2941 -0.0198
28055W        W43864  14.418  17.969   2.208  0.0753 -0.0017  0.1679
28056W        W43865  11.035  10.810  12.140 -0.0227  0.0832 -0.1277
28057W        W43866   2.817  16.203   0.138  0.0962 -0.0476  0.0478
28058W        W43867   6.196  10.171   4.534 -0.1370  0.0467 -0.0517
28059W        W43868  10.333  11.788   1.478  0.0815  0.0862  0.3142
28060W        W43869  10.083   5.635  13.681 -0.1423 -0.0179  0.1314
28061W        W43870   2.474   5.291   5.263 -0.0020  0.1298  0.2275
28062W        W43871   4.944  15.542   1.141 -0.1587  0.0227 -0.1614
28063W        W43872   5.877  10.575   1.196  0.1159  0.3443 -0.0503
28064W        W43873   6.566  13.781   5.219 -0.0102  0.1199  0.2765
28065W        W43874   4.932  15.019  14.004 -0.1067  0.0086  0.0731
28066W        W43875  10.711  11.663   2.320  0.1358  0.2146  0.1277
28067W        W43876  12.760   0.996   0.848 -0.2252  0.0715 -0.1408
28068W        W43877  10.511   5.756   2.377 -0.0380 -0.2847 -0.2536
28069W        W43878  12.317  15.399   2.995 -0.0043  0.0570  0.0555
28070W        W43879   8.052  18.073  15.030  0.2276 -0.3339 -0.0304
28071W        W43880  15.062   9.284  14.014 -0.3292  0.2459  0.1354
28072W        W43881   7.786   9.619  14.191  0.2203 -0.4034  0.0811
28073W        W43882  11.968  16.472  12.369 -0.0439  0.0351  0.1709
28074W        W43883   7.272   2.448   4.425 -0.0681 -0.0233  0.1995
28075W        W43884  11.735   6.573   2.752  0.1314 -0.1263  0.1426
28076W        W43885   7.516  12.038  13.386 -0.0576  0.0065 -0.0729
28077W        W43886   9.169  15.745   6.039 -0.2212  0.3464  0.0008
28078W        W43887  10.054  17.335   0.009  0.1033 -0.0463 -0.1725
28079W        W43888  16.048   2.204   4.821 -0.0462  0.0656 -0.1137
28080W        W43889  11.155   5.026  15.596 -0.1749 -0.0453 -0.1373
28081W        W43890   3.617  16.511   5.273  0.4536 -0.1206 -0.1016
28082W        W43891  11.399   6.463  10.013 -0.1982  0.0193 -0.0198
28083W        W43892   2.113   0.692   4.179 -0.0586 -0.0172  0.1352
28084W        W43893   4.083   6.355   2.909  0.0774 -0.0557 -0.1102
28085W        W43894  11.118  15.247  13.792 -0.0416  0.1102  0.0634
28086W        W43895   5.952  13.891   0.362 -0.0058  0.0926 -0.1951
28087W        W43896  12.271   2.361  13.833  0.1509  0.3763 -0.1968
28088W        W43897   4.505   7.938  12.716 -0.2159  0.1207 -0.2586
28089W        W43898   1.418  11.642  10.935 -0.3235  0.0011  0.0335
28090W        W43899  17.187   0.417   0.428 -0.0515 -0.1371  0.0192
28091W        W43900   9.099   8.314  13.246  0.1247 -0.0594 -0.0590
28092W        W43901   9.561  16.600  15.686 -0.1505  0.2758 -0.0168
28093W        W43902  16.250  16.515   1.212  0.1638 -0.0511 -0.2038
28094W        W43903   9.302  14.651  12.040 -0.3101 -0.0768  0.1942
28095W        W43904   6.714  13.741   4.374 -0.2780  0.1207  0.0846
28096W        W43905  14.194  16.561  15.769  0.1895  0.2344  0.1178
28097W        W43906   4.403   9.301  13.019  0.2976 -0.1085  0.2768
28098W        W43907   1.441  18.134  13.021  0.2667  0.0941 -0.1555
28099W        W43908   6.636   4.489  15.167 -0.0810 -0.1308  0.0274
28100W        W43909   7.344  11.131  12.867  0.0331  0.1085  0.0042
28101W        W43910  15.546  10.215   4.464 -0.3063  0.1826 -0.1715
28102W        W43911   2.100   8.823  15.812 -0.0630 -0.0274 -0.0805
28103W        W43912  17.885   3.759  12.544 -0.1042 -0.0497 -0.0024
28104W        W43913  12.006   2.064   0.933  0.1210  0.0561 -0.3245
28105W        W43914  15.932  17.493   3.792 -0.3575  0.0693  0.2060
28106W        W43915  15.214   7.618  15.629 -0.0811 -0.0743  0.1635
28107W        W43916  14.982  10.509   0.304  0.0371 -0.0391 -0.1136
28108W        W43917  14.709   5.548  14.704  0.0617  0.1873 -0.2376
28109W        W43918   1.371  11.867   4.971  0.0790  0.0603  0.1176
28110W        W43919   2.125  10.075  11.536  0.1313  0.2110 -0.0154
28111W        W43920  12.993  16.613   0.853 -0.0607 -0.1174 -0.3836
28112W        W43921   7.661  13.191   4.522  0.0630  0.2773  0.1842
28113W        W43922  10.037  11.404   0.242  0.0319 -0.0612  0.1980
28114W        W43923   5.470  14.125   0.706 -0.3533  0.5119 -0.1873
28115W        W43924  14.774   4.537  15.623  0.3821 -0.1013 -0.0127
28116W        W43925   4.813   0.457  14.009 -0.0725  0.1038 -0.2187
28117W        W43926   9.455  14.390   1.900  0.0956 -0.0667  0.0485
28118W        W43927   1.062  10.035   1.044  0.0434 -0.0889  0.0007
28119W        W43928   7.689   4.786   9.847 -0.1389  0.1273  0.1251
28120W        W43929  13.462   8.739   2.959 -0.1981  0.3132 -0.1361
28121W        W43930  12.032  13.106   4.297 -0.3909 -0.0090  0.2102
28122W        W43931   1.405   8.200  12.355  0.0041 -0.0460  0.0216
28123W        W43932  10.997   7.277  15.311  0.2950  0.0389  0.3066
28124W        W43933  13.710   9.964  13.075  0.0864  0.4023  0.0092
28125W        W43934   4.710  11.496   0.107  0.2236 -0.2307  0.0526
28126W        W43935  14.214   5.690   3.628 -0.1987 -0.1690  0.1315
28127W        W43936  14.796   3.771  15.636 -0.0354  0.0948  0.0556
28128W        W43937  12.824   3.406  11.587  0.1557  0.3188 -0.0224
28129W        W43938  12.103  11.345  11.636 -0.0046 -0.2257 -0.2079
28130W        W43939  15.980   2.227  13.379 -0.2523 -0.0222 -0.1037
28131W        W43940  13.001  12.001  13.487 -0.3180  0.0180 -0.1743
28132W        W43941   9.187   7.729  11.543 -0.0513 -0.0013 -0.1208
28133W        W43942  17.786  13.987  11.633  0.0693  0.0665 -0.2732
28134W        W43943   9.770   8.641   4.014 -0.0330  0.2889  0.1611
28135W        W43944  14.236  10.130   1.531  0.0179 -0.1951  0.0929
28136W        W43945  10.090   9.993  13.686 -0.1209 -0.0893 -0.2492
28137W        W43946  16.385   2.802   5.647 -0.0158 -0.2494 -0.3024
28138W        W43947  14.229   2.841  10.952 -0.2487 -0.1550  0.2103
28139W        W43948   0.920  15.403  15.842 -0.2926 -0.2652 -0.2477
28140W        W43949  15.966  18.167  12.743 -0.1774 -0.0118  0.0297
28141W        W43950   4.250  14.039  15.592 -0.4023 -0.0706 -0.1346
28142W        W43951  12.520  12.997   4.682  0.0154  0.0776  0.0105
28143W        W43952  14.985   0.485  15.342  0.0312 -0.0986 -0.3875
28144W        W43953   2.707   6.048  12.347 -0.3999  0.4530  0.1940
28145W        W43954   3.088  11.433  11.437  0.0059  0.2150  0.0681
28146W        W43955  11.718   5.936  14.824  0.3808  0.0580 -0.1099
28147W        W43956  12.606  15.581   0.595  0.0224 -0.1284  0.2672
28148W        W43957   0.637  18.170   0.246 -0.1523 -0.0203 -0.0440
28149W        W43958   6.975   0.884  10.492 -0.0961  0.1333  0.0519
28150W        W43959   6.834   8.545   1.601 -0.3245 -0.2218  0.0771
28151W        W43960  17.706   3.245  13.372  0.1426 -0.1471  0.1887
28152W        W43961   9.289   7.775  13.916  0.1510  0.2902  0.0987
28153W        W43962  17.841   7.184  15.670  0.1261  0.1513  0.1844
28154W        W43963   1.356  15.181   1.094  0.3330  0.0119  0.2867
28155W        W43964  15.736  15.085   2.870 -0.0903 -0.0089 -0.2779
28156W        W43965   8.537  10.255  14.545  0.2634 -0.1807 -0.1310
28157W        W43966   7.559  16.788   4.415 -0.4539 -0.0110 -0.4190
28158W        W43967  16.734  14.940  12.912 -0.0160 -0.1126  0.0664
28159W        W43968  10.902   1.181   3.163  0.0594 -0.1274 -0.2764
28160W        W43969  13.533   4.957  11.403  0.1821 -0.2165 -0.0269
28161W        W43970  10.810  17.994   4.512  0.1102 -0.0176 -0.4814
28162W        W43971  13.096   4.137  13.783 -0.0241  0.0520  0.2212
28163W        W43972  14.399   6.993   4.056 -0.1750  0.4240  0.1892
28164W        W43973  13.988  10.851  11.624 -0.3195 -0.0083 -0.0728
28165W        W43974   5.697  13.009   4.653  0.0038 -0.3250  0.1159
28166W        W43975  13.086   8.235   3.736 -0.1285  0.0479 -0.0566
28167W        W43976  17.752   0.423   1.003  0.3995  0.0746  0.0450
28168W        W43977   8.302   9.336  14.807 -0.0546 -0.4060 -0.1636
28169W        W43978   1.662  18.346   2.267  0.2168 -0.0065  0.3055
28170W        W43979   9.966   2.190   0.993 -0.1481 -0.1936 -0.2202
28171W        W43980   5.903  15.079  13.646 -0.1882  0.1976  0.0137
28172W        W43981   1.788   3.539  11.634 -0.2886 -0.0112  0.2870
28173W        W43982  15.738  16.590  11.669 -0.0631  0.0484 -0.0148
28174W        W43983   1.526   5.849  14.764 -0.0721  0.1050  0.0149
28175W        W43984   4.858   1.746  11.820 -0.2376 -0.1677 -0.1276
28176W        W43985   9.250   0.946   0.374  0.1794  0.1683 -0.1237
28177W        W43986   7.798   1.513   9.944 -0.0141  0.0095  0.0456
28178W        W43987   9.250   2.389   0.489 -0.1169 -0.0839  0.0349
28179W        W43988  11.993  16.661  15.281  0.0967  0.0682  0.0553
28180W        W43989   3.766   3.644   4.328 -0.0247  0.2099  0.2285
28181W        W43990   4.284   1.015   3.430 -0.1438 -0.0178 -0.1262
28182W        W43991   0.838  12.776   4.655 -0.0123  0.0479  0.3249
28183W        W43992   0.340  12.497  11.021  0.2419  0.3471 -0.4423
28184W        W43993  14.769   0.450   1.393  0.0479 -0.0451 -0.0958
28185W        W43994  17.086   1.808  14.767 -0.3288 -0.0545 -0.0872
28186W        W43995   5.325   0.422  14.641  0.1156 -0.2062 -0.3584
28187W        W43996  11.434  11.887  12.840  0.0431  0.0541  0.0456
28188W        W43997   7.094   9.893   1.179 -0.0222 -0.0721  0.0518
28189W        W43998  12.644  10.551   3.968  0.1213  0.0485  0.2389
28190W        W43999  16.595   3.883  12.517  0.0932  0.0385 -0.2937
28191W        W44000  11.455   9.004  11.763  0.0696  0.1454 -0.1385
28192W        W44001  15.578  17.518   2.568  0.1343 -0.0424 -0.2153
28193W        W44002   4.043  18.345   1.923  0.2718 -0.1509 -0.2046
28194W        W44003  15.069   7.479  12.082  0.1122  0.1810 -0.1111
28195W        W44004  13.348  13.754  14.652 -0.2110  0.1886 -0.0281
28196W        W44005   1.533   0.355  15.450 -0.2978  0.0061 -0.1472
28197W        W44006  11.801  11.611  13.386  0.0319  0.2902  0.3567
28198W        W44007  10.282  12.660   3.062  0.1296  0.0875  0.1399
28199W        W44008   8.669  13.805  15.681  0.1530 -0.0997  0.2342
28200W        W44009  14.149   2.826   1.111  0.0405  0.0205 -0.2336
28201W        W44010  12.410   3.476   0.251  0.0530  0.1752  0.2994
28202W        W44011   8.930   1.817  14.422 -0.1623 -0.1552 -0.0191
28203W        W44012   6.760  16.478   2.243 -0.0150 -0.0885 -0.0741
28204W        W44013  14.124  18.362  11.520 -0.0909 -0.1999 -0.0999
28205W        W44014   5.874   1.813   0.999  0.1766 -0.3087 -0.0906
28206W        W44015   4.483  17.667   0.773 -0.0991 -0.0640 -0.1378
28207W        W44016   5.576   9.808  10.690  0.2822  0.1992  0.1653
28208W        W44017  13.283  17.492   1.749 -0.0068 -0.1749  0.2580
28209W        W44018  14.392  10.137  14.200 -0.0158 -0.2511  0.0502
28210W        W44019  13.501   5.359   9.871 -0.3630 -0.1351  0.0253
28211W        W44020   1.306   4.521  13.823  0.1077 -0.2977 -0.1003
28212W        W44021  14.446   2.953   3.905  0.2143  0.1697  0.2246
28213W        W44022  18.405   8.872  15.513  0.3419 -0.2121  0.1462
28214W        W44023   5.382   9.016  13.364  0.0015  0.2416 -0.0403
28215W        W44024   9.108   0.493   2.676  0.2179 -0.1349 -0.1314
28216W        W44025  13.146   0.636   2.826  0.1815 -0.1861 -0.0013
28217W        W44026  15.509  13.665  12.072 -0.2677 -0.0396 -0.0650
28218W        W44027   2.982  12.641   4.213 -0.0646 -0.0896  0.1738
28219W        W44028   3.011  14.367   2.984 -0.0113  0.0276 -0.2619
28220W        W44029  11.697   3.522   3.034 -0.0113  0.4090  0.0409
28221W        W44030  17.927  12.082  13.902  0.1137 -0.0294  0.1493
28222W        W44031   6.279  17.588   3.189 -0.0240  0.2682  0.0794
28223W        W44032  11.182   9.582  13.167  0.0808 -0.0228 -0.3594
28224W        W44033  15.365  12.621   2.119  0.0061 -0.0257  0.0757
28225W        W44034   4.186   0.385  13.277 -0.0333  0.0024  0.0467
28226W        W44035   3.306   5.482  11.557  0.1100 -0.2786  0.0898
28227W        W44036   1.879  15.015   0.198 -0.1828 -0.0066 -0.0685
28228W        W44037   9.442   5.153   3.828 -0.2636  0.1617  0.0104
28229W        W44038   2.830   8.933  12.920 -0.0927 -0.0865 -0.0891
28230W        W44039   5.184  12.884   1.036  0.0403  0.1395  0.0244
28231W        W44040   9.016  13.621   3.912  0.2195  0.2216 -0.3153
28232W        W44041   6.012   4.232   1.724  0.3696 -0.2689  0.4540
28233W        W44042  16.705   6.100  13.995 -0.0845 -0.1731 -0.1782
28234W        W44043  12.108   6.876   5.169 -0.0373  0.0875 -0.0935
28235W        W44044   5.431   7.438  13.806 -0.3019 -0.0973  0.0367
28236W        W44045   5.254   0.171   0.454 -0.0755  0.2500  0.1038
28237W        W44046  11.877   1.454  14.766 -0.4011  0.1959  0.3606
28238W        W44047  14.156  16.591   3.495 -0.0716  0.3893 -0.3605
28239W        W44048   0.729   4.919  10.026  0.1474  0.0316 -0.3321
28240W        W44049  14.063  13.752   3.439  0.2495  0.2373  0.1139
28241W        W44050  12.462  16.586   0.133  0.0161 -0.0219 -0.1009
28242W        W44051  11.922  12.196   0.552  0.1544  0.3099  0.2959
28243W        W44052   9.021  15.783   5.591  0.0208 -0.0809 -0.3395
28244W        W44053  16.993   9.855  15.021 -0.3223 -0.1540 -0.2162
28245W        W44054  11.088  17.874  12.332  0.1373 -0.0124 -0.1078
28246W        W44055  17.785   4.895   4.130  0.3320  0.1031  0.0972
28247W        W44056   2.982   7.837  11.820  0.0919 -0.2940 -0.1691
28248W        W44057   5.313   0.482  12.522 -0.1681 -0.1208 -0.0617
28249W        W44058   2.561  11.410  13.627  0.0548 -0.2267 -0.0041
28250W        W44059  11.928  18.305  13.458  0.0084 -0.1643 -0.2744
28251W        W44060   9.491   7.476   9.828  0.1865 -0.2020 -0.1316
28252W        W44061   7.922   1.151  13.274 -0.2817  0.3541 -0.1058
28253W        W44062  16.907  12.858  10.468  0.2671 -0.2833 -0.1494
28254W        W44063  13.726  14.231  10.919 -0.6474 -0.0652 -0.0378
28255W        W44064   8.929   0.986  14.219  0.2922 -0.3248 -0.1890
28256W        W44065  14.593   8.869   4.152  0.2440  0.0227  0.0107
28257W        W44066   8.021   0.846   3.320 -0.0232 -0.0298  0.1311
28258W        W44067   5.146  12.141   1.838 -0.0020 -0.1442 -0.1190
28259W        W44068   6.698   3.084   5.325 -0.0463 -0.0978 -0.0934
28260W        W44069   6.165  15.979   5.330  0.0852  0.1222  0.0435
28261W        W44070   6.295   1.846  15.831 -0.3394  0.1648  0.2474
28262W        W44071   6.443   0.559   0.546 -0.3613 -0.1708  0.1523
28263W        W44072  15.637  18.445   2.272  0.0024 -0.0108 -0.3792
28264W        W44073  13.069  14.968  15.478 -0.0091  0.0347 -0.0028
28265W        W44074   9.972   6.478   1.757  0.2975  0.0891 -0.1880
28266W        W44075   5.701   3.389  15.562  0.1766 -0.0276  0.1589
28267W        W44076   0.070  13.509   4.476  0.2633 -0.2815  0.1406
28268W        W44077   2.343   8.892   2.307  0.0182  0.5104 -0.2001
28269W        W44078  14.652  18.103  14.762 -0.2167  0.0309 -0.0024
28270W        W44079   5.975  18.193   4.660 -0.0009  0.0785  0.0161
28271W        W44080  18.188   4.751   2.662  0.0752 -0.1943  0.0736
28272W        W44081   2.096  16.734  13.445 -0.2703  0.1627  0.0904
28273W        W44082   2.490  17.991  14.913  0.0194 -0.1281 -0.1054
28274W        W44083  10.381   8.402   1.709 -0.0721  0.1797  0.1161
28275W        W44084   4.758   9.326  12.238  0.1628 -0.1244  0.1929
28276W        W44085  16.397  10.207  14.591 -0.1124 -0.2031  0.0528
28277W        W44086   7.978   4.279   2.431  0.1836  0.1784 -0.0447
28278W        W44087  13.100  14.977   3.377 -0.0655 -0.1762 -0.0661
28279W        W44088   5.215   6.298   1.797 -0.2723 -0.1284 -0.1874
28280W        W44089  14.864  11.011  13.951  0.3114 -0.2763  0.1194
28281W        W44090  11.616   9.389   2.542 -0.1827 -0.0882  0.5138
28282W        W44091  17.674   0.922   2.537 -0.0602 -0.0096 -0.0469
28283W        W44092  11.173  10.170   4.685 -0.2199 -0.1029 -0.0253
28284W        W44093   2.621   9.172  12.532  0.0267  0.1306  0.2630
28285W        W44094  10.663   5.670   5.512 -0.1220 -0.0805 -0.2321
28286W        W44095   3.281   0.204  13.051 -0.0319 -0.0823 -0.1087
28287W        W44096   2.078   3.151   4.048 -0.0534  0.2048  0.1457
28288W        W44097  10.366   3.472  10.971  0.0505 -0.0600  0.0858
28289W        W44098  13.673   7.106  15.523  0.0997  0.0936 -0.0749
28290W        W44099   8.919  11.363   4.158  0.1874  0.2647  0.0437
28291W        W44100   5.193  13.069  11.995 -0.0053 -0.0664  0.0904
28292W        W44101   3.819   9.525   2.745 -0.1735  0.2087 -0.1030
28293W        W44102  16.213   2.123   4.374  0.2180 -0.2098  0.0009
28294W        W44103  16.979  12.072  12.824 -0.2908 -0.2316 -0.1363
28295W        W44104   3.816  17.749   2.987 -0.1421 -0.3159  0.1697
28296W        W44105   7.437  14.862   2.754 -0.0118  0.0608 -0.1615
28297W        W44106  11.573  17.655  11.503  0.0509 -0.4172  0.0668
28298W        W44107  12.802   1.066  14.780 -0.1503 -0.1287  0.1031
28299W        W44108   5.313  16.628   4.317  0.1000  0.2226 -0.0412
28300W        W44109   3.841  18.034   2.285 -0.0557 -0.1147  0.0109
28301W        W44110  11.795  10.385  12.724 -0.0585  0.2822 -0.0427
28302W        W44111  10.333  10.636   2.843  0.0009 -0.0572  0.1610
28303W        W44112   4.648   5.243   3.030 -0.1753 -0.2934  0.3350
28304W        W44113  15.123  17.508  13.370  0.1050  0.0870  0.3523
28305W        W44114   4.756  11.591  12.997  0.0407 -0.1306 -0.1124
28306W        W44115  14.329  13.678   5.734  0.2517  0.3219 -0.1281
28307W        W44116  14.582   6.320   0.018  0.0603 -0.0891  0.0521
28308W        W44117  13.716   4.956   1.296 -0.0948 -0.0040 -0.0146
28309W        W44118  15.993  14.757   3.899  0.0894 -0.1443 -0.0615
28310W        W44119  17.419  17.712  11.735 -0.0852 -0.0692  0.0003
28311W        W44120   1.487   4.297   4.742  0.0249 -0.0489 -0.2684
28312W        W44121  18.193   1.791  14.762  0.2245  0.1936 -0.2782
28313W        W44122   3.921   6.750  12.135  0.2265  0.1199  0.1570
28314W        W44123   8.232   4.521  11.808 -0.2662  0.0210  0.0238
28315W        W44124   7.928   2.900  15.591  0.1372  0.0268 -0.1008
28316W        W44125   6.354  15.995   4.239  0.0251 -0.0312  0.1578
28317W        W44126   2.454   8.555  11.994  0.1167  0.1944  0.0393
28318W        W44127   3.336   2.010   5.374  0.2509  0.0577  0.2331
28319W        W44128  16.674   7.299   4.000  0.0900  0.1644  0.4927
28320W        W44129  12.570   5.695   2.253 -0.1077  0.1448 -0.1187
28321W        W44130   3.803   5.514  13.069  0.0942 -0.4512 -0.1165
28322W        W44131   4.748  15.785   5.666 -0.1150  0.0401  0.0331
28323W        W44132  11.227  15.321  14.285  0.0628 -0.1461  0.0045
28324W        W44133   7.030  15.113   2.558 -0.2221 -0.1494 -0.5071
28325W        W44134  13.703   0.543   3.671 -0.0035  0.1441  0.0954
28326W        W44135   3.969   0.572  15.138  0.2178 -0.2636 -0.2883
28327W        W44136   7.761   5.344  13.546 -0.2459  0.0440  0.0449
28328W        W44137   2.367   5.904   5.996 -0.1449 -0.0471 -0.0937
28329W        W44138   1.664   4.920   0.236 -0.2367 -0.2769 -0.1286
28330W        W44139  11.825   8.888  11.453 -0.2107  0.1744 -0.4369
28331W        W44140   4.246  12.595   2.937  0.1134  0.1019  0.2153
28332W        W44141   9.259  14.911   5.155 -0.1120  0.2186 -0.2843
28333W        W44142   8.901   4.101   1.780 -0.0295 -0.1701  0.0390
28334W        W44143  12.676   6.099   0.510  0.0246  0.2994  0.0365
28335W        W44144  14.253   5.432  12.501 -0.1109  0.3400  0.1414
28336W        W44145   4.763   9.734   0.258  0.2546 -0.3307  0.0830
28337W        W44146   5.372  14.091  11.416 -0.2430  0.3625  0.0640
28338W        W44147   8.685  13.891   2.033  0.2033  0.1137 -0.0986
28339W        W44148   5.536  17.605   1.519 -0.2150 -0.1531  0.0527
28340W        W44149   2.548  16.085  13.873  0.1690 -0.0827  0.5168
28341W        W44150   6.352  14.283  11.539 -0.0207  0.1242 -0.1620
28342W        W44151   4.466   3.029  13.620 -0.1769 -0.0548 -0.2197
28343W        W44152   5.524  14.142  12.122  0.0881  0.3638  0.0852
28344W        W44153   1.547  10.634  13.520 -0.1917 -0.2206  0.1975
28345W        W44154   8.516  13.252   5.321 -0.0887  0.0111  0.0649
28346W        W44155   6.020  17.517  15.393 -0.3660  0.1690 -0.0726
28347W        W44156  10.875  16.849  13.982 -0.0063  0.2299 -0.0025
28348W        W44157  14.309   8.629  13.177  0.3752  0.0560 -0.2807
28349W        W44158   1.108  14.277   5.077 -0.2310  0.1972 -0.3847
28350W        W44159  12.568   1.716  14.018  0.0800 -0.1774  0.1610
28351W        W44160   6.032   9.479   4.543  0.0486  0.1863 -0.2610
28352W        W44161  18.289   2.092   0.073 -0.0356 -0.3360  0.0887
28353W        W44162  18.121  16.504  15.241 -0.4146 -0.0864  0.0144
28354W        W44163   1.011  17.201   1.888  0.2751 -0.0279 -0.0499
28355W        W44164  16.942   7.546   3.431  0.1257  0.2441  0.0601
28356W        W44165   5.561  13.672  13.135 -0.2636 -0.0230  0.0505
28357W        W44166  16.211  13.463  14.689  0.1484  0.0376  0.2038
28358W        W44167  10.797   8.313  13.392  0.0259  0.0189  0.0764
28359W        W44168  11.747   7.606  11.750  0.0252 -0.0231 -0.1268
28360W        W44169  13.714  15.013  13.127  0.0218  0.0311 -0.3027
28361W        W44170  11.154   2.587  14.112  0.1899  0.2234 -0.3193
28362W        W44171  16.724   6.274   2.277 -0.1356  0.5220  0.1435
28363W        W44172  16.200   3.378  15.421 -0.5109  0.2596 -0.1392
28364W        W44173   2.353   7.505   2.910 -0.2608  0.0155 -0.1723
28365W        W44174   7.889   4.235   3.599 -0.2041 -0.0223  0.2352
28366W        W44175   4.354   5.804   0.156 -0.2227 -0.0077 -0.0967
28367W        W44176  12.834  17.113   0.994  0.1711 -0.0289  0.1518
28368W        W44177  13.756   9.242   0.083 -0.1321  0.0108 -0.0130
28369W        W44178  17.535  13.100   3.217 -0.0310  0.0019 -0.0674
28370W        W44179  16.585  12.098   5.483  0.2891  0.0978 -0.0205
28371W        W44180   1.405   9.856   0.767 -0.0241 -0.1562  0.0281
28372W        W44181   4.754  17.362  11.646 -0.1813 -0.0487 -0.2846
28373W        W44182  16.138   1.009  14.971  0.0876  0.0599 -0.3329
28374W        W44183  17.525   4.067   1.043 -0.0650  0.1821  0.0712
28375W        W44184   2.600  14.473  10.554 -0.0175 -0.1737 -0.1052
28376W        W44185  12.754   8.518  13.062  0.0414  0.1836 -0.1147
28377W        W44186  11.379  12.652  10.607  0.0107 -0.0683  0.2753
28378W        W44187  15.006  12.767   4.154  0.0059  0.2464 -0.1158
28379W        W44188  10.757   3.958   0.659 -0.5670  0.0107  0.1358
28380W        W44189   5.685  14.049   2.477 -0.0776  0.1311 -0.0423
28381W        W44190  13.363  10.183   1.649  0.1844  0.0611  0.2401
28382W        W44191   0.764   1.279  12.598  0.1269  0.0697 -0.2452
28383W        W44192   1.818  10.354   0.661 -0.1577  0.2192 -0.0890
28384W        W44193   7.819  14.492   1.059  0.1680  0.1825  0.1161
28385W        W44194   9.367   3.351   3.322 -0.0727 -0.0916  0.4056
28386W        W44195  10.142   2.989  10.997 -0.1608  0.0617 -0.0488
28387W        W44196   6.325  13.252   5.855 -0.1866  0.0950  0.0975
28388W        W44197   9.829  10.865   1.463  0.0811  0.0052 -0.0692
28389W        W44198  15.661  13.371   5.096  0.0811  0.1028 -0.0641
28390W        W44199  17.862  14.113  14.913  0.0781 -0.1167 -0.1978
28391W        W44200   3.875   5.559   1.792 -0.0379  0.1331  0.1318
28392W        W44201   1.722   0.682   2.504  0.4268 -0.0339  0.1385
28393W        W44202   7.889  11.916  13.731 -0.2362  0.0527  0.2115
28394W        W44203  13.292   6.937  11.778 -0.1889  0.0396  0.1639
28395W        W44204  14.442  14.238  15.026 -0.0374  0.0636  0.0663
28396W        W44205   7.150  17.919  11.439 -0.0035  0.1021 -0.0479
28397W        W44206  16.207   2.551  11.924  0.0526  0.2105  0.0645
28398W        W44207   3.476  11.860   2.101 -0.1087  0.0850 -0.1742
28399W        W44208   3.627   8.742  13.425 -0.1150 -0.0844  0.2285
28400W        W44209  15.342  14.044   1.844  0.2343 -0.1007  0.1216
28401W        W44210   2.027  16.730   1.681  0.0230 -0.1745  0.1308
28402W        W44211  18.303   1.649   4.428 -0.1324  0.1795 -0.2718
28403W        W44212   4.245   5.019   1.241  0.0674 -0.3399  0.0083
28404W        W44213  14.258  12.714   1.021  0.0444 -0.2218 -0.1091
28405W        W44214   0.161  10.486  11.538 -0.1610 -0.5269  0.0245
28406W        W44215   8.203  17.598  15.077  0.0475 -0.1464 -0.1767
28407W        W44216  13.542   2.991   4.582  0.1904 -0.0880 -0.0850
28408W        W44217  16.716  12.498   2.845  0.3959  0.1332 -0.1465
28409W        W44218   5.381  11.493   2.492 -0.4536  0.3021 -0.0281
28410W        W44219  18.271  16.521   4.573  0.1194  0.1462  0.2947
28411W        W44220   4.331  14.964  11.994 -0.0175  0.0178  0.1258
28412W        W44221   9.554  12.452  14.113  0.0458  0.0162  0.0312
28413W        W44222   7.164   8.881  13.696  0.2629  0.0337  0.0413
28414W        W44223  14.359   0.674   1.272  0.3945  0.1137 -0.1693
28415W        W44224   7.423   9.094   0.408 -0.1538  0.0416 -0.0772
28416W        W44225  14.787   8.495   0.699 -0.0145  0.1052 -0.1220
28417W        W44226   2.491  13.040   0.882  0.2578  0.2383  0.1641
28418W        W44227   3.541   2.622  13.166  0.1234 -0.1317 -0.2023
28419W        W44228  14.602  12.897   1.801  0.1755 -0.0307 -0.0481
28420W        W44229  17.921   3.318  12.377 -0.0434  0.0528 -0.0331
28421W        W44230   4.058  12.510  12.387 -0.2611 -0.1330  0.0163
28422W        W44231   3.584   9.339  10.918  0.2325  0.0620 -0.0576
28423W        W44232   3.448   4.347  12.371 -0.1009 -0.1539  0.1013
28424W        W44233  14.442  12.314   1.296 -0.3122  0.0120  0.1170
28425W        W44234  16.719   3.212  12.602  0.1986 -0.2182  0.1087
28426W        W44235   5.715  15.552  13.055 -0.0462  0.0933 -0.1516
28427W        W44236   0.802   6.675   4.519  0.1359  0.0369 -0.1451
28428W        W44237   5.181   1.485  12.697 -0.0073  0.0219  0.1011
28429W        W44238   4.738   9.427  15.173 -0.0334 -0.1577 -0.0002
28430W        W44239  10.052   6.896   2.307 -0.1780 -0.1770 -0.0285
28431W        W44240   2.616  16.494   4.818  0.1200  0.2208  0.0501
28432W        W44241   0.778  18.100  13.591 -0.1260  0.0880  0.0901
28433W        W44242   3.348  17.368   4.010  0.1212 -0.1089  0.1717
28434W        W44243  16.238   0.083  14.703  0.1966  0.2876  0.1207
28435W        W44244   0.347   6.011   4.226 -0.0750  0.1534  0.1906
28436W        W44245  10.343   2.505  15.437 -0.1012 -0.0561  0.1684
28437W        W44246  10.359   0.684  14.768  0.1989 -0.0607  0.1511
28438W        W44247  15.001   7.553  14.726  0.0861  0.0416 -0.0795
28439W        W44248   7.032   3.428   2.798 -0.1241  0.0528 -0.2906
28440W        W44249  16.109   7.525  13.185 -0.3568 -0.3722  0.0092
28441W        W44250   2.327  12.187   0.687  0.0276  0.1516  0.2311
28442W        W44251   2.124   2.990   0.465 -0.0893  0.0670  0.1109
28443W        W44252   4.444   5.569   2.721 -0.2327 -0.2359  0.1242
28444W        W44253  17.641  11.276   3.841  0.0961 -0.0628 -0.1176
28445W        W44254  10.019   3.195  11.809 -0.3242  0.0112  0.0931
28446W        W44255   5.006   5.456  14.497  0.1516 -0.0231  0.3741
28447W        W44256  13.718   6.512   1.807 -0.1539 -0.0177 -0.0611
28448W        W44257   8.359  12.038   0.437 -0.0835  0.0093 -0.0823
28449W        W44258  15.608   3.472   1.651 -0.1048  0.1543  0.0956
28450W        W44259   4.912  10.927  10.781 -0.0472  0.1715 -0.1928
28451W        W44260   7.094   2.575   3.861 -0.0784 -0.0190 -0.1418
28452W        W44261  16.210   4.853   1.983  0.0388 -0.0915 -0.2435
28453W        W44262  10.436   3.623  14.745 -0.2810 -0.1908  0.1062
28454W        W44263   7.186  18.070  13.992  0.2930  0.1584  0.1802
28455W        W44264   2.654  16.637   0.375  0.1618  0.3605  0.0104
28456W        W44265  16.269   4.458   0.962 -0.0702 -0.0547 -0.0922
28457W        W44266  17.840   8.246   2.447  0.0678  0.2053  0.0224
28458W        W44267   0.541  13.868  11.538  0.0963 -0.0275  0.0533
28459W        W44268   0.891  13.997   0.960 -0.2477  0.2233 -0.0666
28460W        W44269  13.133   4.426   2.548  0.2836 -0.0260  0.0440
28461W        W44270  15.714  16.979   2.021 -0.3329 -0.0013  0.1097
28462W        W44271  10.909   9.791  11.861 -0.0413  0.1712 -0.3508
28463W        W44272   1.227   2.966  12.711  0.2250  0.3471  0.1816
28464W        W44273  15.730   6.844  13.940  0.0800 -0.2017  0.0301
28465W        W44274   6.156   8.460  15.745  0.3877  0.2778  0.2548
28466W        W44275  15.913  18.195  12.262  0.1674  0.1817 -0.2292
28467W        W44276   0.610   0.185   2.975 -0.3644 -0.1384 -0.0016
28468W        W44277   2.019  15.364   0.688 -0.2154  0.2541  0.1247
28469W        W44278  16.604   4.864   0.239  0.3213  0.0888  0.3311
28470W        W44279  10.442   9.589  12.834  0.1152  0.1435  0.1982
28471W        W44280   9.318  13.396  11.643  0.0617  0.2704 -0.1045
28472W        W44281   4.961  18.039  11.939  0.1099 -0.0545 -0.0446
28473W        W44282   8.293  11.453   2.826  0.3941  0.1932 -0.1227
28474W        W44283   2.230  13.248  14.165  0.0533  0.0120 -0.1064
28475W        W44284  10.512   6.259   0.469 -0.0939 -0.3267 -0.0417
28476W        W44285   0.536   2.682   3.305 -0.2515  0.0414 -0.1558
28477W        W44286  12.342  15.895  14.861  0.1676  0.0151 -0.1327
28478W        W44287   8.408  17.662  10.811 -0.0952 -0.2208  0.1687
28479W        W44288   3.381  12.659  11.871 -0.1977  0.1291  0.2367
28480W        W44289  17.062   1.910   3.308  0.0108  0.0519 -0.2208
28481W        W44290   6.350  12.261  15.412 -0.2110  0.1562  0.1883
28482W        W44291   8.658  13.770   3.166 -0.0275 -0.1813 -0.0267
28483W        W44292  16.282   0.251   1.422 -0.2162 -0.2327 -0.0971
28484W        W44293  16.929   0.489   4.400 -0.1242  0.0730  0.0472
28485W        W44294  16.005   2.684  14.894  0.1048 -0.0291 -0.1132
28486W        W44295  11.622   1.521  11.369  0.2538 -0.0063 -0.0491
28487W        W44296  12.549   2.511   0.509  0.0700  0.1360 -0.0437
28488W        W44297  16.444  16.983  15.527  0.4337  0.0689  0.0181
28489W        W44298   7.176  13.813   1.357 -0.4127 -0.3885  0.3356
28490W        W44299   7.809   2.608   0.156 -0.3984  0.0391 -0.2399
28491W        W44300   5.154   9.185   2.464  0.0672 -0.0781 -0.1103
28492W        W44301  14.535  10.331   2.002 -0.2941 -0.2404 -0.0008
28493W        W44302   3.978  10.685  15.385  0.0530 -0.0926 -0.3589
28494W        W44303   4.123   5.783  12.297  0.1437 -0.0427  0.2246
28495W        W44304   0.539   6.491  11.750  0.0321  0.0059  0.0647
28496W        W44305  16.334  16.240  14.387  0.3489  0.2761  0.1979
28497W        W44306   1.814   1.049  10.759 -0.1045 -0.1092  0.1213
28498W        W44307   3.716  14.120   0.894 -0.1792  0.1072  0.0270
28499W        W44308   5.953  14.679   1.213 -0.0943 -0.0583 -0.0102
28500W        W44309  16.048   1.425  10.040 -0.1898  0.1536  0.0600
28501W        W44310  13.741  17.235   2.919 -0.1988  0.1041 -0.5011
28502W        W44311  14.111  12.075  14.879 -0.0269  0.1350 -0.1036
28503W        W44312  12.377   0.554  13.003 -0.0454  0.2206 -0.0619
28504W        W44313   3.867   1.900   5.226 -0.1594 -0.1027 -0.2225
28505W        W44314   9.923   5.191  15.300 -0.1235  0.0128 -0.1382
28506W        W44315  11.948   8.561   0.654  0.0213  0.0521  0.1294
28507W        W44316  10.213   1.942   5.041  0.0088  0.1216 -0.0573
28508W        W44317  16.934  13.894  13.983  0.1054  0.1158  0.4168
28509W        W44318   9.245  14.407   4.386 -0.1965 -0.1512  0.1390
28510W        W44319   2.350  16.366  12.548  0.2434 -0.4044 -0.2303
28511W        W44320   7.355   0.722  12.652  0.0516  0.2763  0.0987
28512W        W44321   5.952   3.681   3.813  0.2573  0.2765 -0.2009
28513W        W44322  15.854   5.028  15.522 -0.1439 -0.2240  0.2215
28514W        W44323  10.866   2.343  14.497 -0.1029 -0.0468 -0.1632
28515W        W44324  14.408   4.125   2.003 -0.0598  0.1598  0.3325
28516W        W44325  17.542   0.284  15.009 -0.2061 -0.1271 -0.0766
28517W        W44326   5.140  12.303  13.176 -0.1538  0.0548 -0.0078
28518W        W44327  16.612  12.016   2.992  0.1119  0.0340  0.2287
28519W        W44328   7.365   3.528   0.131 -0.2487 -0.2029 -0.0745
28520W        W44329   5.782   4.450   3.771  0.1975  0.0445 -0.1508
28521W        W44330   1.679  16.025   1.170 -0.3403  0.1198  0.1649
28522W        W44331  11.302   0.892  15.221  0.0354  0.1416 -0.2731
28523W        W44332   1.027   0.395  11.480  0.0279  0.2279  0.1032
28524W        W44333  10.417   4.448   4.690  0.0990  0.0224  0.0810
28525W        W44334  11.089   4.852   2.215  0.0501 -0.0389  0.0055
28526W        W44335  12.821   5.612  12.846  0.1798  0.0392 -0.0614
28527W        W44336   4.835  10.889   2.782 -0.0663 -0.1330 -0.0998
28528W        W44337  14.448   6.065  12.322 -0.0764 -0.1834 -0.0605
28529W        W44338  11.722   9.400   1.671 -0.1755  0.0034 -0.2889
28530W        W44339   1.213  13.088   1.317  0.1368  0.0405  0.0254
28531W        W44340   6.086  16.917  14.998  0.0257  0.1297 -0.0575
28532W        W44341   4.967  12.877  14.988 -0.0701  0.2801 -0.0341
28533W        W44342  10.636   4.190  13.940 -0.3578  0.1989 -0.0795
28534W        W44343  12.736  10.253  11.149  0.0313  0.1400  0.0909
28535W        W44344   3.197   7.344   2.476 -0.2005 -0.1620  0.0548
28536W        W44345   6.784   3.814  12.934  0.0604 -0.2797  0.1009
28537W        W44346  10.928   1.353  14.391 -0.1814  0.2017  0.0492
28538W        W44347  13.717   6.952   2.936  0.0901 -0.0564  0.1038
28539W        W44348   3.378   4.244   1.537  0.2612 -0.2800 -0.0116
28540W        W44349  10.638  14.192  15.708 -0.1976  0.1419 -0.4938
28541W        W44350   2.742  13.536   2.345 -0.0482  0.1167  0.0641
28542W        W44351   2.915   7.034   5.877 -0.4337 -0.0353  0.2082
28543W        W44352   8.693  15.781  12.315 -0.1760 -0.1753 -0.2009
28544W        W44353  12.277   9.568   5.725 -0.0799 -0.3043 -0.1389
28545W        W44354  16.537   2.789  14.599  0.0023 -0.2044  0.0128
28546W        W44355   9.924   9.421  14.108  0.2341  0.1529  0.3511
28547W        W44356  10.316   2.812   3.019  0.0608 -0.0014 -0.0344
28548W        W44357   9.534   7.509  13.562 -0.1549 -0.2217  0.1262
28549W        W44358   5.959   5.086  10.773 -0.0669 -0.0583  0.0992
28550W        W44359   3.352  15.012  11.405 -0.3091 -0.3335 -0.3265
28551W        W44360   2.477   1.403   0.518 -0.1982  0.1316  0.1297
28552W        W44361  12.154  17.355   4.006 -0.0212  0.0203  0.3689
28553W        W44362  12.639  11.654   2.139  0.2838  0.1214 -0.1136
28554W        W44363   2.268  10.424  13.539 -0.2118  0.2466  0.0315
28555W        W44364  13.319   5.293   1.378  0.2919 -0.1353  0.3596
28556W        W44365   0.796   5.329   3.092  0.2639 -0.0088  0.0452
28557W        W44366  15.744  15.740  12.844 -0.1083  0.2356  0.0227
28558W        W44367  15.583  18.433  12.903  0.0301 -0.0868 -0.2421
28559W        W44368   5.711   6.468   2.164  0.1190  0.0485  0.0136
28560W        W44369  12.713  14.561  15.475  0.0509 -0.1532 -0.2055
28561W        W44370  10.630   6.628  14.020  0.3896 -0.0462 -0.0345
28562W        W44371   4.897   9.089   4.740 -0.2444 -0.3214 -0.3822
28563W        W44372   9.681   5.648   3.918 -0.0034 -0.3096  0.0856
28564W        W44373  11.613   0.880  14.729  0.2027 -0.1771  0.1306
28565W        W44374   5.018  10.283   4.014 -0.1331 -0.0039 -0.4264
28566W        W44375  14.012   5.422   4.790  0.1421 -0.3185 -0.1019
28567W        W44376  13.720  10.981  12.942  0.0456  0.1325 -0.2094
28568W        W44377   6.591  14.595   4.637 -0.0205 -0.1366  0.0670
28569W        W44378  13.384  12.763   4.176  0.0245  0.0589 -0.2810
28570W        W44379  14.313   4.731   3.699  0.1514  0.2765 -0.1610
28571W        W44380   6.726   6.803   1.394 -0.0958  0.3121 -0.3252
28572W        W44381   3.175   9.111  14.334  0.3480  0.0836  0.0251
28573W        W44382   6.208   1.075  13.114 -0.0212  0.0950 -0.1441
28574W        W44383   4.480   9.612   3.281 -0.0786  0.2288  0.1227
28575W        W44384   6.593  16.853   1.843  0.1860 -0.3476 -0.2338
28576W        W44385  17.692   8.697   0.303  0.0356  0.0398  0.0241
28577W        W44386   1.011   1.231  13.947 -0.1181 -0.1385 -0.1508
28578W        W44387   4.067  11.990   5.771  0.2196 -0.1961 -0.1684
28579W        W44388   8.847   2.250   3.726  0.2133  0.1874  0.1650
28580W        W44389  17.692  11.209  14.960  0.1738 -0.1813 -0.1489
28581W        W44390   3.334   2.468  14.810  0.1207 -0.1543  0.0026
28582W        W44391   9.171   7.713  12.019  0.0685  0.0805 -0.1666
28583W        W44392  16.543  16.866  11.074 -0.2654 -0.2743 -0.0246
28584W        W44393  14.609  10.915  12.723 -0.0068 -0.2309 -0.0650
28585W        W44394  18.237   4.516  13.801 -0.0180 -0.0674  0.3527
28586W        W44395   8.198   0.798  12.177  0.0099  0.0573 -0.0645
28587W        W44396   2.082   6.559   5.384 -0.0450 -0.0602  0.1133
28588W        W44397  12.113   1.695  15.751  0.0060  0.0714 -0.2145
28589W        W44398  11.695  14.276   1.081  0.0907 -0.0291 -0.0086
28590W        W44399  12.977   6.386  11.062 -0.1725 -0.3127 -0.1232
28591W        W44400   7.550  13.628  13.761  0.0684  0.1766  0.5949
28592W        W44401  13.141  17.107   2.841 -0.3951  0.1085 -0.2680
28593W        W44402  10.056   4.123   5.578  0.0271  0.0488 -0.2400
28594W        W44403  15.765   0.338   1.390  0.0258  0.0551 -0.2294
28595W        W44404   6.894  16.726   3.142 -0.1019 -0.0014  0.1008
28596W        W44405  15.285   3.888   0.820  0.2442 -0.0959 -0.1316
28597W        W44406   2.861  16.394  14.882 -0.0380  0.0250 -0.3677
28598W        W44407   9.653   7.781  12.193 -0.2254 -0.1675  0.3446
28599W        W44408   9.127   3.399   0.591 -0.0815  0.0680  0.0481
28600W        W44409  17.401   4.139  14.549 -0.1099 -0.0396 -0.0003
28601W        W44410  10.969  16.577   4.467 -0.3069 -0.0051  0.1785
28602W        W44411  12.168  12.926   2.088 -0.1077  0.0062 -0.1430
28603W        W44412  14.139   3.530  11.646  0.0991  0.1356  0.2624
28604W        W44413   3.710   2.183  14.013  0.0582  0.1995  0.2435
28605W        W44414  15.406   4.049   0.347 -0.0564  0.3485 -0.0889
28606W        W44415  14.862   5.460  15.696 -0.1172  0.1836 -0.0613
28607W        W44416  16.725  14.257  12.177 -0.0438 -0.0402 -0.0124
28608W        W44417   4.849   3.828  11.261 -0.1780  0.0652  0.2046
28609W        W44418  13.707  11.082   2.096 -0.1475 -0.0572  0.1327
28610W        W44419   8.933  13.967  13.199 -0.0304  0.3255 -0.0430
28611W        W44420   1.946  13.035   1.110 -0.0862 -0.2179 -0.0180
28612W        W44421   5.288   0.767  15.666 -0.0107 -0.1065 -0.0549
28613W        W44422  18.398   2.368   3.842 -0.0566 -0.3376 -0.0866
28614W        W44423  12.166   4.042   4.610  0.0504  0.1924 -0.4689
28615W        W44424   0.316   5.483   5.127  0.1513 -0.1939 -0.0032
28616W        W44425  18.212   2.208   2.719  0.0489 -0.1109  0.0227
28617W        W44426  16.536  10.869   3.293  0.2061  0.1599  0.1150
28618W        W44427   7.873   3.747  13.177  0.1216 -0.1361  0.1243
28619W        W44428   5.365  17.939  15.639 -0.1455 -0.1762  0.1298
28620W        W44429   7.630  11.566   4.429 -0.4102  0.0741  0.2271
28621W        W44430   0.606  16.510  14.742  0.0803 -0.4291 -0.0263
28622W        W44431  10.049  12.212  14.308 -0.1551 -0.1668 -0.0586
28623W        W44432   9.295  13.835  13.717 -0.3545  0.1734  0.2643
28624W        W44433   3.531  13.294   0.420 -0.2254 -0.2306  0.1495
28625W        W44434  16.746  11.531  14.684  0.1962  0.1525  0.0303
28626W        W44435  13.948   6.743   3.879  0.1857  0.3422 -0.2888
28627W        W44436   8.670  17.752  13.893 -0.0243 -0.0299 -0.1275
28628W        W44437   3.292  14.147   1.146  0.2965  0.2488 -0.0621
28629W        W44438   3.156   1.419  13.693 -0.2503  0.2778 -0.0862
28630W        W44439  12.682   3.069  13.535 -0.2304  0.0895 -0.0283
28631W        W44440  13.161  16.655  13.593  0.3903 -0.0361 -0.0881
28632W        W44441  14.694   1.091   3.005  0.1217  0.3963 -0.3617
28633W        W44442   1.635   1.841  11.022  0.2074  0.1959  0.0484
28634W        W44443   2.561   7.025  15.462 -0.2663 -0.0196 -0.1435
28635W        W44444   4.635  13.661   5.301 -0.0799 -0.0168  0.1755
28636W        W44445   3.477   7.793   0.149  0.1020  0.0993 -0.0784
28637W        W44446   3.468  12.708  15.662 -0.1855 -0.0565 -0.0985
28638W        W44447   2.080   4.394  12.093 -0.0299 -0.1936  0.0398
28639W        W44448  11.396   5.381   1.522  0.0148 -0.1586 -0.3100
28640W        W44449   8.019   1.750  14.527 -0.2618 -0.1150  0.1209
28641W        W44450   9.535   9.924   5.563  0.2288 -0.1392 -0.0461
28642W        W44451   9.579  17.665  14.710  0.0662  0.1175 -0.0571
28643W        W44452   5.924  17.194  15.800  0.0903 -0.0171 -0.0086
28644W        W44453   5.742   4.077   2.623 -0.0558 -0.2915  0.3587
28645W        W44454   6.452   9.771   4.507  0.1665 -0.1456  0.0667
28646W        W44455   6.535   8.553   3.734  0.0614  0.0357 -0.1090
28647W        W44456   3.390  14.568   5.110 -0.0578  0.0259  0.0875
28648W        W44457  12.734   7.365   1.573 -0.1372  0.2056  0.0194
28649W        W44458  11.356  17.317  12.342  0.0992 -0.1521 -0.2797
28650W        W44459   2.062  16.517   3.686 -0.1130 -0.0747 -0.1250
28651W        W44460  15.238  17.346   3.017  0.0270  0.0834 -0.0666
28652W        W44461  13.133   1.291   5.328 -0.2236  0.2309 -0.1184
28653W        W44462  14.918   1.895  14.338  0.1991 -0.3178 -0.0142
28654W        W44463   8.313   8.378   2.893 -0.1456  0.0875 -0.1479
28655W        W44464  17.953   2.716  15.573  0.1274  0.0247  0.0576
28656W        W44465  14.933   3.295   4.699  0.1261  0.2917 -0.3272
28657W        W44466   0.876   2.855   2.023  0.0808 -0.0254  0.1580
28658W        W44467   6.189  15.328   0.069 -0.1784  0.0357  0.1679
28659W        W44468  13.938   2.025   3.652 -0.0761  0.3027 -0.2679
28660W        W44469  17.064  17.853   4.027 -0.0522  0.2042  0.2704
28661W        W44470  12.285   4.923   4.832  0.0770  0.0228 -0.0513
28662W        W44471   2.662  12.344   4.901  0.0050 -0.0894 -0.2028
28663W        W44472   4.725  12.637   0.165  0.3436  0.0517 -0.2011
28664W        W44473  12.751   7.846   1.215 -0.0190  0.0282  0.0406
28665W        W44474   6.103  10.096  12.960 -0.0296  0.1170  0.1652
28666W        W44475   9.258  12.944   5.832  0.0527 -0.4897 -0.1589
28667W        W44476  15.631  12.275   2.396  0.1777  0.1419 -0.1431
28668W        W44477  12.059   0.027   0.057  0.0017  0.0290 -0.1456
28669W        W44478  17.268   2.677   2.654  0.1258  0.1763  0.4813
28670W        W44479  14.026   5.526  13.057 -0.0174 -0.0439  0.1172
28671W        W44480   2.178   7.307  15.334  0.1821 -0.0917 -0.1905
28672W        W44481   0.062  11.659  14.769  0.0241  0.1238  0.2428
28673W        W44482   1.318  11.351  15.225 -0.0415  0.2370  0.1121
28674W        W44483  11.233   6.834  11.526 -0.2859  0.2551 -0.3554
28675W        W44484   3.811   3.665   3.601  0.1355  0.0927 -0.0454
28676W        W44485   4.872  11.363  15.117  0.3393  0.0438  0.0980
28677W        W44486  11.257   0.672   2.025  0.1042  0.2710  0.0708
28678W        W44487  12.368   8.523   1.725 -0.1181 -0.0518  0.0504
28679W        W44488  16.172   3.172   4.595  0.3558  0.0272 -0.0633
28680W        W44489   4.114  10.631  11.518 -0.2535  0.2554  0.0966
28681W        W44490  16.189   1.484   3.170  0.2313  0.0467 -0.3243
28682W        W44491  12.360  17.679   1.983 -0.1280  0.0015 -0.1843
28683W        W44492  13.210  15.755  13.876  0.2191 -0.0982 -0.1285
28684W        W44493   5.239  15.426  14.900 -0.0022  0.1343  0.0598
28685W        W44494  14.187   5.486  10.360  0.1323 -0.2355 -0.1475
28686W        W44495  16.771  10.913   4.980 -0.0520 -0.0160 -0.0302
28687W        W44496   3.828   8.691  14.859 -0.0155  0.0984  0.1049
28688W        W44497   1.741   1.347   1.207 -0.0622  0.1905 -0.0011
28689W        W44498   4.156  16.396  14.280 -0.0873  0.2612 -0.1886
28690W        W44499  18.388   0.258   1.781  0.1758  0.1604  0.0235
28691W        W44500  10.053   7.019   2.897 -0.4539  0.1424 -0.0517
28692W        W44501   2.885  10.017  11.037 -0.3674  0.0993  0.3353
28693W        W44502  15.016   3.008  12.737 -0.1096 -0.4730 -0.1047
28694W        W44503  13.303   3.819   5.162 -0.1686  0.0343  0.5605
28695W        W44504  12.567   8.670  15.759  0.1148  0.1996  0.1526
28696W        W44505   8.211   2.322  10.099  0.0445  0.1362 -0.1357
28697W        W44506   3.683  12.621   1.653  0.1616  0.2566 -0.1517
28698W        W44507   4.515   7.386   5.487 -0.2966 -0.3790  0.2217
28699W        W44508   7.173  13.340   5.944  0.0408  0.0830 -0.3445
28700W        W44509  10.845   2.315   0.899  0.2543 -0.2311 -0.0726
28701W        W44510  10.499  13.010   2.745  0.1838 -0.1231 -0.0403
28702W        W44511   3.876   7.953  14.333 -0.2751 -0.0851 -0.0532
28703W        W44512  10.248  12.730  15.803  0.0339  0.1116  0.0079
28704W        W44513   6.152  14.676   5.212 -0.1422  0.3281  0.3738
28705W        W44514  15.861  10.633   5.364 -0.2063  0.0553 -0.0427
28706W        W44515   5.607  15.976   3.023  0.1235 -0.0228  0.1635
28707W        W44516  18.393  17.560  12.416 -0.1016 -0.2347 -0.2510
28708W        W44517  13.139   3.002  14.407 -0.0000  0.0753 -0.1687
28709W        W44518   7.411   8.693  11.656  0.3791 -0.0059 -0.0232
28710W        W44519   9.907  14.377  12.533  0.2371 -0.1570 -0.0733
28711W        W44520   1.950  13.078  12.899  0.1995 -0.2411 -0.1100
28712W        W44521  11.983  17.494   1.497 -0.1823  0.1383 -0.0012
28713W        W44522   2.209   6.978   5.082  0.0083  0.2563 -0.1304
28714W        W44523   5.069   5.624   5.311 -0.0257  0.0180  0.1640
28715W        W44524   3.953   1.121  11.533  0.2552 -0.3073  0.1677
28716W        W44525   2.647   1.967  15.659 -0.1082 -0.1103  0.2135
28717W        W44526  10.835   5.917  13.087  0.0867  0.1504 -0.0396
28718W        W44527   5.109   0.544   2.576 -0.0752  0.0313  0.0735
28719W        W44528   3.123  17.139  15.558 -0.0742  0.1886 -0.2647
28720W        W44529  11.539   0.237  13.426  0.1699 -0.1753  0.0704
28721W        W44530  14.775   3.176  14.613 -0.0918  0.0434 -0.0747
28722W        W44531   2.067  13.364  13.373 -0.0706 -0.3154  0.0859
28723W        W44532   7.434   6.209   2.417  0.2757  0.0112 -0.0507
28724W        W44533   8.243   1.520  14.080 -0.0680  0.1589  0.1736
28725W        W44534  15.246  14.061  15.321  0.1504  0.2267 -0.0897
28726W        W44535  15.226   8.612  15.388  0.1372  0.1643 -0.2681
28727W        W44536   5.058   7.288   1.793  0.1758 -0.2423  0.0808
28728W        W44537   4.536  14.295   1.741 -0.0644  0.0932  0.2800
28729W        W44538  12.438   7.568  14.562 -0.2113 -0.0394 -0.0456
28730W        W44539   9.450   8.661  14.946 -0.2083  0.0542  0.1650
28731W        W44540   6.376   0.093  15.540  0.0976  0.2062 -0.2137
28732W        W44541  13.049   0.341  12.956  0.1565 -0.0138 -0.0534
28733W        W44542   2.346   3.796   2.272  0.0589  0.2334 -0.2041
28734W        W44543   7.719   0.327   4.179 -0.1362  0.1663  0.2445
28735W        W44544  16.406  14.753   5.122 -0.0798 -0.2565  0.0721
28736W        W44545   3.373  15.238  10.952  0.2160  0.0840  0.2626
28737W        W44546   9.246   9.940   4.311 -0.2437  0.1553 -0.1748
28738W        W44547  13.676   4.190   5.255  0.0193  0.1561  0.1335
28739W        W44548  17.737  16.241  10.642  0.0321  0.4805 -0.0992
28740W        W44549  14.743   9.123  11.126 -0.0593  0.2226 -0.2022
28741W        W44550   1.807   1.830   3.532  0.1593  0.0482  0.0690
28742W        W44551  16.977   5.239   5.244 -0.1252  0.1429 -0.2131
28743W        W44552  13.629  14.765  11.856  0.0578  0.2273  0.0837
28744W        W44553  15.694   5.045   3.269  0.1163 -0.1181  0.2975
28745W        W44554   0.540  16.203   4.173 -0.2784  0.1009  0.5175
28746W        W44555   4.933   8.054  15.469  0.2221  0.1054  0.0401
28747W        W44556  16.865   8.219   2.574  0.2446 -0.1909 -0.2433
28748W        W44557   9.910  13.198  14.586  0.0052  0.1456  0.2075
28749W        W44558  11.287  16.683  11.760  0.2032 -0.1841 -0.0086
28750W        W44559  10.826   3.404  14.496 -0.1816  0.0895 -0.0274
28751W        W44560  14.327  11.737   0.949  0.0393 -0.0134  0.0814
28752W        W44561  12.398   3.580   4.867 -0.0554  0.0598 -0.1931
28753W        W44562   2.570  15.431   4.647 -0.0211  0.2381  0.0745
28754W        W44563  12.906  16.782  12.420 -0.6092  0.0165 -0.1937
28755W        W44564   5.185  10.404  15.455  0.2430 -0.1083 -0.2083
28756W        W44565  14.219  11.642   5.471  0.0227  0.1605  0.0221
28757W        W44566  16.638   0.263  11.612 -0.2318 -0.0666 -0.1449
28758W        W44567   7.362   2.282  12.634 -0.0512  0.0429 -0.0281
28759W        W44568   3.149   8.537   4.572  0.0659  0.1980  0.0040
28760W        W44569   5.868  18.063   1.994 -0.0131 -0.2651  0.1933
28761W        W44570  15.205   9.982   0.700 -0.1295  0.3182 -0.2288
28762W        W44571  12.856  10.701   4.929  0.0974  0.3543  0.3658
28763W        W44572  14.887  15.894  14.101 -0.3801  0.0254 -0.3336
28764W        W44573   6.643   4.618   9.954 -0.0264 -0.0689  0.1118
28765W        W44574  12.590  13.284   5.690 -0.0261  0.1647  0.1365
28766W        W44575  15.285   7.763   2.804 -0.2634 -0.2187 -0.1962
28767W        W44576   5.821   8.169   0.144  0.0907  0.1117 -0.0288
28768W        W44577   8.432   4.874   4.243 -0.1494  0.1884 -0.0943
28769W        W44578   3.230  14.774   1.976  0.1947  0.1471 -0.3556
28770W        W44579   0.749  11.799  14.236  0.0196 -0.0162 -0.1738
28771W        W44580  11.533   0.640  11.091  0.2187 -0.1039  0.0640
28772W        W44581   3.617   6.192  15.499 -0.0710  0.1260 -0.1176
28773W        W44582  16.332  16.852   4.909 -0.0429  0.0201  0.0879
28774W        W44583   3.538   8.103  10.947  0.3243 -0.2373  0.1374
28775W        W44584  13.036  15.339  15.133 -0.0735 -0.1771 -0.0014
28776W        W44585   0.616  12.066  11.290  0.1719  0.0572 -0.0704
28777W        W44586  13.402  12.499  12.119 -0.0853 -0.0346 -0.0994
28778W        W44587   3.093  12.026  11.407  0.0079  0.2076  0.1983
28779W        W44588  16.965   6.931   1.444 -0.0175  0.2416 -0.0027
28780W        W44589   5.699   6.805   4.849 -0.1156  0.0503 -0.0695
28781W        W44590   1.835   1.312  15.441 -0.2929  0.0214  0.0205
28782W        W44591   7.422   3.346   4.121  0.1118  0.1793 -0.0042
28783W        W44592   5.437   6.671  10.849 -0.0878  0.1495 -0.2416
28784W        W44593  11.102   3.126  13.188  0.0284 -0.1131 -0.4525
28785W        W44594   4.841   4.997   3.419 -0.1987  0.2546  0.1961
28786W        W44595   2.940  15.741   4.407  0.0770  0.0524  0.1185
28787W        W44596   2.825  16.961   1.200  0.1801  0.1894  0.0819
28788W        W44597   7.090   7.073  11.494 -0.2390  0.4189  0.3897
28789W        W44598   4.013   3.766   1.249  0.1600 -0.2237 -0.1809
28790W        W44599  16.330  11.239  14.723  0.0462 -0.0233 -0.2982
28791W        W44600  14.983   2.809  11.826 -0.2413 -0.0844  0.0480
28792W        W44601  12.175  12.844  13.960 -0.1669 -0.0784 -0.3659
28793W        W44602   5.018  10.337   0.104  0.1628  0.5743  0.2144
28794W        W44603  17.441  11.398  13.611  0.2406 -0.0357 -0.1830
28795W        W44604   2.019  15.100   2.609  0.1255  0.0757  0.2073
28796W        W44605   9.697   6.041   3.420  0.0893  0.0815  0.2775
28797W        W44606   3.604   1.032  13.042  0.2299  0.1652 -0.2395
28798W        W44607   4.441  11.799   1.351  0.1268  0.2193 -0.1352
28799W        W44608   6.192   8.535  15.248 -0.0090  0.0156 -0.3459
28800W        W44609  15.160  12.614   1.108 -0.0954 -0.0535 -0.0395
28801W        W44610   7.034   2.126   2.964 -0.2975  0.3034  0.2366
28802W        W44611  13.480  16.410  15.049  0.3273  0.0027 -0.2633
28803W        W44612   5.982   5.218   1.739 -0.2100  0.0829 -0.0174
28804W        W44613  15.433  11.051   4.190 -0.1633 -0.1814 -0.0039
28805W        W44614  11.462   9.452  12.690  0.0217  0.0075 -0.0285
28806W        W44615  18.301  12.565   4.224 -0.1698 -0.0357  0.2243
28807W        W44616  12.592  13.210   3.853  0.0315  0.0997 -0.2334
28808W        W44617   2.509  13.516   5.400 -0.0057  0.0117  0.0373
28809W        W44618   1.203  11.159  10.394  0.1512 -0.0661  0.0809
28810W        W44619   9.106  15.996   2.511  0.4079  0.1046  0.0533
28811W        W44620  11.434   7.520   2.071 -0.1253 -0.1524 -0.0286
28812W        W44621   8.441   2.904   4.374  0.1039 -0.2353 -0.0263
28813W        W44622   5.222  13.181   2.815  0.3518  0.0653 -0.2957
28814W        W44623   8.280  17.295   3.838  0.0474  0.0583  0.0392
28815W        W44624   5.252  14.018   3.484 -0.0810 -0.2290 -0.0135
28816W        W44625   1.390   7.884   4.550 -0.0395 -0.1020  0.2629
28817W        W44626   7.912  15.058  14.748 -0.1833  0.0635  0.1483
28818W        W44627  10.246   1.316   1.158  0.0024 -0.3070 -0.1793
28819W        W44628   8.516  11.492   5.052  0.0606  0.0174  0.0495
28820W        W44629  17.133   0.687  13.159 -0.0929 -0.2992  0.1331
28821W        W44630   2.076  18.429  12.309 -0.0669 -0.0468  0.2048
28822W        W44631   0.697  17.202   3.836  0.1365  0.2589  0.0447
28823W        W44632   6.118  17.338  10.723 -0.0015 -0.1131  0.0323
28824W        W44633   0.750  16.324   2.699  0.3469  0.0444 -0.1160
28825W        W44634  11.789  15.421   5.265 -0.2205  0.0164 -0.0486
28826W        W44635  12.545   1.901  12.973  0.0792  0.0711 -0.1344
28827W        W44636   4.144   8.907  12.721 -0.3601  0.1138 -0.0090
28828W        W44637  15.100   3.922  12.769 -0.3136  0.1502  0.0606
28829W        W44638   9.579  12.064  15.176 -0.2361 -0.2918  0.0095
28830W        W44639  15.264   8.590  12.745 -0.2153 -0.0888  0.0035
28831W        W44640   0.227   0.154  14.315 -0.2001  0.0861  0.0140
28832W        W44641   1.901   1.386  13.801 -0.1324 -0.2384  0.2093
28833W        W44642  15.094  11.520   4.778  0.0532 -0.1882 -0.1204
28834W        W44643  14.404  17.369  15.538  0.2132 -0.1899 -0.3263
28835W        W44644  11.038   7.275   3.327 -0.1697  0.0242  0.1518
28836W        W44645  13.305   4.547   3.584  0.2672  0.0578  0.2929
28837W        W44646  11.338  16.532   0.048 -0.0112  0.0423  0.0366
28838W        W44647   5.978  12.290   1.525 -0.1394 -0.0890 -0.0445
28839W        W44648   3.029  18.162   2.016  0.1049 -0.1701  0.2309
28840W        W44649  13.381   5.095   2.620  0.0545  0.2081  0.3144
28841W        W44650  11.125  17.799  13.184  0.0955 -0.1731  0.1116
28842W        W44651  15.074  14.622   3.927  0.1842  0.1665  0.0117
28843W        W44652   3.886  12.046  12.597  0.2436 -0.1701  0.0569
28844W        W44653   9.052  16.317  13.754  0.0699 -0.1182  0.0861
28845W        W44654   7.502   3.094  14.834 -0.0653 -0.0468 -0.2687
28846W        W44655  15.837  10.707  14.211 -0.0239  0.1774  0.0387
28847W        W44656   3.503  16.482  14.158 -0.0995  0.1424  0.1672
28848W        W44657  16.736   0.480   1.157  0.0388  0.2427 -0.2955
28849W        W44658  10.663   8.732  12.325  0.0271 -0.3562 -0.1117
28850W        W44659   3.477   5.666   1.159 -0.2889  0.0646  0.1823
28851W        W44660   3.955   2.972  10.733 -0.2045  0.2501 -0.0405
28852W        W44661  13.275   3.331  10.845 -0.0043  0.3780 -0.1515
28853W        W44662  11.336   7.327  11.435 -0.2231 -0.0290 -0.0930
28854W        W44663   3.164  12.568  13.482  0.3511 -0.1552 -0.0830
28855W        W44664  16.877   4.566   4.674 -0.3762  0.2894 -0.1367
28856W        W44665   9.083  13.070   4.629 -0.2668  0.1682 -0.2642
28857W        W44666  14.981   1.729   5.065  0.2606  0.0752  0.1527
28858W        W44667   4.139   2.310   3.026  0.1998 -0.0451  0.3255
28859W        W44668  10.605  16.155  10.575 -0.3178  0.0902  0.1874
28860W        W44669  13.763   7.884  10.924 -0.0548  0.1334 -0.1314
28861W        W44670   8.116   4.118  10.668 -0.0175 -0.1209  0.0197
28862W        W44671  15.808   7.325  13.530  0.1403  0.0347  0.0215
28863W        W44672  10.803   6.579  10.877  0.0318  0.4208  0.0477
28864W        W44673  11.807   3.763   3.955  0.2706 -0.0555  0.0393
28865W        W44674  12.297   7.764   0.797  0.2814  0.0485 -0.2966
28866W        W44675  17.959  11.235   1.460  0.1211 -0.2058 -0.0553
28867W        W44676   8.915   4.282  15.187  0.2246  0.0050 -0.2136
28868W        W44677   8.830  16.455  14.210 -0.5461 -0.0101 -0.1269
28869W        W44678  10.375  10.672  15.489  0.0279 -0.0063  0.2422
28870W        W44679   7.415  11.664   3.850 -0.0545 -0.0957  0.0163
28871W        W44680   0.477  18.347  11.111 -0.0571  0.0793 -0.1103
28872W        W44681   7.927  17.729   2.127 -0.0687 -0.3684 -0.1280
28873W        W44682  17.974   0.854   1.263  0.0135 -0.0052  0.0902
28874W        W44683  13.991  10.173   0.606 -0.1753  0.2834 -0.2786
28875W        W44684  13.596  17.905   5.578 -0.0087 -0.1879  0.1100
28876W        W44685   5.413   2.548  15.626  0.1674  0.1336 -0.2233
28877W        W44686   3.164  16.227   3.088  0.1645 -0.1263 -0.0189
28878W        W44687   3.724  16.176   0.344  0.2502  0.2627 -0.2118
28879W        W44688  18.119  11.342   0.024 -0.0701  0.3009 -0.1757
28880W        W44689   6.822  13.554   2.721 -0.2397 -0.1096  0.5333
28881W        W44690   3.488   5.795  15.678  0.0486 -0.1069 -0.3026
28882W        W44691   7.796   0.720   4.486  0.1728 -0.3852  0.2180
28883W        W44692  16.155  12.636  12.769  0.0066  0.0783  0.0186
28884W        W44693  17.497   9.446   1.767  0.0467  0.2596 -0.0549
28885W        W44694  10.164   6.628  14.570 -0.1507 -0.0298 -0.1153
28886W        W44695   2.616  10.284  14.031  0.0581  0.0821  0.1900
28887W        W44696  16.004  10.782   3.517 -0.2459 -0.2115  0.1552
28888W        W44697  14.672  12.571   2.764  0.1654  0.0464 -0.0359
28889W        W44698   7.603  17.151   5.540 -0.3134  0.0260  0.1598
28890W        W44699  12.507  18.186  15.743 -0.0419  0.0936 -0.0149
28891W        W44700  12.826   0.020  13.301 -0.3222 -0.0494 -0.0682
28892W        W44701   7.802   1.459   4.078 -0.0672 -0.1176 -0.0370
28893W        W44702   8.950  10.855   4.384  0.0127 -0.0325  0.0278
28894W        W44703   8.061   1.861   4.955  0.2473 -0.2289  0.2082
28895W        W44704   0.328   2.607  13.613  0.2011  0.0071  0.2827
28896W        W44705   3.090   5.812   1.463 -0.0247 -0.2664 -0.1646
28897W        W44706   4.519  11.754  14.998 -0.1829 -0.1520  0.0133
28898W        W44707   0.468   0.877  12.605  0.0779 -0.0793 -0.0903
28899W        W44708  14.042  10.878   3.073  0.1938 -0.0363  0.2087
28900W        W44709   0.220   3.917  14.971 -0.0633  0.2972  0.1829
28901W        W44710  12.532   6.180   2.327  0.4180  0.1903  0.2007
28902W        W44711  16.274   4.984   1.126  0.1652  0.0736  0.1243
28903W        W44712  14.316  11.247  11.833 -0.0786 -0.3374  0.2447
28904W        W44713  12.148  15.237  11.092  0.0972  0.1644 -0.0505
28905W        W44714   0.137   5.285   1.391  0.0009  0.0572 -0.0580
28906W        W44715  17.554  10.870   2.834 -0.0445  0.2966 -0.0225
28907W        W44716  14.162  18.050   0.849 -0.0888 -0.1067  0.2763
28908W        W44717  17.446  15.784   5.198 -0.0805 -0.1037  0.0702
28909W        W44718   6.639   7.581  11.358  0.2619  0.1035  0.0878
28910W        W44719  15.223  16.253  13.713 -0.0154 -0.1167  0.0593
28911W        W44720   4.082   1.519   1.317  0.1508  0.0586 -0.2585
28912W        W44721   6.459  11.747  10.038 -0.0753  0.4811 -0.2099
28913W        W44722   8.866  15.604   3.559 -0.1315 -0.0594  0.0570
28914W        W44723   1.489   3.104   5.082 -0.2045  0.3080  0.0997
28915W        W44724  16.676  15.652   3.023  0.0822 -0.0499 -0.0276
28916W        W44725   7.631  10.707  12.970  0.0585  0.1064  0.1135
28917W        W44726  18.036   0.995  11.573 -0.1668  0.0429 -0.4702
28918W        W44727   3.297  11.269  10.736  0.4025  0.0406  0.1854
28919W        W44728   4.853  16.813   3.296  0.0132 -0.0107  0.1149
28920W        W44729   6.799   9.387  13.911 -0.0524 -0.0313 -0.1817
28921W        W44730  10.953  16.088  13.655  0.2824 -0.1098  0.2152
28922W        W44731  13.200  10.177  14.576 -0.0950  0.0511 -0.0015
28923W        W44732  17.899  16.829  15.552 -0.1230  0.1186  0.1369
28924W        W44733   0.186  14.935   5.692 -0.1304  0.1921 -0.3507
28925W        W44734  16.836  10.497  14.215  0.2717 -0.5194  0.0778
28926W        W44735   4.327   5.693   2.020 -0.0460  0.0907  0.0454
28927W        W44736   9.380   4.914   0.643  0.1126  0.1490  0.1733
28928W        W44737  15.300   3.342   2.218  0.0284  0.0726  0.1044
28929W        W44738   0.166   0.930  15.838  0.0680  0.0827 -0.2249
28930W        W44739  14.182   5.996  12.827 -0.0741 -0.2347  0.2406
28931W        W44740   9.462   9.345  14.128 -0.0245 -0.2730 -0.0918
28932W        W44741  11.299  10.799  14.892 -0.1723 -0.0087  0.3079
28933W        W44742   7.387   4.088  14.670  0.0646  0.2024 -0.1385
28934W        W44743  11.554   9.929   1.537 -0.0348 -0.2779 -0.0470
28935W        W44744   4.597  14.168   4.593 -0.0659 -0.2270  0.2696
28936W        W44745  16.075   5.499  15.433 -0.0612  0.2010  0.0506
28937W        W44746  12.106  11.137  13.812 -0.1439 -0.1428 -0.0498
28938W        W44747   9.652   6.601   0.234 -0.1349  0.1639  0.0503
28939W        W44748  17.368  15.918  11.674 -0.2775  0.1450  0.1495
28940W        W44749   4.485   0.763   4.292  0.1227 -0.3367  0.0983
28941W        W44750  12.740   5.024  14.471  0.1622 -0.1590 -0.6342
28942W        W44751   7.620  10.487   4.153  0.0897 -0.3765  0.1597
28943W        W44752   1.364   4.639   5.842 -0.1963 -0.0379 -0.1993
28944W        W44753  14.577  11.329   5.046 -0.1699  0.0702  0.1661
28945W        W44754   3.723   9.885   0.562  0.2869  0.1832 -0.2060
28946W        W44755  11.594  11.370   5.262 -0.1480  0.0078 -0.0231
28947W        W44756  10.424   7.526  12.488 -0.1267 -0.0504  0.2820
28948W        W44757  17.489   1.131  15.704 -0.3017  0.0668  0.0545
28949W        W44758  17.619  14.538  12.553  0.0532  0.1489 -0.0067
28950W        W44759  14.589   1.698  11.974 -0.0328  0.1295  0.2597
28951W        W44760  11.570   4.981  15.320  0.0201  0.3050 -0.0428
28952W        W44761   9.082   9.839   4.779  0.0152 -0.0548 -0.0837
28953W        W44762   3.559   8.853  14.007  0.0611 -0.0634 -0.1068
28954W        W44763   1.718   8.494   5.667  0.2883 -0.0433 -0.1874
28955W        W44764  16.034  17.723   3.340 -0.0291  0.0033 -0.0858
28956W        W44765   9.306  14.812   4.625  0.0378 -0.3471 -0.2426
28957W        W44766   6.393   9.631  13.821  0.2051 -0.1140 -0.0100
28958W        W44767   0.589  16.289   0.450 -0.0081  0.1735  0.2118
28959W        W44768  13.064  10.212   0.810 -0.1931  0.1293  0.2459
28960W        W44769   3.468   5.400   1.570  0.0893  0.0860  0.1063
28961W        W44770  12.129  11.120   2.902  0.3411  0.2178 -0.1005
28962W        W44771   6.844  15.832   1.899 -0.0731  0.0470 -0.0690
28963W        W44772  15.850  16.281  14.616  0.1400  0.2389 -0.0870
28964W        W44773  13.193  12.436   4.505  0.1162  0.1922  0.2355
28965W        W44774  16.632  12.563   2.350 -0.3149  0.3469  0.0500
28966W        W44775  17.485  13.268  14.961  0.2022 -0.1066 -0.0194
28967W        W44776   6.523   5.334  11.686  0.2936  0.1540 -0.0980
28968W        W44777  14.127   0.785   0.247 -0.0011  0.2244 -0.2941
28969W        W44778   2.190   9.956  12.106 -0.1620 -0.1221 -0.3310
28970W        W44779  15.943  13.443   1.277 -0.0265 -0.3608  0.0211
28971W        W44780  13.465  14.646   9.996 -0.3099 -0.0289 -0.3309
28972W        W44781   6.147  12.119  12.928 -0.0409  0.0511 -0.0981
28973W        W44782   0.815  11.862   0.593  0.0268  0.2964  0.2778
28974W        W44783   3.175   7.442  15.633 -0.1069 -0.2310 -0.3307
28975W        W44784   4.668   4.921   1.034  0.2753  0.1093  0.1070
28976W        W44785   4.069  11.630   3.598 -0.0884  0.1138  0.0096
28977W        W44786  10.403  14.610  13.187 -0.2571  0.2264 -0.0317
28978W        W44787   9.468  15.762  12.258 -0.2077 -0.1098  0.0269
28979W        W44788  14.860   2.594  12.260  0.0080  0.1328  0.0048
28980W        W44789  11.903   3.647  15.751 -0.1289  0.1560 -0.0528
28981W        W44790   7.734   6.006   2.765 -0.1566 -0.1515 -0.5025
28982W        W44791   9.381  16.086  11.392 -0.0701 -0.0123  0.1745
28983W        W44792   3.802  13.564   4.261 -0.0021 -0.3573  0.1412
28984W        W44793  15.744  13.654   3.086 -0.2665  0.3035 -0.1240
28985W        W44794   2.085  17.532   2.860  0.3302 -0.0614 -0.4261
28986W        W44795   3.704   4.619  11.007 -0.1325  0.2717  0.1613
28987W        W44796   0.764  15.353  15.402 -0.0138 -0.1773  0.3161
28988W        W44797  10.551   1.100  12.115 -0.1181  0.2428 -0.0936
28989W        W44798  10.615  12.494   4.593 -0.0978  0.1109 -0.0425
28990W        W44799   0.750  14.504  14.401 -0.0264  0.1479 -0.2426
28991W        W44800   5.045   8.898  13.781 -0.0638 -0.2707  0.3312
28992W        W44801  11.327   7.685   5.247  0.1530  0.1005  0.0664
28993W        W44802   7.081   2.761  14.944  0.2523 -0.1343 -0.1734
28994W        W44803   7.783   0.217   4.923 -0.1702 -0.0054  0.2872
28995W        W44804   1.790   9.977   5.701 -0.3524  0.1082 -0.1706
28996W        W44805   1.024   7.636  12.897 -0.4227 -0.0024 -0.1352
28997W        W44806  13.487   8.839  14.643  0.0591 -0.2331 -0.2909
28998W        W44807   5.356   5.715  14.059 -0.0141  0.1702  0.0779
28999W        W44808   2.632  10.004   3.300 -0.1442  0.0306  0.1891
29000W        W44809  14.672  11.455   4.099  0.5249  0.1708  0.0084
29001W        W44810   3.249  10.929   2.303  0.0219  0.5083 -0.1420
29002W        W44811   1.645  12.909  14.340  0.2406  0.1891  0.0937
29003W        W44812  14.270  15.520   3.653 -0.0752  0.0032 -0.0977
29004W        W44813   6.025  16.640  13.820  0.1568 -0.0941 -0.0632
29005W        W44814   4.410  15.202   2.218 -0.0376 -0.2799 -0.1998
29006W        W44815   5.539  13.190  11.225  0.3282 -0.2786 -0.0739
29007W        W44816  12.151   4.452   4.870 -0.1037  0.0826 -0.1509
29008W        W44817  14.042  10.667  11.149  0.0273  0.1157  0.0129
29009W        W44818   3.484  15.694   1.609  0.2170  0.1880 -0.2839
29010W        W44819  14.043   9.977  12.244 -0.0618  0.2150 -0.0097
29011W        W44820   4.091  16.735   4.381 -0.1088  0.0428  0.1773
29012W        W44821  17.570   9.012   5.024  0.5148 -0.2194 -0.1207
29013W        W44822   4.740   2.113  10.929  0.1591  0.1456 -0.1388
29014W        W44823   2.137   5.278   0.076 -0.1691  0.0035 -0.1040
29015W        W44824  16.193   2.595   0.597  0.1716  0.0918 -0.0269
29016W        W44825  15.405   4.393  12.856 -0.2773 -0.0466  0.3216
29017W        W44826   8.015   9.696  15.032 -0.2097 -0.0351 -0.0208
29018W        W44827  10.985  14.323   3.337  0.1142 -0.0477  0.2239
29019W        W44828  11.517   5.131  12.061  0.0910  0.0862 -0.1795
29020W        W44829  13.960  15.106   4.951 -0.2088  0.0263  0.1003
29021W        W44830  16.791   2.288  15.439 -0.1250  0.3842 -0.2364
29022W        W44831  10.360   0.649   1.556  0.3122  0.0366  0.2433
29023W        W44832   9.362  12.507  13.351  0.1981 -0.0430 -0.0665
29024W        W44833  14.016  12.256  13.399  0.0910 -0.1380 -0.0989
29025W        W44834  11.209   5.305  13.396  0.2507 -0.0128 -0.0463
29026W        W44835   4.236   3.929   3.530  0.0879  0.1997 -0.0273
29027W        W44836   9.821   6.964  14.873 -0.1049  0.1043  0.0003
29028W        W44837   2.550   8.753  11.487  0.2389 -0.0387  0.0609
29029W        W44838   9.603   3.206   0.711 -0.0661  0.0036  0.1731
29030W        W44839  14.693   7.148  14.626  0.0729 -0.1038 -0.1380
29031W        W44840   9.785   9.692  15.606  0.2325  0.2114 -0.0036
29032W        W44841  12.439  14.173  13.899  0.0877  0.0483  0.0556
29033W        W44842   7.374  12.228  11.636  0.0752 -0.1501 -0.0332
29034W        W44843   0.739   4.674  11.834  0.1981  0.1541  0.0272
29035W        W44844   2.321  11.025   0.408 -0.1817 -0.1364 -0.1682
29036W        W44845   3.620   8.012  11.835 -0.0391  0.0966  0.3234
29037W        W44846  15.263   6.028   5.515  0.1391 -0.1366 -0.0538
29038W        W44847  17.607   1.429   5.139  0.1073 -0.2089  0.2060
29039W        W44848  13.071  13.597   2.189 -0.0153  0.0613  0.0219
29040W        W44849   1.709   5.602  12.127 -0.2329  0.0500 -0.2055
29041W        W44850  11.224  11.335  14.790 -0.3465 -0.2260 -0.4158
29042W        W44851   3.370  17.459   0.497 -0.0693 -0.1028 -0.1648
29043W        W44852  13.382   9.754  14.385  0.0228 -0.2918 -0.1868
29044W        W44853   7.685  15.287  11.228 -0.0660  0.0636 -0.0536
29045W        W44854   3.855   1.863   1.715 -0.1494  0.3287 -0.0153
29046W        W44855  18.366  18.401   3.439  0.1622 -0.2170  0.2213
29047W        W44856  15.732  11.010  13.794  0.1004 -0.2668  0.3761
29048W        W44857   0.643  10.953   0.181 -0.1554 -0.2062  0.1123
29049W        W44858  10.264   2.895  14.100 -0.2175  0.3058  0.0241
29050W        W44859  12.002   4.486  15.168 -0.1747 -0.3104 -0.1938
29051W        W44860   1.738   6.014   2.275  0.2804 -0.3543 -0.3982
29052W        W44861  15.143   5.660   5.984 -0.1366 -0.1433 -0.0061
29053W        W44862  11.031  15.160  13.317 -0.0476 -0.3310  0.0054
29054W        W44863   3.434   4.737   3.091 -0.0392  0.0151 -0.0125
29055W        W44864   0.029   3.884  14.401 -0.1676 -0.0339  0.0230
29056W        W44865  10.973   2.008   1.882  0.1262  0.1810 -0.0877
29057W        W44866   2.269   1.279  15.062 -0.0094  0.0302  0.4848
29058W        W44867  11.433   3.397  13.003  0.1022  0.2103  0.5113
29059W        W44868   6.384   6.277   2.203 -0.2875 -0.2322 -0.2336
29060W        W44869  13.662  11.703   4.065 -0.2996 -0.2568  0.0165
29061W        W44870   4.757  15.303  15.523 -0.1271 -0.0680 -0.4940
29062W        W44871   3.132  14.882  15.572 -0.0967 -0.1553  0.1518
29063W        W44872  17.042   6.961   0.891 -0.1331 -0.0895 -0.0231
29064W        W44873   2.836   8.267  12.095 -0.1617  0.0395 -0.1636
29065W        W44874   4.337   6.440   1.213 -0.1484  0.1349  0.0307
29066W        W44875   3.831  12.548  14.169 -0.1481 -0.2376 -0.1225
29067W        W44876  10.130   3.190   2.072  0.1345  0.0528  0.1203
29068W        W44877   3.607  12.541   3.427 -0.1172  0.1023  0.0399
29069W        W44878   0.754   8.529  11.944  0.2792 -0.1857 -0.1397
29070W        W44879  15.556  16.595   3.901  0.4699  0.1369 -0.1230
29071W        W44880   7.699   4.033   5.086  0.2442  0.0868  0.1006
29072W        W44881  14.795   1.687  13.319  0.0524  0.1339 -0.0249
29073W        W44882  15.397  12.730  10.861 -0.2501 -0.0187 -0.0291
29074W        W44883  14.235   3.153  11.302  0.0191 -0.2883 -0.1468
29075W        W44884   0.466   5.210  13.685  0.1716 -0.0099  0.4955
29076W        W44885  15.628   1.731  15.034  0.0180 -0.0010  0.0693
29077W        W44886   5.992  13.137   2.956  0.2379 -0.0336 -0.1121
29078W        W44887   7.054  18.355   3.624  0.1945 -0.2324  0.0726
29079W        W44888   3.193   7.881   5.590  0.2810  0.1687  0.0631
29080W        W44889   3.750   2.708   4.103 -0.0783  0.0615  0.0728
29081W        W44890  13.488  17.865  15.422 -0.1674  0.3965  0.1955
29082W        W44891  13.369   2.839   3.552 -0.2782 -0.1067  0.0106
29083W        W44892   4.573  15.233   0.847  0.0795 -0.1579 -0.1330
29084W        W44893   8.531   7.360   2.197 -0.0315  0.0102 -0.0245
29085W        W44894   0.754   6.874   2.224 -0.1478 -0.1222  0.1639
29086W        W44895   7.182   5.102  12.728 -0.3014  0.0762 -0.2697
29087W        W44896   9.219   7.322  13.874 -0.0819  0.2218  0.1500
29088W        W44897  11.407   9.560   2.002  0.2577 -0.2643  0.0670
29089W        W44898  16.244   7.818  13.610  0.0428  0.3234  0.0453
29090W        W44899   3.540   9.888  12.435 -0.0613 -0.0092  0.0198
29091W        W44900  15.058   9.272  11.531 -0.0088  0.1693 -0.0837
29092W        W44901   8.253  10.705   0.578  0.0104  0.1728 -0.1594
29093W        W44902   6.274  18.191  12.975 -0.0129 -0.2841 -0.1231
29094W        W44903   8.511   1.165  12.382  0.4305  0.3698  0.0987
29095W        W44904  17.454   3.661  12.934 -0.0562  0.0778  0.2169
29096W        W44905  11.829   0.205   4.742  0.1116  0.2078  0.0400
29097W        W44906   5.809   5.880  10.856 -0.1782  0.1464 -0.4058
29098W        W44907  17.589   2.937  15.303  0.0298  0.0480  0.2755
29099W        W44908   2.971  12.591  14.441 -0.0940  0.0630  0.1764
29100W        W44909  12.481   5.556   3.555 -0.0581 -0.1315  0.1353
29101W        W44910   9.322   0.175  14.629 -0.0935  0.0652 -0.0269
29102W        W44911  13.684  13.711  11.665  0.0773 -0.2580  0.1811
29103W        W44912  14.084   1.843   2.474  0.0057 -0.1016 -0.0164
29104W        W44913   8.827   3.921   2.693  0.0318  0.1314  0.0547
29105W        W44914  16.691   5.113  14.332 -0.2907  0.1160 -0.0567
29106W        W44915  12.185   6.179  14.617  0.3312  0.0453 -0.1714
29107W        W44916  11.288   4.280   4.479  0.1895 -0.1837 -0.2118
29108W        W44917   9.528  14.907  14.903 -0.2453  0.3380 -0.1691
29109W        W44918  14.025  14.054   4.475 -0.2630  0.0396 -0.0917
29110W        W44919   7.497   1.118  14.427 -0.0717  0.0635 -0.0773
29111W        W44920  13.702   5.639   1.780  0.0839 -0.1279  0.1377
29112W        W44921   6.790  13.862  11.545 -0.4985 -0.1238 -0.1437
29113W        W44922  15.813   8.188  13.692 -0.3612 -0.0459  0.1596
29114W        W44923   1.467   8.630   2.717  0.1801  0.0785 -0.1870
29115W        W44924  13.449  16.851  15.806 -0.1515  0.0405 -0.0143
29116W        W44925  16.362  15.264  12.070  0.1902 -0.2122  0.2401
29117W        W44926  15.759   1.938   3.126  0.0314  0.1347 -0.0517
29118W        W44927  18.405   8.347  15.522 -0.1701 -0.2880  0.0186
29119W        W44928  10.032   7.335  14.551  0.1007  0.0899  0.0580
29120W        W44929  11.161  14.419  14.890  0.2682  0.1543  0.1087
29121W        W44930   1.391  12.584  11.548  0.1410  0.0071  0.0434
29122W        W44931  10.559  10.241  14.342  0.0447  0.0202 -0.3491
29123W        W44932   2.971   6.265  11.961 -0.0767  0.2173 -0.0079
29124W        W44933  18.346   4.397  10.919 -0.0312  0.4607 -0.1205
29125W        W44934   5.611   2.263   5.192  0.1888  0.0663  0.2388
29126W        W44935   2.644   6.716   1.612 -0.1872 -0.0503  0.4137
29127W        W44936   9.235  16.225   3.034 -0.2789  0.0508  0.0248
29128W        W44937   5.414   7.876  15.315 -0.1098 -0.0993  0.1542
29129W        W44938  18.045   6.111  10.351 -0.0707  0.1110 -0.1099
29130W        W44939   0.961  14.107   0.001  0.0401 -0.2612 -0.1572
29131W        W44940  11.837  10.717   1.600 -0.0164  0.0516 -0.1496
29132W        W44941   2.831   1.948  12.120 -0.3318  0.0125 -0.0294
29133W        W44942  16.131   7.808   4.814  0.0133  0.1787  0.0406
29134W        W44943   1.838  14.304   3.386 -0.0799  0.0160  0.1786
29135W        W44944  16.515  14.440  15.676  0.0264  0.1146 -0.1751
29136W        W44945  12.397   8.963   3.172 -0.2024 -0.0149 -0.0533
29137W        W44946   5.073   9.571   2.033 -0.2063  0.0143  0.1303
29138W        W44947   6.426   0.657  11.135  0.1378  0.0937  0.0224
29139W        W44948   7.930   1.015  13.893 -0.1461  0.1399  0.1375
29140W        W44949   6.806  14.844   2.267 -0.0174  0.2469  0.0971
29141W        W44950   0.114  11.772  10.329 -0.2657 -0.1629  0.1779
29142W        W44951  12.934   0.513  10.193  0.2777  0.1562  0.2973
29143W        W44952   7.607  14.715  14.042 -0.1327  0.1490 -0.2506
29144W        W44953   3.537   1.050  13.574  0.0068  0.0508  0.4320
29145W        W44954  12.537  12.619   3.082  0.1696 -0.1661  0.1355
29146W        W44955   6.736   4.736  10.865  0.0910 -0.2968  0.4164
29147W        W44956   4.989  14.187   5.490  0.1080 -0.0116  0.3395
29148W        W44957   6.484   7.806   4.023 -0.2780 -0.1214 -0.0910
29149W        W44958   7.618   3.386   2.908 -0.0922  0.1628 -0.2221
29150W        W44959   0.643  16.461  11.728  0.5260  0.0461  0.0735
29151W        W44960  12.805  14.490   5.608 -0.0265 -0.0476  0.1881
29152W        W44961   9.410  12.872  11.988  0.1348 -0.3129 -0.0668
29153W        W44962  12.937  16.164  10.408 -0.3674  0.0288 -0.1100
29154W        W44963  13.980   5.574   4.081  0.0762  0.3746  0.0808
29155W        W44964  11.451   9.355  14.554 -0.1854 -0.2541 -0.0177
29156W        W44965   4.629   2.209   3.082  0.4081  0.2009  0.1602
29157W        W44966   6.212   5.123   4.784  0.0256 -0.0973  0.0391
29158W        W44967   4.795  10.741  11.298  0.1603  0.2244 -0.0808
29159W        W44968   1.562   8.506  11.561  0.1336 -0.0573 -0.1633
29160W        W44969  16.859   0.644   3.868  0.0026 -0.0011 -0.0363
29161W        W44970  12.241  15.448   1.230 -0.3007  0.0653  0.1925
29162W        W44971  13.351   1.258   0.316 -0.2323  0.3661  0.5561
29163W        W44972  11.998  12.953   3.124  0.1254 -0.4113 -0.0406
29164W        W44973   1.384   1.656  12.054 -0.1434  0.1871 -0.1225
29165W        W44974   8.346  13.492   4.493 -0.0115 -0.0720  0.0729
29166W        W44975  12.326   6.319   4.679  0.2849 -0.3960 -0.2348
29167W        W44976  11.082  11.866  15.053  0.2012  0.1450  0.0148
29168W        W44977  18.400   1.479  12.570  0.0626  0.0147 -0.1555
29169W        W44978   7.446   9.452   2.286 -0.2572  0.3303 -0.2336
29170W        W44979  17.401  14.665  15.033  0.4878 -0.0064 -0.1522
29171W        W44980  15.610   3.976   9.698 -0.0732  0.0899 -0.0880
29172W        W44981  15.813  15.096  11.013 -0.3396  0.2796  0.1097
29173W        W44982   1.790   2.644  14.164 -0.1146 -0.0328 -0.0868
29174W        W44983   9.984   3.100   0.210 -0.0170  0.2157  0.1073
29175W        W44984   5.921   6.898   0.856 -0.2611  0.1608 -0.1074
29176W        W44985  13.614   6.604  14.244 -0.2089  0.3208  0.1509
29177W        W44986   1.454   2.120  15.517 -0.2143 -0.0335 -0.0645
29178W        W44987   0.120   0.418  12.563 -0.1224 -0.2983  0.1538
29179W        W44988   5.264  12.106  11.541  0.4234 -0.1164  0.0231
29180W        W44989   1.033   2.310  14.720 -0.2739 -0.1082  0.2803
29181W        W44990  13.404   7.866   1.862 -0.1193  0.2917 -0.2572
29182W        W44991  10.368   8.039  12.652 -0.1055  0.1573  0.1434
29183W        W44992   3.508   5.157   1.155 -0.2901 -0.1811 -0.0825
29184W        W44993  17.223   7.094  14.278 -0.0400 -0.0662 -0.1991
29185W        W44994  10.522  14.075  11.855 -0.1328  0.1975  0.0108
29186W        W44995   3.390  17.654   2.699  0.1969 -0.3447 -0.0377
29187W        W44996   8.951   3.326  12.788  0.0238  0.5050  0.5861
29188W        W44997   2.601  13.227  13.261  0.1188  0.0492  0.0584
29189W        W44998   7.153  11.417  10.750 -0.1832  0.1675  0.1170
29190W        W44999  14.265   2.467   5.377  0.2452  0.2054  0.1390
29191W        W45000  11.153  14.367  15.695  0.0349  0.3835 -0.0037
29192W        W45001  15.991   5.512   5.656  0.0965  0.0920 -0.2403
29193W        W45002  13.579  16.009   0.391 -0.2327  0.1796  0.3087
29194W        W45003   4.788   7.848  13.115 -0.1464 -0.3361  0.3303
29195W        W45004  15.352  12.840  14.623 -0.2243 -0.2953  0.0433
29196W        W45005  11.354  13.878   0.771 -0.1827 -0.0320  0.3569
29197W        W45006  13.326  16.796  12.761  0.3009 -0.0581  0.0739
29198W        W45007  16.285   9.752   4.614 -0.2154 -0.1863  0.0483
29199W        W45008   2.594   5.819   0.631  0.0509  0.0740  0.1311
29200W        W45009  13.106   3.048   1.945  0.4867  0.1084  0.1323
29201W        W45010   8.634  10.947   0.863 -0.1573  0.1681  0.2598
29202W        W45011  14.858   9.942  12.723  0.1238  0.1902 -0.0936
29203W        W45012  16.074  17.698   4.391 -0.3063 -0.1937  0.0130
29204W        W45013  16.693  12.582  14.673 -0.2010  0.0799  0.0526
29205W        W45014   6.566   8.928  13.845  0.0413 -0.1821 -0.0474
29206W        W45015   2.403  13.023   5.454  0.5175 -0.1420  0.4205
29207W        W45016  13.369   1.995  12.307  0.1138 -0.0000  0.2239
29208W        W45017   5.286  12.382   4.343 -0.1305  0.0415 -0.0764
29209W        W45018   7.084   0.599  13.818 -0.4475 -0.0432 -0.3240
29210W        W45019  16.547   4.046  13.222 -0.0150  0.3971 -0.0850
29211W        W45020   0.615  17.420   2.978  0.2365  0.1756  0.0913
29212W        W45021  10.678   7.175   0.575  0.1478 -0.3661 -0.0661
29213W        W45022  11.094   5.390   1.077  0.2321 -0.0711  0.2007
29214W        W45023   7.505  16.757  13.901 -0.1013 -0.0555 -0.0379
29215W        W45024  11.095   7.085   0.833 -0.1645 -0.1349 -0.0185
29216W        W45025  11.564  17.292   4.022 -0.2398 -0.0292  0.1139
29217W        W45026   7.841  13.669   4.212 -0.0538 -0.0662 -0.1094
29218W        W45027  13.988  17.188   2.166 -0.0799  0.1700 -0.0855
29219W        W45028   0.200   1.181  14.306 -0.0591  0.2817 -0.1495
29220W        W45029   2.714  10.751  15.800  0.2844 -0.0097 -0.1124
29221W        W45030   6.944   2.691   4.661 -0.1880  0.2909  0.0907
29222W        W45031   2.607   5.344   1.555 -0.1331  0.0419 -0.2800
29223W        W45032   4.627   4.395  13.021  0.0219 -0.1081 -0.1490
29224W        W45033   6.163   7.437  11.644  0.3047  0.0138 -0.0410
29225W        W45034   9.317  11.702  13.537  0.0144  0.0746 -0.3498
29226W        W45035   8.955  14.377   2.016  0.1006  0.0013 -0.1796
29227W        W45036  11.730   7.095   1.935  0.0232  0.2195  0.2408
29228W        W45037   9.973   4.273   3.778 -0.0902  0.0704 -0.5456
29229W        W45038  15.659  14.630   2.433  0.2208 -0.0820  0.2909
29230W        W45039  17.852  10.755   1.387  0.0253 -0.0830 -0.0380
29231W        W45040  16.032   5.211  11.409  0.1636  0.0125  0.1426
29232W        W45041  15.302   8.275   3.594 -0.0169  0.2037  0.1349
29233W        W45042   2.569   0.560  12.186 -0.1398  0.1419 -0.0377
29234W        W45043   1.437  15.632   1.334 -0.0096 -0.1301  0.1473
29235W        W45044   1.331   5.035  14.025 -0.0600 -0.1174  0.0514
29236W        W45045  11.162  15.682  12.033  0.1457  0.1597  0.1644
29237W        W45046   0.260   1.619   2.021  0.0388  0.0113  0.0922
29238W        W45047   1.596   8.088  11.912 -0.2514  0.1740  0.0238
29239W        W45048  12.540   1.497   0.627 -0.0116  0.1434  0.0008
29240W        W45049  12.514   0.959   1.345 -0.2238  0.1908 -0.0665
29241W        W45050   5.877  11.201   3.049  0.2482  0.2625 -0.2707
29242W        W45051  17.400   0.013   0.825  0.3042  0.0781  0.2079
29243W        W45052  18.207  13.648   4.193  0.1624  0.1825 -0.1529
29244W        W45053  10.589   5.944   1.749 -0.0787 -0.2065 -0.0794
29245W        W45054  15.640  14.214  15.622 -0.2731 -0.1136  0.0046
29246W        W45055   0.889  10.761   4.675 -0.0752 -0.0690 -0.0696
29247W        W45056   8.332   3.547  14.886  0.3117  0.1136  0.1538
29248W        W45057  15.188  11.461  11.321 -0.0128 -0.3449 -0.1757
29249W        W45058   6.721   8.916   4.023 -0.0667 -0.2584 -0.0749
29250W        W45059   8.579   8.304  13.203 -0.0658 -0.1156  0.0899
29251W        W45060  10.362  14.214   9.572 -0.1363 -0.0948  0.2084
29252W        W45061  15.401  17.246   0.071 -0.0350  0.1755  0.1989
29253W        W45062   2.877   7.782  13.720 -0.0895 -0.0583 -0.3776
29254W        W45063  17.383  10.900  10.358  0.1481 -0.0462 -0.0438
29255W        W45064   8.336   5.076   3.357 -0.1756 -0.2242 -0.2901
29256W        W45065   8.554   6.765   2.008 -0.1068 -0.0261 -0.0991
29257W        W45066   2.635  16.654  15.406  0.1267  0.2080  0.1312
29258W        W45067  17.609   2.332   3.477  0.0949 -0.1316  0.0373
29259W        W45068  13.614   1.359   1.572 -0.2739  0.0993 -0.2108
29260W        W45069   5.729   9.874  12.436 -0.2974  0.1083  0.2625
29261W        W45070   6.945   3.752  10.584 -0.0755  0.0425  0.0023
29262W        W45071   1.705   6.811  11.721 -0.0386 -0.0314  0.0685
29263W        W45072  14.553   9.546  15.390  0.0236 -0.0226 -0.0030
29264W        W45073   1.350   0.245   2.410 -0.0776  0.0542  0.2689
29265W        W45074  11.733   9.102   1.276 -0.0949 -0.0944 -0.0597
29266W        W45075  13.006   3.725  15.247 -0.2122 -0.2487  0.2010
29267W        W45076  11.661   4.764   2.684 -0.0934  0.0853 -0.0803
29268W        W45077  11.732   4.049  15.042 -0.2186  0.0343  0.1025
29269W        W45078   7.538  15.632   0.161  0.0407  0.2187 -0.0250
29270W        W45079  11.553  10.015  10.802 -0.1360  0.1815  0.0903
29271W        W45080  10.237  18.374  14.519  0.1704 -0.2233  0.1610
29272W        W45081   4.067  10.389  12.895 -0.0440  0.2840 -0.0259
29273W        W45082   0.664  13.221   2.500 -0.1427  0.1337  0.4110
29274W        W45083  11.623  13.459   0.855 -0.2512  0.0181  0.1552
29275W        W45084   2.289   2.247   1.396  0.1767 -0.2724 -0.4005
29276W        W45085   8.678   2.971   2.715 -0.0226  0.2544 -0.0928
29277W        W45086  17.294   9.818   4.574  0.2156 -0.0798  0.0394
29278W        W45087  13.239   4.053   2.227 -0.1584  0.1146  0.0064
29279W        W45088  16.844   9.785   4.797  0.0751 -0.0671  0.0546
29280W        W45089   9.003  17.732   0.352 -0.1717  0.0040 -0.3234
29281W        W45090   7.133  14.197  14.470  0.1867  0.2622  0.1117
29282W        W45091  10.754  17.248   0.086  0.3702 -0.3374 -0.0348
29283W        W45092  13.963  10.399   1.073  0.2388 -0.0999 -0.1024
29284W        W45093  11.280   3.283   1.714 -0.3168  0.1309  0.1865
29285W        W45094  10.405  12.665   5.493 -0.2991  0.1096 -0.1325
29286W        W45095   3.587   7.431   4.403  0.0888  0.0553 -0.0791
29287W        W45096   8.670  10.167   5.028  0.1319  0.3417  0.1465
29288W        W45097   4.728  16.056   3.348 -0.2205  0.1294 -0.0329
29289W        W45098  11.592   8.034   1.449 -0.2841 -0.1474 -0.2953
29290W        W45099   6.439  16.766  15.558 -0.0076  0.0830 -0.2031
29291W        W45100   4.163  15.865   2.269 -0.2457  0.0017 -0.1203
29292W        W45101  18.143   6.025   2.081 -0.3333  0.3107  0.0859
29293W        W45102   9.599   1.572   2.686  0.1150 -0.1789 -0.2805
29294W        W45103   1.647  14.509  13.841 -0.1412  0.0026 -0.0608
29295W        W45104  17.151   2.748   3.154  0.0482 -0.1177 -0.1989
29296W        W45105   2.303   6.808  15.081 -0.1624  0.2281  0.1076
29297W        W45106  12.662   3.880  11.253 -0.3079  0.3105  0.2681
29298W        W45107   2.659   0.278  11.673  0.0934  0.1507  0.0449
29299W        W45108   2.630   9.039  15.704 -0.0175  0.2492 -0.0521
29300W        W45109   0.411  11.813  11.976 -0.1416 -0.0349  0.0321
29301W        W45110  13.155   3.109   3.997 -0.2027 -0.1624  0.1056
29302W        W45111  14.557   5.891  13.655  0.1503 -0.2083  0.1831
29303W        W45112   8.743  17.573  10.522  0.0511 -0.2495 -0.0256
29304W        W45113  10.037   5.890  10.488 -0.0721  0.1570 -0.3772
29305W        W45114   0.724  10.323  14.207  0.2393  0.0678  0.0015
29306W        W45115   1.125   6.467   4.098  0.0384  0.1049 -0.3762
29307W        W45116   7.092  17.429  15.749 -0.0929  0.1098 -0.0681
29308W        W45117   8.917   3.951  13.835 -0.0479  0.0481  0.0476
29309W        W45118  12.993  17.433   2.484 -0.1303  0.1075  0.1697
29310W        W45119  15.265  15.610   5.448  0.2698  0.3847 -0.0979
29311W        W45120  11.820   1.999  11.192  0.2639  0.4542 -0.1320
29312W        W45121  12.357   9.216  12.688  0.0111  0.0571  0.2995
29313W        W45122  10.638  16.137  13.258 -0.0729 -0.0646  0.2396
29314W        W45123   4.629   3.263  11.350 -0.3239  0.3589  0.2413
29315W        W45124  16.678   2.045   3.698  0.0763  0.1091 -0.3186
29316W        W45125   1.336  11.170  10.950  0.0252 -0.0545 -0.0743
29317W        W45126  11.941   4.594   0.944 -0.0493  0.1796 -0.1356
29318W        W45127   2.182   4.889   4.692 -0.1422 -0.0067 -0.1396
29319W        W45128   4.117  12.903  14.426 -0.3611 -0.4510  0.0568
29320W        W45129  10.549  16.688   2.308 -0.1891  0.3518 -0.2710
29321W        W45130  17.663  12.185   2.604 -0.4450 -0.1945  0.1713
29322W        W45131  14.711   5.718   3.661  0.0101 -0.3632  0.0584
29323W        W45132   8.017   1.013  14.435  0.2847  0.0473  0.1689
29324W        W45133   4.368  15.028  15.757  0.1198 -0.1482  0.0614
29325W        W45134   0.512   5.675  13.045  0.0494  0.1876  0.0757
29326W        W45135  17.513   6.890   4.344 -0.1771 -0.2734 -0.1343
29327W        W45136   4.269   8.195   2.441  0.5080 -0.1156  0.0491
29328W        W45137   5.495  10.547   1.559  0.2110  0.1305  0.0685
29329W        W45138  13.358  17.899   1.399 -0.2212  0.1020  0.1372
29330W        W45139   9.228  14.308  11.654  0.1133  0.2116 -0.0613
29331W        W45140  10.258   9.766  15.422 -0.1021 -0.0422 -0.1816
29332W        W45141   5.469  15.500  13.499  0.3160 -0.0556 -0.0453
29333W        W45142  10.279  18.022  12.523 -0.0810  0.0087  0.3006
29334W        W45143  11.740  15.266   1.215 -0.0779  0.3125 -0.0725
29335W        W45144   7.009   0.538   5.053 -0.1842 -0.1332 -0.0027
29336W        W45145   3.962   6.582   3.523  0.3483 -0.0892 -0.2613
29337W        W45146   6.743  17.507   0.257 -0.1822 -0.0053  0.0586
29338W        W45147  17.221   4.301  14.017 -0.2690  0.0714  0.2774
29339W        W45148   7.579  14.521  14.530 -0.1784 -0.1753 -0.1082
29340W        W45149  10.279   0.425  13.737  0.3039 -0.3756  0.3440
29341W        W45150   3.200  15.319  13.008 -0.2697 -0.4640  0.0432
29342W        W45151  11.624  11.092   3.681  0.0227  0.2311  0.1008
29343W        W45152  17.479   5.562   9.903  0.0653  0.3339 -0.3447
29344W        W45153   2.129   0.729  11.540 -0.0402  0.2298  0.0832
29345W        W45154  14.178  17.590   1.892  0.1313  0.2126  0.3269
29346W        W45155   6.136   2.270   2.865 -0.2938  0.1230 -0.0554
29347W        W45156   3.937  14.478   1.234  0.2943  0.0024 -0.4048
29348W        W45157   2.416  15.784   4.318  0.4254 -0.1258 -0.4587
29349W        W45158   1.625  14.329  13.353 -0.1263  0.0160  0.0641
29350W        W45159   0.984  14.671   5.351  0.0649 -0.0187 -0.0416
29351W        W45160  13.306   2.774  15.199  0.1886  0.0387  0.2921
29352W        W45161  11.388   7.518   1.120  0.0269  0.3604  0.1028
29353W        W45162  13.330   6.849  15.156  0.0641  0.1506 -0.3042
29354W        W45163  10.277   9.780   1.277 -0.0745  0.1638  0.3811
29355W        W45164   3.198   6.796   2.307  0.0354  0.0467  0.2538
29356W        W45165   8.022  11.000  14.593 -0.1851 -0.1443 -0.3623
29357W        W45166  13.710  14.004   0.459  0.1583 -0.2503 -0.2797
29358W        W45167   8.639  17.608   3.666  0.1730  0.0404 -0.1154
29359W        W45168   8.952   8.173  11.492  0.2457  0.0530 -0.0830
29360W        W45169   0.500  11.913   0.180  0.2652  0.0258  0.1051
29361W        W45170  13.595   0.430   4.935 -0.0804  0.2629  0.1143
29362W        W45171   2.550   2.194  12.900 -0.2301  0.1858 -0.0462
29363W        W45172  13.519   9.886   3.863  0.1692 -0.2039  0.0216
29364W        W45173  15.153   6.054   3.656 -0.1097  0.3124  0.0722
29365W        W45174   0.566   7.721   5.031 -0.1007 -0.1949  0.2001
29366W        W45175   6.508  10.965   4.837  0.1608  0.0750  0.0817
29367W        W45176   2.129  13.347   1.665  0.0228  0.1746 -0.1088
29368W        W45177   9.715   8.573   1.125  0.0678  0.1491 -0.3561
29369W        W45178  10.765   5.871   3.120  0.0502 -0.1794  0.1938
29370W        W45179   5.555   5.937   1.716  0.0201  0.1488 -0.1257
29371W        W45180   4.198   1.061   2.663 -0.2955  0.0587  0.1317
29372W        W45181   2.822  17.097   3.068  0.0376  0.1102  0.1998
29373W        W45182  16.634  17.466  12.780 -0.3678  0.0410 -0.0254
29374W        W45183   7.337  13.471   0.759 -0.3226 -0.0198 -0.2238
29375W        W45184  17.042   8.510   5.002 -0.0572 -0.1425  0.2424
29376W        W45185   3.571   5.477  15.147 -0.1324  0.3791 -0.1702
29377W        W45186   3.241   1.292   2.762  0.1733 -0.0689  0.2852
29378W        W45187   7.512   7.542   5.689 -0.2501 -0.1128 -0.0876
29379W        W45188   6.031   5.251  11.372  0.0255  0.2006 -0.0275
29380W        W45189   8.412  15.333  15.004  0.1824  0.0045  0.0021
29381W        W45190   9.222   9.829   2.321 -0.0098  0.2755 -0.2820
29382W        W45191  14.245  15.051  14.466  0.1774  0.1199  0.1939
29383W        W45192  18.132  14.670   0.941  0.1684  0.0594  0.1281
29384W        W45193  15.070   5.465   2.989 -0.4249 -0.1480  0.4179
29385W        W45194  13.548   7.675   0.831 -0.2357 -0.2501 -0.0310
29386W        W45195  13.992  11.386  13.494 -0.0229  0.2056  0.1668
29387W        W45196   1.596   7.925  15.814 -0.3663 -0.3527  0.1280
29388W        W45197   7.835   2.320   0.583 -0.0256  0.0485  0.0447
29389W        W45198  12.016  15.826  11.573  0.0256 -0.1006  0.0682
29390W        W45199   8.224   8.331   2.384  0.2881 -0.1319 -0.2780
29391W        W45200   1.475   4.646   0.652 -0.1939 -0.1311  0.0438
29392W        W45201   4.703  18.114   4.016 -0.3074  0.3837  0.1422
29393W        W45202   6.671   8.330   2.104  0.1729  0.3885 -0.2276
29394W        W45203   9.930  16.106  11.297 -0.2329 -0.1749 -0.1895
29395W        W45204  11.539  15.969  10.859  0.0341  0.1743 -0.2507
29396W        W45205  13.157  11.903   1.934 -0.1901  0.1978 -0.1086
29397W        W45206  13.236  16.953   1.427 -0.2126  0.2370 -0.0795
29398W        W45207   8.492   5.274   2.136  0.0842 -0.1695  0.0651
29399W        W45208  18.303   6.087   0.916  0.4876  0.0949 -0.1117
29400W        W45209  14.089  11.458  12.951  0.1594  0.1449 -0.1512
29401W        W45210  12.915  17.093  13.675 -0.1040  0.0533 -0.2534
29402W        W45211   2.630   9.975  14.385 -0.3293  0.2174 -0.0513
29403W        W45212   2.410   4.546   2.015 -0.1497 -0.0028 -0.0707
29404W        W45213   0.950   2.796  13.133 -0.0255 -0.0809 -0.0253
29405W        W45214   5.088  14.559   5.165 -0.3203 -0.4798 -0.0476
29406W        W45215   8.171   0.265   0.010 -0.0568 -0.0277 -0.4610
29407W        W45216  15.675   0.664  11.225  0.1226 -0.1025  0.3116
29408W        W45217  11.944  10.302   1.380  0.0607  0.2391  0.0628
29409W        W45218   1.177  14.668   9.805  0.0349 -0.1857 -0.3921
29410W        W45219   9.465   4.255  10.434  0.2221 -0.0206 -0.1644
29411W        W45220   7.792   5.408   0.703  0.1488 -0.0288 -0.1696
29412W        W45221   5.082   2.310   9.948  0.1718 -0.0787  0.1150
29413W        W45222  15.387   9.628  15.591 -0.3194  0.0233 -0.0216
29414W        W45223   0.988   8.800  14.289 -0.1226 -0.2873  0.2461
29415W        W45224  16.559   5.925  11.606  0.1838  0.0491 -0.2097
29416W        W45225   6.843  15.166   0.957  0.1656  0.3076 -0.4577
29417W        W45226   6.242  14.859  11.163  0.0368  0.1387  0.1889
29418W        W45227   0.866  16.297   3.295  0.0543  0.0367  0.1684
29419W        W45228   2.989  11.125  13.845 -0.2255  0.2475 -0.1800
29420W        W45229  11.706  10.298  11.630  0.1064 -0.0518 -0.2896
29421W        W45230   7.893   5.183   1.630 -0.3062 -0.0884 -0.0469
29422W        W45231  14.989  16.307  15.140 -0.1123  0.1415  0.2321
29423W        W45232  16.098   5.822   4.643  0.4425  0.1594  0.2734
29424W        W45233  13.276   9.833   6.000 -0.1058 -0.1287  0.1735
29425W        W45234   3.545   4.647  14.932 -0.1390  0.0830  0.0572
29426W        W45235   5.673  16.744   0.055  0.3040  0.1555 -0.0276
29427W        W45236   4.742  17.230   4.595 -0.1117 -0.3823  0.0956
29428W        W45237  16.897   1.973  11.307 -0.1784  0.3358  0.1040
29429W        W45238  13.293   3.359   0.013  0.0240  0.1851  0.3616
29430W        W45239  16.968  12.095   3.969  0.0748 -0.0657  0.1114
29431W        W45240  11.060  12.881  12.799 -0.1231  0.1922 -0.1107
29432W        W45241   3.797   2.367   4.962  0.1450 -0.1104  0.0965
29433W        W45242   6.593   3.748   4.072  0.0531  0.3067 -0.1910
29434W        W45243  12.460  13.632  13.159 -0.2292 -0.3583  0.0145
29435W        W45244  15.279  16.624   1.279 -0.0169 -0.0553 -0.1290
29436W        W45245   7.778   9.170  12.403 -0.1016 -0.0491 -0.0238
29437W        W45246   2.541   5.427  12.126 -0.2762  0.0328  0.0999
29438W        W45247   5.656   1.062   0.935  0.0503  0.0753  0.2395
29439W        W45248   1.672  13.373   5.653 -0.0859  0.2271 -0.2091
29440W        W45249  16.584   4.581  10.919  0.2375  0.0613  0.4904
29441W        W45250   8.319  10.056   6.249  0.0050  0.0393  0.0969
29442W        W45251   0.676  14.996  12.220  0.0392 -0.0687  0.1869
29443W        W45252   9.418   1.187   1.535  0.1906  0.0083 -0.1156
29444W        W45253   0.527   0.319   5.629 -0.1327 -0.1875  0.0320
29445W        W45254   2.294  14.273  11.470  0.0447  0.0011  0.0163
29446W        W45255   0.754  18.335  15.160  0.2800 -0.0613 -0.0316
29447W        W45256   2.502   1.854  13.244 -0.0708 -0.0325  0.1788
29448W        W45257  11.894   4.790  13.957 -0.1295  0.0380 -0.0677
29449W        W45258  15.032  14.745  15.016 -0.0881  0.2380 -0.1548
29450W        W45259   6.546  16.589  10.622  0.3642  0.1809 -0.0499
29451W        W45260  16.708   7.873   1.628 -0.1126  0.1078 -0.4968
29452W        W45261   5.561  10.537  11.282  0.1561  0.1182  0.0756
29453W        W45262  15.959  18.112  10.927  0.2250 -0.0205 -0.0238
29454W        W45263   8.668   7.729   9.971  0.1182  0.3441  0.1720
29455W        W45264  10.078  10.086   5.649 -0.1290 -0.1564  0.3093
29456W        W45265   8.836  12.017  12.706 -0.1565 -0.0855  0.1061
29457W        W45266   0.209   1.362   4.518 -0.0613  0.0978  0.0514
29458W        W45267  14.570   2.743  14.557 -0.2690 -0.2420 -0.3196
29459W        W45268   8.108  11.186   4.744 -0.1136 -0.1794  0.0770
29460W        W45269  12.707   2.437  12.917  0.2107  0.0138 -0.2159
29461W        W45270   2.915   7.696  14.262  0.0556 -0.3580  0.0270
29462W        W45271   0.217  13.093  14.450 -0.1551  0.0830 -0.2293
29463W        W45272   9.104   1.443   1.848 -0.1394  0.0417  0.1575
29464W        W45273  13.254   5.940  13.576 -0.2493 -0.0672 -0.0880
29465W        W45274   5.312  17.514  15.104  0.2989  0.0008 -0.0834
29466W        W45275   0.051  12.240   4.661 -0.1276 -0.1310 -0.1347
29467W        W45276  15.487  11.773  14.412 -0.1308  0.0388  0.2395
29468W        W45277  14.558  15.861  15.545 -0.1691  0.1888 -0.2945
29469W        W45278   3.522   9.218   0.490  0.1908 -0.1421  0.4466
29470W        W45279   8.143   5.891  11.286 -0.0829 -0.2573 -0.2756
29471W        W45280  17.886   8.484  13.440 -0.0401 -0.2150  0.0716
29472W        W45281  16.862  15.054  12.438 -0.2077 -0.2479  0.3188
29473W        W45282   4.646  16.689  12.065 -0.1030 -0.3259 -0.0355
29474W        W45283   7.773   9.953  11.712  0.0341  0.3472  0.0242
29475W        W45284   9.777   4.511  11.839  0.0727  0.1179 -0.2109
29476W        W45285   9.905  11.284  12.317  0.0678  0.0276  0.1383
29477W        W45286   7.798   7.555   0.915  0.0650  0.0110  0.0768
29478W        W45287  18.388  17.108  14.544 -0.0547  0.0311  0.0898
29479W        W45288   3.024   7.497  12.615 -0.2076 -0.1976 -0.0452
29480W        W45289  13.551   9.452   3.632  0.1521 -0.0546 -0.0835
29481W        W45290  12.256   9.859   0.074 -0.1019  0.1101 -0.2585
29482W        W45291   8.651   8.148   2.069 -0.0605 -0.1876 -0.0668
29483W        W45292  11.233   7.999  10.642  0.0130 -0.1551  0.4703
29484W        W45293   5.908   6.942  15.055  0.3128 -0.1924 -0.2382
29485W        W45294  11.863   4.990   3.171  0.4625 -0.1102  0.2233
29486W        W45295  17.909  17.151   0.364 -0.1275  0.1801  0.1031
29487W        W45296   3.020  12.112   2.412 -0.1369  0.1164 -0.0579
29488W        W45297   7.233  16.524   3.438 -0.0238 -0.1104  0.2884
29489W        W45298   9.386   0.465  11.581 -0.0733 -0.0875  0.0532
29490W        W45299   9.836  15.896  13.422  0.0274 -0.2152  0.1110
29491W        W45300   3.956   2.861  14.512 -0.0948 -0.0206  0.1967
29492W        W45301   8.013   7.756   4.601 -0.2713  0.0371 -0.0029
29493W        W45302  17.036   4.144  12.403  0.0255 -0.0372 -0.1266
29494W        W45303  16.553   8.322   4.944 -0.2356 -0.0164  0.1268
29495W        W45304   3.593   3.716   3.165 -0.2091 -0.3184  0.1243
29496W        W45305  14.309  11.488   1.862  0.3203 -0.2081 -0.1441
29497W        W45306   2.698   0.125   3.072  0.0324 -0.2607  0.0102
29498W        W45307   2.356   0.366   0.034  0.2230 -0.3112 -0.1316
29499W        W45308  15.537   6.628  11.791  0.0143  0.0185  0.0024
29500W        W45309   0.036  14.520   2.307 -0.1887  0.0882 -0.5569
29501W        W45310  16.275   8.853  13.748 -0.2601  0.1289 -0.1479
29502W        W45311  10.102  15.287  12.905  0.3203  0.0696 -0.0564
29503W        W45312   2.900  13.290   3.964 -0.2219  0.2996  0.3715
29504W        W45313  17.898   9.714   1.296  0.0893  0.3471 -0.0194
29505W        W45314  14.764  15.814   3.397 -0.2275 -0.0533 -0.1691
29506W        W45315  14.696   6.176  15.314  0.0635 -0.0198 -0.0162
29507W        W45316   4.882  18.453   0.219 -0.0277 -0.0818  0.0532
29508W        W45317  12.746   4.114  15.436 -0.1943 -0.4493  0.1268
29509W        W45318  10.875  10.244  12.975 -0.1380  0.1012 -0.2487
29510W        W45319   1.838  11.874  11.117  0.2069 -0.2944  0.0568
29511W        W45320   9.770  14.016   1.776 -0.0659  0.0262  0.3391
29512W        W45321   5.646  15.329   1.848 -0.0994 -0.1660 -0.0894
29513W        W45322   3.180  17.733  10.935 -0.1338  0.0042  0.2008
29514W        W45323   2.024   7.508  13.979  0.0412 -0.2611 -0.1418
29515W        W45324  12.927  13.023  14.311 -0.0113  0.0983  0.0713
29516W        W45325  10.911  15.298  14.729  0.2193 -0.1822 -0.0314
29517W        W45326   3.393  12.812   0.284 -0.0259  0.0295  0.1465
29518W        W45327   8.446   4.473  15.269 -0.3160 -0.1221 -0.2027
29519W        W45328  10.963   4.019  10.385  0.2576  0.0741 -0.0431
29520W        W45329  16.260  16.421   4.047 -0.1417  0.2377  0.2632
29521W        W45330  13.631  14.840  10.849 -0.1506 -0.0280 -0.1076
29522W        W45331  15.526   9.509   2.092 -0.1104 -0.0512  0.2753
29523W        W45332   4.057  14.060   5.524 -0.1633  0.0076  0.1606
29524W        W45333   1.415   5.083  10.854 -0.1281 -0.0494 -0.0223
29525W        W45334   3.263  18.345   3.833 -0.1492  0.1362  0.0046
29526W        W45335  10.092   9.719   2.201  0.0761  0.4064 -0.2053
29527W        W45336   7.314  18.182  11.075  0.0557  0.4047  0.1826
29528W        W45337  11.955   5.349   4.828  0.0724  0.3259  0.2107
29529W        W45338  13.993   1.641   1.962  0.0535  0.0056  0.1179
29530W        W45339  16.576   8.560   2.317  0.0949  0.0414  0.1622
29531W        W45340  11.900  17.249   4.466  0.1668  0.0152  0.1380
29532W        W45341  10.980  15.843   2.955  0.0380 -0.1734  0.0302
29533W        W45342   4.099  14.141   1.562 -0.0546  0.0444 -0.1713
29534W        W45343  13.475   9.680  11.284  0.1700 -0.2797 -0.0790
29535W        W45344  17.176  16.050  10.827  0.0999 -0.0683  0.0812
29536W        W45345  15.693   5.709   1.748 -0.2648  0.0823  0.2092
29537W        W45346  18.069  10.055   3.866  0.1038 -0.0803 -0.0843
29538W        W45347  10.670  15.650   2.536  0.1202  0.1101 -0.1208
29539W        W45348  13.915  14.968  14.944  0.2944 -0.4371  0.2670
29540W        W45349  16.746  16.488  13.314  0.0321 -0.0213 -0.3738
29541W        W45350  15.323  12.135   1.859  0.1376 -0.2634  0.0916
29542W        W45351  11.392  14.441   5.250 -0.0870 -0.0303  0.0281
29543W        W45352   0.438  15.158  12.814 -0.0703  0.1758 -0.0849
29544W        W45353   2.790   1.261  15.209  0.0623  0.0551 -0.3311
29545W        W45354   0.337   6.163   5.811 -0.2339  0.2297 -0.2314
29546W        W45355   8.596  11.240  15.667  0.0086 -0.1638  0.2138
29547W        W45356  17.056  15.763   3.370 -0.0338  0.2157  0.0677
29548W        W45357   7.696   4.749  13.669 -0.0442 -0.2251 -0.0453
29549W        W45358   1.103   3.145  14.603 -0.0073 -0.0743 -0.1877
29550W        W45359  14.980  13.406  14.560 -0.0281  0.2688  0.1525
29551W        W45360   5.529  16.315   2.039 -0.1148  0.0283 -0.1967
29552W        W45361   2.281  18.161  10.625 -0.2175  0.0613  0.0648
29553W        W45362  14.496   9.686   0.072  0.0528 -0.1428  0.0418
29554W        W45363   1.123  17.948  14.968 -0.1703 -0.1401 -0.0222
29555W        W45364   5.197   9.574  15.438  0.1293  0.2092 -0.0452
29556W        W45365   2.713   3.072  13.912 -0.0626 -0.4131  0.1135
29557W        W45366  16.827  10.307   3.387  0.1319 -0.4092 -0.2165
29558W        W45367  11.909  13.911   0.791  0.3210 -0.0311 -0.1244
29559W        W45368   3.820  16.459  12.921 -0.3205 -0.1092  0.0912
29560W        W45369   3.373   0.143  15.070 -0.1555 -0.1412 -0.2243
29561W        W45370  17.355  13.674   0.195  0.2504 -0.0048 -0.1650
29562W        W45371  18.093   6.068   4.697  0.1796 -0.1275 -0.1965
29563W        W45372   2.983  16.280   4.580 -0.1770 -0.0571  0.0230
29564W        W45373  17.971  17.917   4.654 -0.3429  0.1720 -0.0116
29565W        W45374   7.172  16.810  11.134 -0.2245 -0.5343  0.2884
29566W        W45375   5.698   8.743   1.121 -0.0825  0.3024  0.0989
29567W        W45376   2.170  10.119  14.591 -0.0138  0.1371  0.0612
29568W        W45377   4.938   5.421   2.690 -0.2313 -0.0622  0.0173
29569W        W45378   5.465   1.870  12.871  0.0632 -0.0246  0.4422
29570W        W45379  11.251   8.865   3.171  0.0138  0.0046 -0.0489
29571W        W45380  18.102   8.558   5.241 -0.0234  0.2044 -0.0915
29572W        W45381   2.898  14.120  12.560 -0.0731  0.4057 -0.0153
29573W        W45382  13.395  14.080  10.516 -0.1609  0.1215 -0.0045
29574W        W45383  15.240   3.986   4.591  0.2892  0.1045  0.0770
29575W        W45384   5.265   5.780  15.303  0.1467 -0.3672 -0.1356
29576W        W45385  17.140   3.401  11.444 -0.2263  0.3533 -0.0979
29577W        W45386  12.672   3.998   3.389  0.2141 -0.2225 -0.2254
29578W        W45387   1.218   1.357  14.341 -0.0771 -0.0731 -0.0315
29579W        W45388  15.472   5.296   1.621 -0.2904  0.3587  0.0260
29580W        W45389  16.453   5.940  13.180  0.1573 -0.1314 -0.2143
29581W        W45390  11.425  15.863   2.015  0.0556  0.0400  0.0509
29582W        W45391   3.876   4.061  14.130  0.0265  0.0892 -0.2457
29583W        W45392   6.874   6.198   5.142 -0.0246  0.1278  0.2322
29584W        W45393   2.048   7.219   6.101 -0.0337  0.0927  0.0092
29585W        W45394  17.791  14.241  13.941 -0.3436 -0.0019  0.0464
29586W        W45395  10.231   7.177  12.906 -0.5885  0.1610  0.2179
29587W        W45396  10.803   2.017   2.847 -0.1946 -0.1703 -0.2132
29588W        W45397   3.249   6.989  13.574 -0.0072 -0.2377  0.2570
29589W        W45398  17.502   3.413   4.789  0.3560 -0.0938 -0.0539
29590W        W45399  17.387   8.737   1.276 -0.3089 -0.2578  0.0565
29591W        W45400  13.041  17.363   0.656 -0.0621  0.1939 -0.1211
29592W        W45401  17.872   2.879   4.133  0.1838 -0.3180  0.1561
29593W        W45402   7.872  15.490  13.047  0.3329 -0.0175  0.0528
29594W        W45403   5.145   0.245   4.501  0.3306  0.0088  0.1056
29595W        W45404   1.919  11.082   4.669 -0.0116 -0.0020 -0.3216
29596W        W45405   7.672  12.363  13.735  0.0143  0.2194 -0.2681
29597W        W45406   0.216  14.570  14.483  0.1280 -0.1389  0.1244
29598W        W45407  17.508  17.172   4.552  0.3038 -0.2730  0.1976
29599W        W45408   0.472   4.970   3.256  0.2683  0.1279  0.1286
29600W        W45409   2.568  14.482  13.588  0.0114 -0.1922 -0.1505
29601W        W45410  14.377   7.243  11.829 -0.0924  0.0160 -0.0687
29602W        W45411   6.798  11.696   3.861  0.0712 -0.1737  0.1204
29603W        W45412  16.332  12.316   3.370 -0.0499  0.0669  0.0593
29604W        W45413   2.304   7.321   4.791  0.1106 -0.0147 -0.0270
29605W        W45414   4.625  10.982  12.480 -0.0466 -0.0726 -0.0055
29606W        W45415   0.864   6.180   5.096  0.1034  0.1044 -0.0577
29607W        W45416  12.214   1.913  13.379 -0.1128 -0.2545  0.1716
29608W        W45417   4.822  11.522   1.136 -0.0395 -0.0004  0.1815
29609W        W45418  17.039   2.734   2.138  0.1205 -0.2203 -0.2398
29610W        W45419  17.830  10.058   2.531 -0.0303  0.1415  0.1698
29611W        W45420   5.218   9.790  11.554  0.0567 -0.2922 -0.2617
29612W        W45421   4.317   6.639  11.799  0.1234 -0.2072  0.0295
29613W        W45422   0.162  12.597  15.453  0.0648  0.1181 -0.1663
29614W        W45423   4.874  13.715   0.344  0.1786 -0.1905 -0.2661
29615W        W45424  15.266  17.252   2.031 -0.0113  0.1673 -0.1189
29616W        W45425   1.945   4.938   9.804 -0.3195  0.0745  0.0274
29617W        W45426   1.123   3.288  13.247 -0.0283 -0.3752  0.1460
29618W        W45427   5.199  14.618   0.725 -0.0933 -0.0323  0.4061
29619W        W45428   0.357   1.172  15.137  0.1028  0.1952  0.4306
29620W        W45429  18.117   6.641   1.586 -0.3837  0.0130  0.2522
29621W        W45430   1.618  14.108   0.307  0.1373  0.1349  0.0583
29622W        W45431   8.552   6.089  13.773 -0.0248 -0.0498 -0.1861
29623W        W45432  10.637   4.187   0.231  0.0755 -0.1414 -0.1219
29624W        W45433   5.071   1.545   2.534  0.1368 -0.1254  0.1032
29625W        W45434   6.961  13.308   1.847  0.2503 -0.3870 -0.1154
29626W        W45435   4.159  10.893  12.967 -0.2654 -0.1528 -0.2172
29627W        W45436  17.030  17.144   3.134  0.1468 -0.0142  0.0350
29628W        W45437  16.593  10.048   1.956  0.0081  0.3536  0.1016
29629W        W45438  10.641  17.631   5.333 -0.1404 -0.0698 -0.0733
29630W        W45439   9.357  12.544   2.951 -0.0905  0.1371 -0.1024
29631W        W45440   2.740   3.357   1.349 -0.1214  0.0716 -0.0109
29632W        W45441   3.548   8.915  12.917 -0.2175  0.0154  0.2784
29633W        W45442  16.886  17.618   5.263 -0.1870 -0.3718  0.0394
29634W        W45443   0.534  10.517  14.984 -0.2295  0.3175  0.0931
29635W        W45444   1.885   2.307  11.490 -0.1349  0.0229 -0.0072
29636W        W45445  14.991   9.645  11.163  0.2676  0.0095 -0.0730
29637W        W45446  16.334   5.892   5.459 -0.0935  0.1577  0.2361
29638W        W45447  18.341   6.925   1.281 -0.2847 -0.0920 -0.1023
29639W        W45448  13.875  11.078  14.839 -0.2466  0.0640  0.3316
29640W        W45449  12.731   9.474  10.597 -0.1896 -0.1630 -0.0384
29641W        W45450  17.119  11.745   1.378 -0.1605  0.0722 -0.0389
29642W        W45451  16.790  12.219   4.471 -0.1677 -0.0754  0.5671
29643W        W45452   1.786   3.973  10.069  0.1018  0.1058  0.1047
29644W        W45453   0.423  14.027  15.770 -0.0014 -0.2310  0.0088
29645W        W45454  13.930   5.124   3.969  0.3569 -0.0775  0.3780
29646W        W45455  18.221  17.722  11.001 -0.1296  0.2126 -0.4731
29647W        W45456  11.970   2.701  13.118 -0.0587  0.1386 -0.1237
29648W        W45457  17.464   3.450   2.036  0.1213  0.0450  0.1285
29649W        W45458  15.530   6.142   0.466 -0.0033 -0.1620  0.1210
29650W        W45459   1.525  18.378  14.378 -0.1935  0.3130 -0.2032
29651W        W45460  17.555   6.402   0.201  0.1585  0.0233  0.5893
29652W        W45461  15.714  12.773   4.477  0.1415  0.2546  0.0238
29653W        W45462   4.191   3.997  14.480 -0.1723  0.0546 -0.1372
29654W        W45463  14.868   4.633   2.203  0.0802  0.1424 -0.0081
29655W        W45464   7.505   7.515   2.350 -0.2754 -0.3119 -0.2684
29656W        W45465  16.921  16.249   3.142  0.1312  0.0859  0.0073
29657W        W45466  13.090  13.621  13.801  0.0629  0.0296  0.2688
29658W        W45467  13.705   3.302   2.744 -0.1351 -0.3175  0.0082
29659W        W45468  18.012  13.011   4.064  0.4332  0.0769 -0.0387
29660W        W45469   9.669  13.701   1.083  0.4968 -0.5474  0.1354
29661W        W45470   4.576  13.084   3.717 -0.0404 -0.1401  0.1710
29662W        W45471   1.151  14.345  13.143 -0.0329 -0.0297 -0.0824
29663W        W45472   0.264  15.241   1.323 -0.0384  0.1987 -0.1094
29664W        W45473   4.994  10.171   5.638 -0.4045 -0.1243 -0.0766
29665W        W45474   7.157  15.825  10.871  0.0213 -0.0830 -0.2086
29666W        W45475   6.587  18.248  12.543 -0.2609 -0.1964 -0.1242
29667W        W45476  15.883  13.982  12.426  0.1141  0.1932 -0.2524
29668W        W45477  10.227  13.561   5.730  0.0326 -0.1002  0.0165
29669W        W45478   6.287  11.258  11.210 -0.1203  0.0953 -0.0742
29670W        W45479   7.362  11.962   1.638 -0.1921 -0.0036  0.2705
29671W        W45480  10.311  14.421  14.488  0.1289 -0.0306 -0.2786
29672W        W45481  14.949   6.771   3.023 -0.0234 -0.0999  0.0636
29673W        W45482  12.799  14.632  12.095 -0.0356  0.0469 -0.2310
29674W        W45483  15.130  17.213   0.589 -0.1719  0.0056 -0.1284
29675W        W45484   8.610   2.923   3.844 -0.2856 -0.0368 -0.1079
29676W        W45485  10.191  15.837   4.491  0.3529 -0.1520 -0.4139
29677W        W45486  10.624  17.296   3.073 -0.2264  0.0166 -0.0089
29678W        W45487   1.494   7.705  12.722 -0.1187  0.4938  0.2000
29679W        W45488   7.104   7.319  10.533  0.0910  0.0539 -0.1135
29680W        W45489   1.090  17.397   5.071  0.0730 -0.0602 -0.0444
29681W        W45490  10.420   2.088  15.624 -0.2572  0.1731  0.0679
29682W        W45491  14.294  13.213  12.456  0.2054 -0.0192 -0.0791
29683W        W45492  15.119   0.816  13.626  0.1291  0.0188 -0.0764
29684W        W45493  13.680   1.204   0.909 -0.0909 -0.4236 -0.0137
29685W        W45494   9.540  10.337   1.208 -0.1805  0.1848 -0.0934
29686W        W45495   9.554   3.959  12.393 -0.0307  0.2999  0.2182
29687W        W45496  10.372   4.254   0.691  0.0936  0.1286 -0.1345
29688W        W45497   6.800  16.299   2.681 -0.1231 -0.3849 -0.2532
29689W        W45498   3.074  10.437   1.260 -0.0154  0.0307  0.0166
29690W        W45499   5.952   6.554  11.639  0.2570 -0.0206  0.0358
29691W        W45500   0.412   9.970  14.132 -0.1142  0.0126 -0.3226
29692W        W45501  12.436   7.581   5.847 -0.5230 -0.1074 -0.1860
29693W        W45502  18.065   8.944  12.316  0.0536  0.0671  0.1087
29694W        W45503   2.130   8.314  12.998 -0.1852 -0.2301  0.1472
29695W        W45504   8.018  15.982   0.257  0.0816  0.1740  0.1098
29696W        W45505  13.068   9.788  15.035  0.2921  0.2247 -0.1366
29697W        W45506   1.680  16.696   3.454  0.1947 -0.1937  0.1203
29698W        W45507   9.524  11.265   3.853  0.3448  0.3345 -0.2653
29699W        W45508   1.676  13.631   6.078 -0.0885  0.4696 -0.0512
29700W        W45509   9.855  16.770  14.454  0.2028 -0.1497  0.0322
29701W        W45510   6.634   8.739   4.601  0.0046 -0.0211 -0.2770
29702W        W45511   2.828  16.584   2.900  0.1515  0.0117  0.1167
29703W        W45512   6.348  12.568  13.608  0.1813  0.2246  0.1168
29704W        W45513   1.272   2.439  11.605 -0.0707 -0.0201  0.3824
29705W        W45514  11.676  10.495   2.046 -0.0371 -0.0950  0.2195
29706W        W45515   0.943  12.531  13.790 -0.1263  0.1411  0.2150
29707W        W45516   1.100  15.972   3.680  0.1117  0.0426 -0.3275
29708W        W45517   6.976   9.597  13.049  0.0324  0.1857 -0.0329
29709W        W45518  13.840   2.961  14.393 -0.1369  0.0837 -0.1161
29710W        W45519   1.877   8.348   4.666  0.0642 -0.0779  0.1874
29711W        W45520  13.032  14.790  14.207 -0.1793 -0.0452 -0.1467
29712W        W45521   0.165  13.568  11.369 -0.2309  0.1753 -0.1410
29713W        W45522  10.382  17.186   0.470 -0.0335  0.1535  0.0236
29714W        W45523   4.069   5.346   4.649 -0.1891  0.0477 -0.1376
29715W        W45524  18.321   4.101  11.981  0.1704  0.0418 -0.1095
29716W        W45525  17.154   1.093   3.907  0.1009  0.0540  0.2313
29717W        W45526   7.585   8.930  13.976  0.0906  0.0694 -0.1618
29718W        W45527   1.254  10.434   0.607  0.0060  0.0657  0.0217
29719W        W45528   5.447  14.365   5.584 -0.1071  0.0194 -0.1232
29720W        W45529   5.882  13.714   5.934 -0.1384  0.0742 -0.3873
29721W        W45530  14.454  10.099  11.302  0.2318  0.1562 -0.1609
29722W        W45531   9.483   0.648  15.283  0.0991  0.2559 -0.1924
29723W        W45532  17.983   3.940   0.304 -0.0842  0.1604  0.5896
29724W        W45533   2.471  10.283   2.022  0.0976 -0.0640 -0.2398
29725W        W45534  14.543  16.073  14.519 -0.0884 -0.3668 -0.1141
29726W        W45535   4.517  16.188  12.664  0.1265 -0.3357  0.0229
29727W        W45536  10.329  16.911  15.140 -0.1480 -0.0430  0.1177
29728W        W45537  10.062   8.277   1.255  0.1229  0.2958 -0.1913
29729W        W45538  14.546  10.235  14.978 -0.1080  0.2122  0.1576
29730W        W45539  11.949   6.501  13.861 -0.1485  0.0477 -0.0409
29731W        W45540   1.631   6.235  12.892 -0.3837  0.2497 -0.1646
29732W        W45541  10.507  15.729  14.462  0.0717 -0.2335  0.1251
29733W        W45542   0.537   2.536  13.066 -0.0958  0.4213  0.0659
29734W        W45543  13.329   0.322   2.364  0.1264 -0.1409  0.1734
29735W        W45544   1.218  12.168   0.411 -0.4400 -0.0577  0.2758
29736W        W45545  12.168  14.362  10.743  0.0925 -0.4394  0.0187
29737W        W45546   2.931  16.398  11.123  0.1366 -0.1632  0.0048
29738W        W45547  12.681   3.371  10.536  0.2955 -0.1781  0.3071
29739W        W45548  15.436  12.167  13.020  0.0025 -0.1556  0.2018
29740W        W45549   1.352   3.228  13.678  0.0285 -0.1037 -0.3220
29741W        W45550  14.133   8.099  12.117 -0.2086 -0.1188 -0.0455
29742W        W45551  12.089   7.541  12.900 -0.1679  0.1731 -0.2831
29743W        W45552   0.459  12.815   5.537  0.0408 -0.0485 -0.2091
29744W        W45553   8.343   6.868   9.534 -0.0593  0.0202 -0.0313
29745W        W45554   7.932  11.685   2.274  0.1807  0.2569  0.1541
29746W        W45555  17.978   8.623   5.833  0.0445 -0.1175 -0.1008
29747W        W45556  16.763   9.754   3.624  0.0839 -0.1171  0.1272
29748W        W45557  11.982   1.889  13.852  0.1677  0.1765  0.2497
29749W        W45558   8.848   8.769  11.080  0.1058 -0.5192 -0.4330
29750W        W45559  18.419  10.377   0.098 -0.2574  0.0954 -0.1182
29751W        W45560   9.551  11.202  13.684  0.0355 -0.1035  0.0094
29752W        W45561   3.508  14.834  15.129 -0.0976  0.2051  0.0108
29753W        W45562   1.743   2.666   2.934 -0.1676 -0.2079 -0.0913
29754W        W45563   9.338   1.020  12.383 -0.0253 -0.3917 -0.0035
29755W        W45564   9.812  14.684  12.114 -0.3510 -0.2540 -0.1360
29756W        W45565  17.172   1.834   1.469 -0.2827 -0.1924  0.0569
29757W        W45566   8.490   5.054   5.345 -0.2378 -0.1457 -0.0153
29758W        W45567  13.029  10.018   3.870  0.0497  0.1658  0.3105
29759W        W45568   3.490   5.441   2.749  0.0950  0.0565 -0.0291
29760W        W45569   4.081   0.627  11.659  0.1342  0.0471  0.4356
29761W        W45570  14.538   9.311   0.710  0.0858  0.0523  0.1683
29762W        W45571   0.625  13.630   3.744  0.2893 -0.2767  0.1053
29763W        W45572  16.745  17.455   4.172  0.2235  0.1884 -0.0311
29764W        W45573   9.256  14.792  11.485 -0.0891 -0.1124  0.0574
29765W        W45574  12.369  14.933  13.798 -0.1033  0.3843  0.0537
29766W        W45575   6.625  10.798   2.640  0.2889  0.0157  0.2870
29767W        W45576  15.809   0.557   0.630 -0.0677 -0.0744  0.1302
29768W        W45577  13.381   6.304   0.094 -0.1041 -0.1543 -0.0692
29769W        W45578   4.977   6.167  15.250 -0.3391  0.0605  0.1712
29770W        W45579   4.750   6.047   4.328  0.0248  0.2216 -0.0490
29771W        W45580  17.056   3.751   5.580  0.0985  0.0006  0.1520
29772W        W45581  18.450  10.375   4.958 -0.0223  0.1221 -0.2328
29773W        W45582   8.873  18.365  14.564  0.0841  0.2390  0.0349
29774W        W45583  13.561   3.759  14.580  0.3145  0.3057 -0.0974
29775W        W45584   3.083  15.147  15.011 -0.0784 -0.0952 -0.1398
29776W        W45585  16.106   6.328   5.244 -0.3734  0.4462  0.1052
29777W        W45586  17.659  10.252   4.438  0.2603 -0.1855 -0.1115
29778W        W45587  17.331  16.961   1.185  0.1618  0.1409  0.2834
29779W        W45588   4.560  16.183  14.546  0.3172  0.0275  0.0797
29780W        W45589   6.913   8.358   5.661 -0.5383  0.0504  0.2960
29781W        W45590   2.845  17.257   4.772  0.2332 -0.3911 -0.0611
29782W        W45591   0.355  14.260   0.724 -0.0901 -0.2752  0.1435
29783W        W45592   5.444   9.600  14.020  0.0970  0.0637 -0.0303
29784W        W45593  15.235  16.131   1.866 -0.1076  0.3014  0.0412
29785W        W45594  12.713   8.683  12.555 -0.0848 -0.5529  0.1270
29786W        W45595  12.884  13.662   5.683  0.0676 -0.0654  0.1983
29787W        W45596  11.982  13.552   4.473  0.0728 -0.2054  0.4427
29788W        W45597  10.613   4.062  11.432  0.0012  0.2185 -0.2257
29789W        W45598   6.471  15.102   3.938 -0.1468 -0.0926 -0.1119
29790W        W45599  15.822   3.594  15.081 -0.1898 -0.0854 -0.0679
29791W        W45600  18.065   2.452   1.507 -0.1572 -0.3062 -0.0912
29792W        W45601  14.219  13.270  15.745 -0.2481 -0.1669 -0.1225
29793W        W45602  13.766   7.350   4.719 -0.0618 -0.1031 -0.1105
29794W        W45603  15.283  15.657  13.053 -0.1000  0.1703 -0.0326
29795W        W45604   9.776  16.905  13.738 -0.1467 -0.3624 -0.2140
29796W        W45605  14.958  16.799   2.562  0.0020 -0.3680  0.3481
29797W        W45606  15.272   2.665   5.055  0.0997  0.0939  0.2985
29798W        W45607  16.152  17.773  14.967 -0.3957 -0.1583 -0.0157
29799W        W45608   9.172  14.547  15.172 -0.0284  0.1107 -0.2692
29800W        W45609  12.682  13.990   3.444  0.0121 -0.1371 -0.1434
29801W        W45610  14.042   1.193   1.729 -0.0766  0.0288 -0.1676
29802W        W45611   4.948  12.222   0.710 -0.2420  0.1197 -0.3112
29803W        W45612  16.193  11.457  11.785  0.0350  0.1865  0.4054
29804W        W45613   6.169  11.732  14.246  0.2927  0.3508 -0.1384
29805W        W45614  16.342  14.460   4.227 -0.3690 -0.1537  0.1289
29806W        W45615  11.792  14.191   3.763 -0.2182 -0.1556  0.0538
29807W        W45616  12.529   5.746  11.744  0.0027 -0.2167 -0.1872
29808W        W45617   0.965  16.992   2.805  0.2354  0.0131  0.1901
29809W        W45618   5.088   7.325   0.726 -0.0045  0.0154 -0.0713
29810W        W45619   9.589   1.092   2.015  0.0451 -0.1952  0.3069
29811W        W45620  10.317   3.579   4.368  0.0314  0.0193 -0.0984
29812W        W45621   9.656  17.994  13.762  0.0972  0.2376  0.0432
29813W        W45622   8.221   2.203  10.578 -0.2755  0.2812  0.2760
29814W        W45623  16.925  15.302   2.577 -0.1688  0.1786  0.2157
29815W        W45624   0.452  11.133   3.334  0.1367 -0.3317 -0.3556
29816W        W45625  17.360  10.914  13.627 -0.1711  0.0528 -0.3660
29817W        W45626   4.629   7.197   6.022 -0.1935  0.0671 -0.3080
29818W        W45627  12.201  11.149  10.958 -0.2337 -0.2219  0.0479
29819W        W45628  12.781  12.145  10.478  0.2754 -0.1186 -0.3837
29820W        W45629   0.527  12.257  12.824  0.1893  0.1899 -0.1496
29821W        W45630   1.835  10.896   1.796  0.3410 -0.1935  0.2017
29822W        W45631  14.585   2.683   2.933  0.1038 -0.2236 -0.0252
29823W        W45632  10.768  10.055   4.072 -0.0139  0.1527 -0.0693
29824W        W45633  12.980  15.241  10.654  0.2229  0.0175 -0.1087
29825W        W45634   0.136   6.372  14.575 -0.1175  0.3205 -0.1112
29826W        W45635   8.241   0.200  12.312 -0.0266 -0.1343  0.0087
29827W        W45636   2.664   6.447  14.407 -0.0476 -0.0119  0.2707
29828W        W45637  15.202   5.474  12.419  0.1216  0.2834  0.0362
29829W        W45638   9.991   4.176   9.716 -0.1164  0.0195  0.2198
29830W        W45639  10.034   4.623  15.655  0.2284 -0.1845  0.0740
29831W        W45640  11.204   9.456   3.058  0.1922 -0.1626  0.1582
29832W        W45641   6.184   1.801   1.408  0.1609 -0.1173 -0.0281
29833W        W45642   7.037  11.540  15.316  0.3379 -0.1058  0.2914
29834W        W45643   3.900   0.064  15.020 -0.0022 -0.1228 -0.1481
29835W        W45644   6.731  11.632   2.878 -0.1634 -0.1900 -0.2394
29836W        W45645  12.990  17.561   4.233  0.0929  0.3193 -0.0138
29837W        W45646   4.752  12.282   5.422 -0.1005 -0.1976 -0.1215
29838W        W45647  17.969   5.524   4.693  0.1302 -0.1661  0.4511
29839W        W45648  15.607   0.917  14.732 -0.1305  0.2533  0.0702
29840W        W45649   3.273   8.835   1.244  0.0631 -0.0501  0.1911
29841W        W45650   6.657  17.231   4.794  0.2147  0.1709  0.2121
29842W        W45651   7.187  12.555   1.359  0.2914 -0.2542 -0.0154
29843W        W45652   7.176   6.810  10.710 -0.2806  0.0343  0.0029
29844W        W45653  11.196  16.405   2.230  0.0885 -0.1950  0.1169
29845W        W45654   4.284  14.058   2.519 -0.1644 -0.0539  0.2241
29846W        W45655   3.913  13.731  14.995  0.2249  0.0181 -0.0848
29847W        W45656   9.892   4.777  12.748  0.0005  0.4380 -0.2611
29848W        W45657  10.707   2.280  11.504  0.2267 -0.0195 -0.0724
29849W        W45658  16.412  11.698   2.635 -0.0590  0.0962  0.0353
29850W        W45659  17.878  13.622  14.786  0.0209 -0.2524 -0.1599
29851W        W45660  15.539   3.054   2.992  0.1016 -0.4756 -0.0521
29852W        W45661   5.779  13.074  15.800 -0.2433  0.0021  0.0739
29853W        W45662   0.312   5.216   4.682 -0.0861  0.1854 -0.1244
29854W        W45663   1.566   2.069  13.168  0.0395  0.2261  0.0592
29855W        W45664  14.712  17.308  15.130 -0.0805  0.0990 -0.0298
29856W        W45665   9.975  10.345   3.677 -0.0434  0.0559 -0.0766
29857W        W45666   6.090   6.961  11.416 -0.2220 -0.0588  0.1777
29858W        W45667   2.085   0.481  15.365 -0.1039  0.2403 -0.0651
29859W        W45668  11.084  10.838   4.288 -0.0654  0.1605 -0.0349
29860W        W45669  12.037  12.437  15.148 -0.1607  0.2327 -0.0184
29861W        W45670  14.171  15.693  15.246 -0.2206  0.3951  0.2132
29862W        W45671  10.470  13.591  11.592  0.2235  0.2880  0.2760
29863W        W45672   2.123   7.790  14.406  0.0502  0.1451 -0.2259
29864W        W45673   1.961   9.369  14.299 -0.1837  0.2481 -0.1558
29865W        W45674   8.002   6.225   4.384 -0.3724 -0.0602  0.1767
29866W        W45675  10.856   0.546   2.390 -0.2586  0.2347 -0.1578
29867W        W45676  17.790  15.912  13.740 -0.0326 -0.1046 -0.0876
29868W        W45677  10.448   5.525  12.975  0.0763 -0.0549 -0.0288
29869W        W45678   2.634   2.249   3.885  0.1528  0.0337 -0.0636
29870W        W45679   4.511  16.966   2.148 -0.0082  0.4274 -0.1308
29871W        W45680   4.580   8.792   2.854  0.0386 -0.1239 -0.2640
29872W        W45681  17.821  13.946   4.296  0.0108  0.0379  0.2220
29873W        W45682  17.076   3.707   6.080  0.5417 -0.1071  0.3891
29874W        W45683   1.985   2.487   0.446 -0.2609  0.1853 -0.1525
29875W        W45684  15.138   8.898  11.010 -0.1882 -0.1388  0.0990
29876W        W45685  14.965  14.385   1.049 -0.1824 -0.0894  0.0557
29877W        W45686  10.112   0.698  10.863 -0.0073 -0.2012 -0.0567
29878W        W45687   7.624  15.922  14.460 -0.1558  0.0792  0.1212
29879W        W45688  17.256   9.807  14.482 -0.0085 -0.2254  0.1683
29880W        W45689   9.818   1.468   1.470 -0.1778 -0.2621 -0.3335
29881W        W45690   7.414   7.301   9.944  0.1521  0.1122 -0.3420
29882W        W45691  11.301   1.685   1.710 -0.0633 -0.0239  0.1719
29883W        W45692   4.125  11.451  11.192 -0.0952 -0.1612  0.2584
29884W        W45693  13.403  10.349   1.123 -0.0578  0.3076 -0.0202
29885W        W45694  10.658  12.084  15.260  0.0312 -0.0211  0.4458
29886W        W45695   3.761   7.792   4.710 -0.0677 -0.4779 -0.0602
29887W        W45696   9.536  13.917   3.123 -0.0143  0.2395 -0.0326
29888W        W45697  12.775   8.318   3.142 -0.0619 -0.1071  0.1129
29889W        W45698   3.910  14.059  12.303  0.0069  0.2101 -0.0775
29890W        W45699  10.125  12.236   3.295  0.2719  0.4060  0.0278
29891W        W45700  16.105  15.771  13.751 -0.3486 -0.1276 -0.1944
29892W        W45701   2.851  16.957  12.565 -0.2847 -0.0736 -0.0651
29893W        W45702   9.682   1.749  12.482 -0.2689 -0.1755  0.1803
29894W        W45703   1.114  14.598  15.808 -0.0734  0.1017 -0.2989
29895W        W45704   3.567   5.084  14.687  0.0656 -0.0276  0.1929
29896W        W45705   4.466   2.977   2.472  0.1086  0.2742  0.3066
29897W        W45706  13.351  12.773  14.207  0.1361  0.2136 -0.2960
29898W        W45707   6.618   2.340   2.760 -0.4017 -0.1005 -0.2751
29899W        W45708  14.641  15.220   1.617  0.1577 -0.2210  0.1027
29900W        W45709   3.404   0.239  12.175  0.0386  0.0608  0.1338
29901W        W45710  11.890   0.381  13.779  0.2978 -0.1592  0.1396
29902W        W45711   6.806   2.304  14.565 -0.0463 -0.1422 -0.0013
29903W        W45712  11.196  12.343   4.917 -0.2599 -0.0478 -0.0445
29904W        W45713   0.762   5.736  15.133  0.0568 -0.2616 -0.3076
29905W        W45714   8.089  13.977   3.929  0.0558  0.0818 -0.0163
29906W        W45715  13.406  12.508   1.674  0.3446 -0.1402 -0.2129
29907W        W45716   1.769  15.215  12.042 -0.2322 -0.1287 -0.1397
29908W        W45717  14.835  16.977   2.091 -0.0165 -0.0109 -0.1566
29909W        W45718  12.102  12.561   4.446  0.2875 -0.0563 -0.3017
29910W        W45719  10.396  15.398   0.631 -0.0909  0.1050 -0.1990
29911W        W45720   6.177   9.282   0.500 -0.0465  0.0541  0.2476
29912W        W45721  15.897   6.595   9.892  0.0895  0.2321 -0.0005
29913W        W45722  14.090  10.378  11.590 -0.2475  0.1478  0.0144
29914W        W45723   7.843   2.616  10.607  0.0132  0.1909  0.0495
29915W        W45724  17.350  18.403   0.344  0.0661 -0.1817  0.2439
29916W        W45725   4.843  14.924  11.985  0.1149  0.1020  0.0456
29917W        W45726  13.642   2.581   0.481 -0.0534  0.4370  0.0347
29918W        W45727  18.450  17.695   0.997 -0.0419  0.1132  0.0400
29919W        W45728  18.019  16.444  11.586  0.0594 -0.0324  0.1019
29920W        W45729  13.280   8.539  14.201 -0.0971 -0.1463  0.3401
29921W        W45730   2.342   3.957   0.503 -0.0242 -0.0849  0.1806
29922W        W45731  17.062   3.868   0.945 -0.0759 -0.1547  0.1320
29923W        W45732   0.659   9.075  13.529  0.1964 -0.2173  0.0503
29924W        W45733  13.894   8.928  12.389  0.0195  0.1144  0.0344
29925W        W45734   3.575   7.479   5.401 -0.0255  0.2140  0.2454
29926W        W45735   0.752  14.495   1.275 -0.4191  0.1912 -0.0858
29927W        W45736   2.127   4.769  11.198  0.4794 -0.1144 -0.2412
29928W        W45737   3.084  17.270   3.458 -0.1440  0.1812 -0.1785
29929W        W45738  17.281   5.550   3.409  0.1209 -0.0983  0.0835
29930W        W45739   6.897   6.583  14.354 -0.2437 -0.0352 -0.0950
29931W        W45740  18.357   8.353   5.669 -0.2470  0.1076  0.0028
29932W        W45741  10.925   4.496   5.176  0.2189 -0.2597 -0.0595
29933W        W45742   7.417   3.669  11.573 -0.0491 -0.0473 -0.3283
29934W        W45743   7.061  14.495   4.854  0.0489  0.4007  0.1150
29935W        W45744  13.448  16.892  14.457 -0.0701 -0.0137 -0.1388
29936W        W45745   6.845   5.762   4.772 -0.1364  0.1698 -0.1887
29937W        W45746   1.487  12.811  15.506 -0.1440 -0.0345  0.1948
29938W        W45747  16.962   5.749  13.856  0.0482  0.0191 -0.0801
29939W        W45748   3.825  17.991   1.557  0.1163 -0.0178 -0.0278
29940W        W45749   5.548  10.958  14.617 -0.0633  0.1277 -0.0684
29941W        W45750   2.513   2.657  14.478 -0.1078 -0.0773  0.0431
29942W        W45751   5.689   3.590   3.369  0.1897 -0.1371 -0.1248
29943W        W45752   7.558  11.539   0.423  0.0751 -0.1742  0.2026
29944W        W45753   6.782  13.333  11.665  0.0948  0.1047  0.0565
29945W        W45754  15.356  13.642   4.298  0.0208  0.1288  0.0293
29946W        W45755   9.685  15.950   1.759 -0.1037 -0.0300  0.4783
29947W        W45756  15.838  11.400   4.376 -0.0351  0.0580 -0.1961
29948W        W45757   1.927   5.061   2.580  0.1123 -0.3117  0.1408
29949W        W45758   5.559   8.151   1.867  0.4686  0.1480 -0.2592
29950W        W45759  18.015  11.768   1.416 -0.1663  0.2184 -0.0646
29951W        W45760  12.529  15.818   3.148 -0.2484 -0.0742 -0.1109
29952W        W45761  17.453   4.555   3.588 -0.1617 -0.3468 -0.2014
29953W        W45762  17.609  11.529   1.250 -0.4685 -0.2856 -0.3232
29954W        W45763   2.849  10.942  12.755  0.1707  0.0458  0.1305
29955W        W45764   1.654   8.169  12.824 -0.2326  0.2470 -0.1180
29956W        W45765   5.459   3.785  14.164 -0.1949  0.0238 -0.2033
29957W        W45766   9.948  16.781  15.439 -0.3056 -0.2151  0.1099
29958W        W45767   2.884   0.763   1.929 -0.5309 -0.0686 -0.0533
29959W        W45768   2.023  13.028   4.877  0.0801  0.1982 -0.1333
29960W        W45769   9.190  11.345   5.241 -0.0884 -0.0033 -0.1185
29961W        W45770   8.908  16.554  13.304  0.1134 -0.1264  0.0251
29962W        W45771   7.562   8.666   0.196 -0.1785  0.0550  0.1841
29963W        W45772  15.935  13.158   0.333 -0.1013 -0.1901 -0.2512
29964W        W45773   9.155  13.643   4.945  0.2485 -0.0614 -0.1728
29965W        W45774   7.709   2.189   4.785  0.0687 -0.0560  0.2313
29966W        W45775  10.813  14.033   3.711  0.0011 -0.0150  0.0442
29967W        W45776   3.357   9.745  13.250  0.1392 -0.1614 -0.0413
29968W        W45777   6.614   9.661  13.366 -0.0894  0.0102 -0.0682
29969W        W45778  16.425   4.213   9.743 -0.3358 -0.0397 -0.0438
29970W        W45779   2.518   5.679  15.851  0.0092 -0.1608 -0.1241
29971W        W45780  13.118  12.313   0.886 -0.0775 -0.1615  0.1546
29972W        W45781  15.984  16.008   9.719  0.2897  0.1755 -0.0848
29973W        W45782  12.186  14.568  13.066  0.0618  0.3576  0.2865
29974W        W45783  16.827  14.937   1.910 -0.1361  0.0563  0.1449
29975W        W45784   6.781  11.865  15.715 -0.1646  0.0415 -0.1772
29976W        W45785  15.652   2.780   5.381  0.1645  0.1364 -0.0027
29977W        W45786   6.433  16.869   3.260  0.1141  0.1211  0.0775
29978W        W45787   4.607  14.271  14.514  0.0065  0.1302  0.0138
29979W        W45788  17.244   0.657  15.824 -0.0586 -0.0437  0.1977
29980W        W45789  13.788   4.014  14.995  0.3038  0.3213 -0.2464
29981W        W45790  16.817   0.905   0.076  0.0459 -0.2866 -0.1160
29982W        W45791   7.886   6.796   3.564 -0.1340 -0.0068 -0.2698
29983W        W45792   2.349  15.472   2.819  0.2431 -0.1320 -0.1782
29984W        W45793  10.219  17.728   3.102 -0.1662  0.1032  0.1531
29985W        W45794  13.278  15.174  11.084  0.0666 -0.0250 -0.1649
29986W        W45795  14.593  18.220   1.509  0.1193  0.1716 -0.1168
29987W        W45796   7.124   7.817  12.578  0.0519 -0.1811 -0.0607
29988W        W45797   2.202   8.760   1.111  0.2219 -0.2354 -0.0299
29989W        W45798   7.638   5.291  12.813 -0.0231  0.0206  0.3476
29990W        W45799  10.184  12.378   4.244 -0.2869 -0.0424 -0.1584
29991W        W45800   4.779   4.867  15.325  0.0936  0.0653  0.0676
29992W        W45801  15.055  13.951  10.862 -0.0009 -0.1180 -0.0880
29993W        W45802  15.594  15.203  14.510  0.1798 -0.0428 -0.0001
29994W        W45803   9.763  11.870   3.087  0.4226  0.0091  0.2014
29995W        W45804   2.691  10.506   0.565 -0.1910 -0.2664  0.0275
29996W        W45805   9.116  10.858   0.722  0.0719  0.1160  0.0154
29997W        W45806   0.176   6.156  10.302 -0.0708  0.2723 -0.2579
29998W        W45807  13.860  15.463   5.305  0.0866  0.0440 -0.0040
29999W        W45808  12.526   7.293  15.428 -0.4079  0.0458 -0.0326
30000W        W45809  14.729  16.112   1.800 -0.2039 -0.0964  0.2538
30001W        W45810   7.795  14.338   0.368  0.0573  0.0168 -0.5078
30002W        W45811   1.008   0.472   3.883  0.0732  0.1128  0.1704
30003W        W45812  13.831  15.015  10.339 -0.4570 -0.1339 -0.1702
30004W        W45813  15.208  14.286  15.786  0.0949 -0.1343  0.1135
30005W        W45814   7.602   6.657   1.245  0.3298  0.0726  0.1581
30006W        W45815  10.054  15.535   4.852  0.0101  0.1011 -0.2329
30007W        W45816  18.459  16.031   3.574 -0.1796 -0.1450  0.1703
30008W        W45817  12.851  17.144   9.903  0.1067 -0.0288  0.0225
30009W        W45818   4.754   3.092  14.709 -0.2841 -0.1050 -0.0776
30010W        W45819   8.360  14.021   2.646 -0.2749  0.0722  0.4413
30011W        W45820   8.039  10.410  11.641 -0.1664 -0.2532 -0.1568
30012W        W45821   4.381  16.310  15.817 -0.1122  0.2465 -0.0645
30013W        W45822   2.987   7.003   1.312 -0.1343  0.4104  0.0757
30014W        W45823   9.448   2.145  11.970  0.2173  0.0143 -0.2790
30015W        W45824  12.068  15.949  13.953  0.2507 -0.1028  0.0632
30016W        W45825   6.734  11.821   1.113 -0.2084  0.0422  0.0340
30017W        W45826  13.780   2.339  15.146 -0.1228 -0.2550  0.0740
30018W        W45827  10.934  16.566  14.455  0.0105 -0.1968 -0.1616
30019W        W45828  11.977   7.548   3.774  0.0287 -0.0984 -0.0020
30020W        W45829   2.642   4.503  13.935 -0.5857  0.1112  0.0956
30021W        W45830  13.390   1.647   1.975 -0.1094 -0.0235 -0.4555
30022W        W45831   2.936  12.777   2.640 -0.0239 -0.1867 -0.0962
30023W        W45832  11.272   5.391   4.285 -0.0299 -0.0306 -0.5975
30024W        W45833  10.254  11.711   3.065  0.1090 -0.0993  0.2716
30025W        W45834   1.935  10.944   0.091 -0.0763  0.0456 -0.3032
30026W        W45835   8.149   4.618   3.906  0.1147  0.2482  0.2108
30027W        W45836   1.465  17.105   4.256  0.3920  0.3289 -0.1600
30028W        W45837   7.018  16.649  13.121 -0.1595 -0.1456  0.4434
30029W        W45838   0.689  13.488   4.824  0.1149 -0.0302 -0.0378
30030W        W45839  12.646  15.888   5.068  0.1147  0.3200  0.0488
30031W        W45840  14.749  16.938  10.821 -0.0064  0.4902 -0.2985
30032W        W45841   9.365   6.330  14.910  0.2229 -0.0413  0.1747
30033W        W45842   6.017  17.289  13.021 -0.1187 -0.2153 -0.2464
30034W        W45843  14.722  11.660  15.354  0.0639  0.2283  0.4054
30035W        W45844   4.637   8.489  15.431  0.2244  0.2351  0.1837
30036W        W45845  10.207  16.065  14.200  0.1295 -0.2669  0.1204
30037W        W45846  11.469   9.934   0.658 -0.1011  0.0354 -0.2500
30038W        W45847   3.222   2.509   2.446  0.0440  0.3036 -0.0020
30039W        W45848   8.726   3.116  13.603 -0.0320  0.2178  0.0957
30040W        W45849  12.857  16.924   4.757  0.3535 -0.0699 -0.0658
30041W        W45850   7.777   5.956   1.113 -0.1814  0.2119 -0.1639
30042W        W45851  13.662   4.350  11.945  0.0814  0.1357 -0.0101
30043W        W45852  10.180  14.112   3.626  0.0617  0.0565  0.0161
30044W        W45853   4.994  10.740   1.830 -0.1212  0.0297  0.0016
30045W        W45854  14.316  10.723  14.926  0.4329  0.1950  0.4319
30046W        W45855   2.482   0.011  12.025 -0.1229  0.0260  0.1958
30047W        W45856   6.098   8.766   1.966 -0.1546 -0.0750 -0.2904
30048W        W45857   2.762   4.000  13.539  0.1123 -0.2686 -0.0993
30049W        W45858  14.630  13.338  12.783 -0.1951 -0.0346 -0.4310
30050W        W45859   5.503   1.251   4.318  0.1104 -0.0714  0.0856
30051W        W45860   3.174  16.000   0.791  0.3590 -0.0172 -0.1457
30052W        W45861  11.846  17.026  13.543  0.2108  0.1725  0.0151
30053W        W45862   2.437   5.233  13.403  0.1384 -0.0904  0.0662
30054W        W45863  15.278  14.366   3.585  0.1296 -0.1529 -0.2045
30055W        W45864  18.372  12.445   1.890 -0.0483  0.0589 -0.0999
30056W        W45865   0.164  14.334   2.790 -0.0494 -0.0765 -0.0398
30057W        W45866   9.006   8.464   1.852 -0.0260 -0.0957 -0.3435
30058W        W45867  17.507  16.938   0.024 -0.4422  0.0487 -0.2269
30059W        W45868   0.737   5.175  14.817  0.0243  0.3293  0.2054
30060W        W45869  16.080  10.448   3.916 -0.1964 -0.1083  0.2341
30061W        W45870  10.947  15.200  11.324 -0.0981  0.3313  0.1177
30062W        W45871   5.326   5.735   2.544  0.0155 -0.0710  0.2747
30063W        W45872  12.086  11.732  12.393  0.0408  0.4985  0.0986
30064W        W45873  14.869  17.077  13.689 -0.0798  0.1337  0.4316
30065W        W45874   0.003   3.491  13.944  0.3496  0.1485 -0.0558
30066W        W45875   4.378   5.468  15.593 -0.2261 -0.1641 -0.3812
30067W        W45876   7.691   4.408   3.211 -0.0095  0.0190  0.2555
30068W        W45877   6.349  12.786  15.285  0.0366 -0.3416 -0.0122
30069W        W45878   3.879  14.116   4.296 -0.1301 -0.0912  0.1302
30070W        W45879   7.569   7.360   4.183  0.0837  0.1092  0.3084
30071W        W45880  10.521   6.823   3.827  0.0733 -0.0349  0.0355
30072W        W45881   2.105   0.920  13.125 -0.5389  0.1774 -0.2693
30073W        W45882  18.299   5.341  11.061 -0.1233 -0.2740 -0.0003
30074W        W45883  12.740  12.956   0.771  0.0433  0.0099  0.0408
30075W        W45884  11.096  11.178   2.257 -0.3092 -0.0052 -0.0260
30076W        W45885   6.912   9.181   2.264  0.1127  0.1598 -0.0213
30077W        W45886  10.890  11.189  11.291 -0.0645  0.1858  0.1675
30078W        W45887   9.137   4.643   2.523 -0.1225 -0.0082 -0.3822
30079W        W45888   6.145   4.636   4.991  0.2506 -0.1013  0.1769
30080W        W45889   7.862   7.969  12.104  0.4016 -0.1412  0.0807
30081W        W45890   8.144   1.008   2.052  0.2507  0.0542  0.0022
30082W        W45891   9.207  13.837   1.815 -0.0204  0.0485 -0.3547
30083W        W45892  11.718  14.551  13.472  0.2498 -0.0356  0.1351
30084W        W45893   5.300  13.706  11.805  0.1300 -0.2519 -0.2967
30085W        W45894   6.200   0.199   3.336 -0.1859  0.2626  0.2929
30086W        W45895   3.348  12.685  10.947  0.0487 -0.1113  0.0344
30087W        W45896   9.107  16.636   0.645  0.0015 -0.1566 -0.0465
30088W        W45897   7.158   9.253   1.823 -0.2025  0.2505 -0.0059
30089W        W45898  12.418   0.748  15.194 -0.1159 -0.3406  0.1675
30090W        W45899  16.898  12.658   4.823  0.3530  0.1902 -0.0114
30091W        W45900  17.713  18.329   5.886  0.1915 -0.1368 -0.0697
30092W        W45901   0.448   5.518   1.723  0.0481  0.2638  0.3036
30093W        W45902  12.029  14.089  13.524 -0.0387  0.1720 -0.1156
30094W        W45903  10.146   3.839   3.917 -0.2115  0.2018 -0.3424
30095W        W45904  13.713  13.287   4.790  0.1198 -0.4043 -0.0674
30096W        W45905   4.291  17.890   4.257  0.2897  0.3010  0.0311
30097W        W45906  14.789   9.732   4.470 -0.0209 -0.1939  0.1275
30098W        W45907   7.229   7.536   1.110  0.3449 -0.0749 -0.1835
30099W        W45908   9.711  15.007   4.462 -0.1870  0.0131 -0.2180
30100W        W45909   2.057   0.922   0.943 -0.1126 -0.1141  0.1377
30101W        W45910  12.137   0.807  11.877  0.0855 -0.0466  0.0744
30102W        W45911  18.276   6.103  14.248  0.0758 -0.1449  0.2580
30103W        W45912  10.987   5.884   1.348 -0.1784  0.0561 -0.0283
30104W        W45913  10.160   7.859   0.332 -0.2772 -0.0232 -0.1940
30105W        W45914   6.348   0.797   1.554 -0.1658 -0.0704 -0.0493
30106W        W45915  17.424   1.977  12.502  0.1798  0.0058  0.0577
30107W        W45916  12.409   9.786  12.673 -0.0050  0.0048  0.1242
30108W        W45917  15.060   4.019  11.871  0.2436 -0.3090 -0.1660
30109W        W45918   1.703   4.345  14.046 -0.2062  0.1004 -0.0145
30110W        W45919   3.332  18.320   4.368 -0.1260 -0.2316  0.0351
30111W        W45920   1.921   6.813  10.267  0.2907 -0.1313 -0.1443
30112W        W45921  15.038  10.485  13.293  0.1784 -0.1713  0.0487
30113W        W45922   5.354   3.674  15.320 -0.0717  0.0133  0.1831
30114W        W45923   5.569  17.370  12.022  0.1179 -0.1335  0.0010
30115W        W45924  10.785  13.385  12.504 -0.1576 -0.1785 -0.0116
30116W        W45925  15.914  10.390  14.600 -0.0193 -0.0335 -0.0240
30117W        W45926  12.323   9.766  11.902 -0.1780  0.1129  0.2165
30118W        W45927   5.282   0.755  11.940 -0.0706 -0.1385 -0.3864
30119W        W45928   6.080  17.749  12.770  0.0323 -0.1437 -0.1259
30120W        W45929  11.246   7.707   1.568  0.2247  0.0330 -0.3190
30121W        W45930  13.503   1.627  14.553 -0.1922 -0.1422 -0.2176
30122W        W45931  10.588  12.294  13.751  0.0562 -0.1640  0.2099
30123W        W45932  18.367  13.012   1.653 -0.1384 -0.2048  0.1435
30124W        W45933  14.491   0.703   5.037  0.4847  0.1483  0.1497
30125W        W45934   9.432  17.922   4.263 -0.0850  0.3042 -0.1256
30126W        W45935  17.409  16.201   4.931  0.2137 -0.1975 -0.1501
30127W        W45936   3.265  12.875   3.234  0.0406  0.0740  0.0064
30128W        W45937  13.681  13.762   6.050 -0.0241  0.2853  0.0713
30129W        W45938  15.222  10.779  13.669 -0.3362  0.1477 -0.0587
30130W        W45939   8.926  16.121   0.486  0.2914 -0.0717  0.3246
30131W        W45940  14.123  11.552  14.030 -0.2359 -0.2829 -0.1117
30132W        W45941   3.941  11.112  10.841  0.3792  0.1892  0.1761
30133W        W45942   3.110   0.642  12.416  0.0346  0.0753 -0.3189
30134W        W45943   8.054   1.952   0.992 -0.0987 -0.0073  0.1266
30135W        W45944   0.120  14.201  12.222 -0.2006 -0.1123  0.0138
30136W        W45945  16.182   6.862  14.174 -0.1316 -0.0321 -0.0154
30137W        W45946   4.328  11.897  12.899  0.2350 -0.1306 -0.1159
30138W        W45947  16.369  14.017  12.500 -0.1147  0.2237 -0.1185
30139W        W45948   8.157   1.869   2.458 -0.0681 -0.2338 -0.0212
30140W        W45949  17.645  16.001  11.242 -0.2171 -0.2303 -0.0568
30141W        W45950   3.021  10.259   2.008 -0.3771  0.0300 -0.1447
30142W        W45951  17.808  10.285   1.216 -0.0154 -0.0753  0.1749
30143W        W45952  14.838   1.214   2.569  0.1004 -0.2805 -0.0360
30144W        W45953  12.137   6.201  11.060 -0.0525  0.1306 -0.1867
30145W        W45954   9.791   5.547   5.068 -0.0882 -0.0041  0.0660
30146W        W45955   6.055  16.148  15.166 -0.0637  0.0768  0.0604
30147W        W45956   2.734  14.801   3.090  0.0597  0.0554  0.1464
30148W        W45957   5.822   8.629  14.881  0.0839  0.1085  0.2688
30149W        W45958  14.725   7.974  13.889  0.0478  0.1008 -0.2110
30150W        W45959   8.526  10.590   3.280 -0.0542  0.0122  0.0262
30151W        W45960  15.264  14.271   4.258  0.0887 -0.1451  0.0364
30152W        W45961  10.894  17.517  14.570 -0.1763  0.1883  0.3677
30153W        W45962  12.776  11.567   1.253  0.0413  0.0384 -0.0437
30154W        W45963   2.847   0.884   3.283  0.0543  0.3074  0.0694
30155W        W45964  11.040  10.766   4.868 -0.1319 -0.0246  0.1650
30156W        W45965   0.773  13.214  12.322  0.1499 -0.1502  0.4245
30157W        W45966  17.859  13.574   3.299  0.1437 -0.1286  0.1226
30158W        W45967   5.068   6.884  13.584  0.1106 -0.3988 -0.1197
30159W        W45968   7.215   9.237  12.787  0.0940  0.0469 -0.1846
30160W        W45969   3.504   6.770  13.155 -0.1105 -0.1590  0.2181
30161W        W45970  15.007  14.805   3.369 -0.0606 -0.1985 -0.0834
30162W        W45971  11.769  16.968   1.065  0.2201  0.0185 -0.2085
30163W        W45972   6.622  13.354   0.130  0.2820 -0.1774 -0.1417
30164W        W45973   7.904   5.239  11.931  0.2913 -0.1114  0.0279
30165W        W45974  10.867  17.304  12.559  0.0457  0.0043  0.0352
30166W        W45975   4.908  15.909   1.981  0.1774 -0.0504 -0.1537
30167W        W45976  12.015   1.144   2.027  0.2089 -0.1187 -0.0864
30168W        W45977   5.654  11.709  15.614  0.2062 -0.0036 -0.0248
30169W        W45978  10.227  15.690  11.162  0.1842  0.2939 -0.1061
30170W        W45979  10.251   7.793  14.144 -0.0478  0.1004 -0.2982
30171W        W45980  10.190  11.149   2.782 -0.5755  0.0174  0.0842
30172W        W45981   5.213  10.229  10.101 -0.1738 -0.0362 -0.0016
30173W        W45982   4.975   3.191   0.760  0.4299  0.0134 -0.1748
30174W        W45983  11.945  14.682  14.477 -0.3443  0.0222 -0.0475
30175W        W45984  11.113  16.978   0.342  0.1716  0.0900 -0.0728
30176W        W45985  18.315  15.531   1.371 -0.2574 -0.1019  0.1848
30177W        W45986  11.633  15.357  10.821  0.2188 -0.1462  0.2165
30178W        W45987   6.010  17.059   4.069  0.0259  0.2354 -0.2526
30179W        W45988   3.746   8.051   1.157  0.0505 -0.2778 -0.0691
30180W        W45989   0.463  11.982  15.151 -0.0958  0.1854  0.1241
30181W        W45990  16.653   0.890  15.066 -0.2375  0.1693 -0.0924
30182W        W45991  11.265   1.193   2.550  0.2562 -0.2461  0.0181
30183W        W45992   3.384   6.133   3.997 -0.0672 -0.0853 -0.1704
30184W        W45993   6.310   6.957   3.610 -0.0787 -0.1475 -0.0044
30185W        W45994   4.812   9.949  11.877  0.0396 -0.1714 -0.1584
30186W        W45995  16.678   9.038  12.323  0.2461 -0.2307 -0.0520
30187W        W45996   8.965   5.281   5.592  0.0200  0.2042 -0.0610
30188W        W45997   4.683  12.772  11.334  0.0805  0.0953  0.1543
30189W        W45998   4.822  13.202   1.129 -0.0471  0.3133  0.2063
30190W        W45999  16.959   5.207   1.639  0.0983  0.0084 -0.0726
30191W        W46000   6.534  10.730  11.813  0.1004 -0.0117  0.1248
30192W        W46001  17.547  16.297   4.451  0.2054  0.5395 -0.3157
30193W        W46002   8.230  11.567  14.631  0.1129 -0.0020  0.0183
30194W        W46003   8.574  11.236   2.015 -0.2943 -0.0504  0.1457
30195W        W46004  17.896  12.674   1.930  0.0686  0.2144 -0.1407
30196W        W46005  16.504  15.047  15.091 -0.0245 -0.2568 -0.0848
30197W        W46006  12.144   4.568  11.947 -0.1408 -0.1922 -0.1217
30198W        W46007  16.225  15.428  10.809 -0.1019  0.0615 -0.0036
30199W        W46008  10.013   8.771  12.475 -0.4531 -0.1094  0.1633
30200W        W46009   5.995  12.068   3.505 -0.0507 -0.0653  0.0484
30201W        W46010  13.505  16.280   4.007  0.3340 -0.1412 -0.3492
30202W        W46011  16.147   5.671   1.939 -0.3052  0.1851 -0.1424
30203W        W46012   9.947   1.230  14.330 -0.1505  0.1163  0.4309
30204W        W46013  14.966  15.360   4.249 -0.5284 -0.1107 -0.0368
30205W        W46014  11.846  14.310   2.048 -0.1379 -0.2946  0.1827
30206W        W46015   0.343   1.662   4.849  0.3175  0.1137  0.0777
30207W        W46016  17.300   2.146   1.085 -0.1023  0.0306  0.1223
30208W        W46017   6.318   8.527   2.399 -0.1232  0.0257  0.0528
30209W        W46018   2.440   5.797   3.163  0.3807  0.2851 -0.2803
30210W        W46019   5.615   6.905  13.926  0.1190  0.3358 -0.3108
30211W        W46020   5.717   5.964   2.284 -0.0018  0.0021 -0.0679
30212W        W46021   1.819   0.454   1.070 -0.0297 -0.2383  0.1264
30213W        W46022   8.474   8.780   0.705  0.1237 -0.2403 -0.0696
30214W        W46023   3.743   5.344   5.514  0.0003  0.1450  0.0172
30215W        W46024   7.768  13.210   2.493  0.0660 -0.2368 -0.1504
30216W        W46025   1.847   9.881  11.162 -0.2855 -0.0543 -0.0397
30217W        W46026   7.321  17.762  10.884 -0.0423  0.1437  0.0746
30218W        W46027   2.302   1.514  11.707  0.1512 -0.2043 -0.1458
30219W        W46028  11.440  16.375  14.474  0.0110  0.2937 -0.0600
30220W        W46029   0.436  16.114   3.130  0.2942 -0.0370  0.1044
30221W        W46030   4.836  14.125  10.877  0.1969 -0.1317  0.3897
30222W        W46031  18.189   8.443   4.282 -0.3032  0.0617 -0.2658
30223W        W46032   1.626   5.370  15.768  0.0518 -0.0090 -0.2493
30224W        W46033   2.221  18.383  15.470 -0.1912 -0.2215  0.3273
30225W        W46034   9.483   6.159   4.429  0.0780  0.0279  0.0155
30226W        W46035  14.350   3.990   0.133  0.0570  0.2844  0.3144
30227W        W46036   4.915   1.411   3.763 -0.0275  0.1197 -0.2611
30228W        W46037   8.265  12.439   4.196 -0.0946 -0.3338  0.1992
30229W        W46038   4.177  16.657   3.054 -0.0619  0.2003 -0.1938
30230W        W46039  13.584  18.411   5.362  0.1635  0.3122 -0.0254
30231W        W46040  13.221   7.307   3.694  0.0010  0.0827  0.1008
30232W        W46041  12.986  17.372  11.138  0.0516  0.0179  0.0919
30233W        W46042   2.108   3.905   5.061  0.4715 -0.1017 -0.1184
30234W        W46043   6.718   8.261   3.306  0.1510 -0.2563  0.1143
30235W        W46044  12.793  11.171   0.754 -0.0444 -0.1086 -0.0199
30236W        W46045  15.246   4.328  11.550  0.0157 -0.1944  0.3472
30237W        W46046  15.133   1.692   0.826 -0.2043  0.0027 -0.0844
30238W        W46047  12.160   1.053   3.211 -0.0077  0.0336  0.0443
30239W        W46048  18.078   9.804  10.624 -0.1245 -0.0882 -0.2388
30240W        W46049   4.644   1.449   1.328 -0.0641  0.1700 -0.1767
30241W        W46050  14.108   2.514   3.055  0.1619 -0.1885  0.0058
30242W        W46051  12.437   1.385   1.804  0.1080  0.0004  0.1096
30243W        W46052  16.370  14.482   2.815  0.2358 -0.0792 -0.4463
30244W        W46053  16.329   3.868  10.730  0.2335  0.1578 -0.2796
30245W        W46054  18.261  12.423   3.734 -0.0668  0.0405  0.1817
30246W        W46055   4.069   4.180   0.206  0.1286  0.2258 -0.1911
30247W        W46056  15.519  11.903   2.677  0.0437 -0.0851 -0.0592
30248W        W46057  17.058   8.532   0.872 -0.1612 -0.0251  0.0295
30249W        W46058   1.754  17.751  15.609 -0.0352 -0.2115 -0.0829
30250W        W46059   5.932  12.002  11.285 -0.3413 -0.2577  0.2288
30251W        W46060   5.951  18.311  14.461 -0.0323  0.0972 -0.1676
30252W        W46061  11.098   0.077  11.627  0.0868  0.0723 -0.1249
30253W        W46062  16.034   4.869  13.634 -0.0693 -0.1368 -0.1244
30254W        W46063  11.672  16.005   2.464 -0.0676  0.0380 -0.1430
30255W        W46064   3.217  16.642   1.960  0.0264  0.1149  0.2818
30256W        W46065   3.494  11.682   1.585 -0.2496 -0.2164  0.2380
30257W        W46066   3.442  12.686   3.887  0.1116 -0.1290 -0.2359
30258W        W46067  14.983   1.830  10.744  0.2810  0.2447  0.1513
30259W        W46068  11.407  14.473  14.431  0.2070  0.1202 -0.4498
30260W        W46069  16.856  10.626  13.662 -0.2724 -0.2366 -0.1402
30261W        W46070  13.325  17.594   2.892  0.3761 -0.1691  0.0931
30262W        W46071   2.314  17.204   3.105  0.0023 -0.0330  0.3499
30263W        W46072  16.095  12.097   2.753 -0.1645 -0.4243 -0.0221
30264W        W46073  18.310   6.687  15.482 -0.0358  0.1820 -0.2372
30265W        W46074   0.695   9.878  15.168  0.0214 -0.0712  0.1469
30266W        W46075   0.301   6.347   5.326 -0.0714 -0.1180  0.0899
30267W        W46076   2.065   7.674   3.320 -0.0194  0.2261  0.1757
30268W        W46077  13.801   2.074   4.567 -0.2231 -0.0534  0.1017
30269W        W46078  12.848  13.431  13.383  0.0604  0.3755 -0.0921
30270W        W46079   0.581  16.882  12.516 -0.0452 -0.4175  0.1838
30271W        W46080  15.898   9.882  14.637  0.0253  0.1982 -0.2513
30272W        W46081   7.600   4.715  11.232  0.1813 -0.0992  0.1326
30273W        W46082   8.338  11.996  10.981 -0.1154  0.1158  0.0675
30274W        W46083   7.760  15.649  13.540  0.0882 -0.0474  0.0157
30275W        W46084  16.017  17.460  10.977 -0.0283  0.0363  0.0698
30276W        W46085  14.580   8.079  11.286  0.1129 -0.0739  0.0413
30277W        W46086   3.498  17.209  11.742 -0.1255 -0.1563  0.2248
30278W        W46087   5.295  13.544  14.412  0.1244 -0.2987 -0.0514
30279W        W46088   3.768   7.789  13.549  0.1980  0.1053 -0.1433
30280W        W46089   7.708   8.391  13.630  0.0945 -0.1946  0.1219
30281W        W46090   6.042   5.565   2.108  0.3070 -0.2993  0.2595
30282W        W46091  13.833  17.691  11.052  0.2131 -0.1716 -0.3766
30283W        W46092  14.838   6.076   0.450 -0.1171 -0.2746 -0.2014
30284W        W46093   4.913  10.277  14.554 -0.3609 -0.1571  0.0272
30285W        W46094  15.458  12.936   0.411 -0.0235  0.0016  0.2662
30286W        W46095   4.054   4.368   5.945 -0.0446 -0.0317  0.0483
30287W        W46096  14.733  16.457   2.217 -0.0660 -0.2620 -0.1255
30288W        W46097   6.802   3.226  11.069 -0.3530  0.1339  0.5297
30289W        W46098  13.675  17.412   0.636  0.0964  0.0681 -0.1163
30290W        W46099  12.838   6.150  12.718  0.0861  0.0783 -0.0535
30291W        W46100   2.112  11.271  13.894 -0.0090 -0.0902 -0.1747
30292W        W46101   6.124   3.465  13.593 -0.0174  0.2019  0.1541
30293W        W46102  12.205  12.673  15.822  0.0723  0.1026 -0.0736
30294W        W46103  16.185  10.537  11.513 -0.0021 -0.0193 -0.0867
30295W        W46104   0.255   0.837  10.597 -0.2049 -0.1683  0.0464
30296W        W46105  13.046   1.912  15.656 -0.0226 -0.1463  0.1631
30297W        W46106   4.570  13.916  13.214  0.1563  0.0119 -0.0607
30298W        W46107  13.728  15.522   0.672  0.3319 -0.0232 -0.1742
30299W        W46108   1.791   2.515  10.210  0.4556 -0.2295 -0.0246
30300W        W46109   8.032   5.134   0.389  0.2091  0.0045  0.3897
30301W        W46110   6.823  10.335   1.002 -0.2566  0.2510  0.5391
30302W        W46111   4.117   6.859   1.405  0.0117 -0.0807  0.1100
30303W        W46112  16.771   6.283  13.031  0.0258 -0.0058 -0.0709
30304W        W46113  12.742  16.248   1.037 -0.0968  0.1089  0.1331
30305W        W46114   3.210   3.574  12.247  0.0048 -0.0437 -0.0691
30306W        W46115   6.273   3.886  13.963  0.0696 -0.0745 -0.4653
30307W        W46116  14.031  11.859  11.610  0.0129 -0.0272 -0.2529
30308W        W46117   2.924  11.433   5.653  0.0150  0.1786  0.0758
30309W        W46118   6.808   3.731  11.049 -0.0201  0.0196 -0.0276
30310W        W46119  14.038  14.489  15.186 -0.2039  0.1041 -0.1380
30311W        W46120   4.919   7.237   5.185 -0.1676 -0.1222 -0.1009
30312W        W46121   0.622  13.567  11.137 -0.0626 -0.0176 -0.2372
30313W        W46122  18.147  15.106   0.660  0.2447  0.1899  0.0651
30314W        W46123  17.861   2.577  11.050 -0.0567  0.5157  0.1674
30315W        W46124  17.378  13.100  14.097 -0.0704  0.0472 -0.3457
30316W        W46125   1.102   6.424  14.870  0.2406  0.2135  0.1213
30317W        W46126   3.907  11.994  14.387  0.0205  0.1367 -0.2414
30318W        W46127  14.680  14.851  12.954 -0.0834  0.1697 -0.1973
30319W        W46128   0.227  13.821   0.365  0.2386  0.2512 -0.1290
30320W        W46129   1.073   9.309  13.272 -0.1043 -0.2916  0.1367
30321W        W46130  14.315   2.246  14.521 -0.1088 -0.1992  0.4287
30322W        W46131   1.888  10.336  11.935 -0.1270  0.0224 -0.1507
30323W        W46132  14.832   0.587  14.397  0.2589 -0.0643  0.0298
30324W        W46133   8.796  10.234  12.209 -0.1739 -0.0204  0.0482
30325W        W46134  12.175   0.447   5.050 -0.1130 -0.0218 -0.1657
30326W        W46135  15.778   3.281   5.582  0.0609 -0.2469  0.5314
30327W        W46136   2.945   0.773   0.907 -0.1860 -0.0009  0.0500
30328W        W46137   5.194   0.885   0.688 -0.0716 -0.2745 -0.1545
30329W        W46138   6.503   5.655  13.117 -0.1246  0.0002  0.0171
30330W        W46139  17.668   6.561   2.532  0.2223  0.0507 -0.0522
30331W        W46140  10.036  16.775   1.572  0.2405 -0.1524  0.1056
30332W        W46141  13.375  11.217   0.140  0.1693  0.0554  0.3162
30333W        W46142  12.880   0.301   4.438 -0.1253  0.0341  0.0877
30334W        W46143   0.111  10.388   1.895 -0.1318  0.1751 -0.0013
30335W        W46144  11.436  14.262   4.775 -0.0934  0.2644  0.2577
30336W        W46145  15.184  15.402  10.519 -0.2006  0.3668  0.1770
30337W        W46146  13.699  12.354   3.974  0.1708 -0.0419  0.1321
30338W        W46147   5.122  10.862   1.314  0.0879 -0.1241 -0.3509
30339W        W46148   1.524   4.654  14.806  0.0165 -0.1069 -0.1559
30340W        W46149   9.681   9.846   0.208 -0.1308  0.1844 -0.1590
30341W        W46150   0.663  10.227   2.251 -0.0991 -0.0430  0.2009
30342W        W46151   1.412  16.077  15.275 -0.2281  0.1199 -0.3537
30343W        W46152  17.596   1.304  11.872  0.0198 -0.2705 -0.2538
30344W        W46153   1.936  14.705   4.961 -0.1516 -0.0562 -0.2880
30345W        W46154  16.861   4.173   1.542  0.1162 -0.0377  0.1634
30346W        W46155   3.366  11.254  14.123  0.0321  0.0059 -0.2023
30347W        W46156   7.342  13.607   2.673 -0.0986 -0.0671  0.1527
30348W        W46157  10.512   7.454  11.949 -0.0944 -0.0301 -0.0118
30349W        W46158  11.002  17.423   1.062  0.0299 -0.1353  0.2989
30350W        W46159   1.493   9.540  14.971  0.3485 -0.0684 -0.0024
30351W        W46160  18.249  10.927   5.675 -0.0317 -0.1655  0.3046
30352W        W46161   4.086  10.381   2.917  0.2230  0.0439 -0.0335
30353W        W46162   5.033   7.169  14.014  0.0874  0.3462 -0.2933
30354W        W46163   4.471  15.618   0.446  0.0057  0.0484 -0.0510
30355W        W46164   3.729  13.256   3.266  0.0125 -0.0103  0.1083
30356W        W46165   1.961   9.580   4.305 -0.3668  0.1699 -0.5436
30357W        W46166  18.367   6.293   2.928  0.0697 -0.0750 -0.1189
30358W        W46167   6.449  10.706  15.156  0.0564 -0.0753 -0.1317
30359W        W46168   6.020   7.902   2.672  0.1404  0.4311  0.0202
30360W        W46169  17.597  10.710  15.057  0.1175  0.0142 -0.1702
30361W        W46170   5.527   7.582  13.308 -0.0405 -0.1616 -0.2448
30362W        W46171  17.712   1.976   1.352 -0.0550 -0.0878 -0.2372
30363W        W46172   5.484   2.755   3.538 -0.5572 -0.1590  0.0358
30364W        W46173   4.672  13.479  14.549  0.1353  0.0914  0.0615
30365W        W46174   2.446   1.850   2.246 -0.3478 -0.2313  0.2192
30366W        W46175  13.628   5.115   2.157 -0.1815  0.2943  0.1830
30367W        W46176  13.158   2.465  14.397  0.1695  0.3323 -0.0097
30368W        W46177   7.341  16.692  12.596  0.0534 -0.3720 -0.1066
30369W        W46178  18.010   8.137  14.381 -0.1515  0.1044 -0.1028
30370W        W46179   6.908   6.253  13.587 -0.2521  0.1166  0.2475
30371W        W46180  14.820   6.754  14.102 -0.2516  0.0990  0.1234
30372W        W46181  15.629  10.126  14.288 -0.3901  0.2110  0.0309
30373W        W46182  15.932  16.651  12.747  0.1410  0.0548 -0.0134
30374W        W46183  14.105  10.505  10.140 -0.2375  0.4150 -0.1626
30375W        W46184   4.632   6.126  11.185 -0.1120 -0.0264  0.1137
30376W        W46185  16.753   7.683  15.273 -0.1037 -0.3422  0.0045
30377W        W46186   2.969   2.409   4.389  0.1836 -0.0615  0.1111
30378W        W46187   0.407  15.208  15.039 -0.2475  0.0373  0.0302
30379W        W46188   1.260   3.486  11.596 -0.0725 -0.3454  0.1115
30380W        W46189  17.434   1.886  14.421 -0.0585  0.0953  0.2109
30381W        W46190  15.825   2.254   0.462  0.1139  0.1123  0.0832
30382W        W46191  11.357  14.804  13.066  0.0263  0.2626  0.0524
30383W        W46192   1.694   9.736  12.088  0.2288 -0.0525  0.1453
30384W        W46193  10.579   9.364  12.402 -0.1715  0.0863 -0.0703
30385W        W46194  15.593  10.254   0.914 -0.0112  0.4055  0.2194
30386W        W46195  17.068  15.662  14.767  0.1083 -0.0216 -0.0106
30387W        W46196   5.826  10.336  13.911  0.1034  0.2704 -0.2828
30388W        W46197  15.061   9.942   1.230 -0.0190 -0.1079 -0.0477
30389W        W46198   5.527  11.876   1.621 -0.0353  0.0886 -0.1601
30390W        W46199  10.038   5.918  12.858  0.0849 -0.1849  0.0501
30391W        W46200  12.984  12.829  12.294  0.2572  0.0556 -0.1144
30392W        W46201  15.832   6.781   3.414 -0.1514 -0.0758 -0.0785
30393W        W46202  15.337  13.248   3.105  0.1966 -0.1579 -0.1344
30394W        W46203  17.708   0.213   2.858  0.0131 -0.1229 -0.0106
30395W        W46204   2.525   9.138   5.191 -0.1600  0.1742 -0.0849
30396W        W46205  12.801  14.522  14.607 -0.0767 -0.1839 -0.1111
30397W        W46206   2.701  17.402  13.277  0.1188 -0.1702 -0.2207
30398W        W46207   2.760   2.661   0.231  0.2044 -0.2632  0.0261
30399W        W46208  15.689   0.148   3.395 -0.3452  0.1965  0.2861
30400W        W46209   9.270  15.372   4.911  0.0226  0.1098  0.0566
30401W        W46210   3.215   0.871  15.501  0.0666  0.1179  0.0139
30402W        W46211   0.555   2.562  14.768  0.1226 -0.4135 -0.0390
30403W        W46212   7.922   7.096  11.243  0.1416  0.0244 -0.0904
30404W        W46213  15.684   7.507   0.156 -0.3042  0.0453  0.2713
30405W        W46214   2.188  11.174   1.549  0.3305 -0.1434  0.1009
30406W        W46215   4.077  17.997  11.093  0.3288  0.2233  0.1855
30407W        W46216   1.532  16.486  10.108  0.1007 -0.1933  0.0817
30408W        W46217  18.396   0.019  12.239 -0.1901 -0.2213  0.1729
30409W        W46218   0.558  18.146  13.012  0.0833 -0.0695 -0.0628
30410W        W46219  11.973  16.383   4.153  0.2185 -0.1291 -0.0371
30411W        W46220   3.427   4.799  14.283  0.0196  0.0832 -0.0126
30412W        W46221  13.451   0.913   2.571  0.0755  0.3167  0.2594
30413W        W46222   0.292  17.256  15.727  0.4009 -0.0537  0.0609
30414W        W46223  16.360   1.040   3.256 -0.1600  0.0203 -0.0688
30415W        W46224   9.774   4.721  10.380  0.0993  0.0385  0.0246
30416W        W46225   7.008   2.963  13.930 -0.0961 -0.0301  0.3101
30417W        W46226   3.367   9.803  15.575  0.2062 -0.1173  0.0424
30418W        W46227   5.138   1.205   1.161 -0.3264  0.0118 -0.2949
30419W        W46228  12.103  17.667   4.582 -0.1620  0.1156 -0.2767
30420W        W46229   3.707  18.448  12.893  0.0337 -0.2112 -0.2723
30421W        W46230   4.200   8.439  12.603 -0.2252 -0.0717 -0.2466
30422W        W46231  10.619   3.839  15.679  0.0513  0.1488  0.0469
30423W        W46232  13.391   5.383   4.105 -0.0547 -0.1204  0.0751
30424W        W46233  17.893   6.068  15.064  0.6040 -0.0667  0.2172
30425W        W46234  12.058   2.185  12.958  0.1344  0.1877  0.1690
30426W        W46235   3.294  10.567   3.139  0.0319 -0.0184 -0.0619
30427W        W46236   1.416  13.465   1.622  0.2426 -0.0452  0.0699
30428W        W46237   7.887   7.658   2.800 -0.0559 -0.0517 -0.1328
30429W        W46238   3.651  11.767  14.971 -0.0727  0.0842 -0.3852
30430W        W46239  12.627  12.284   5.161 -0.0301  0.0394  0.0884
30431W        W46240  17.810   2.441   1.069 -0.0831 -0.1007  0.1771
30432W        W46241   3.530   0.134   2.977 -0.0540 -0.0984  0.2777
30433W        W46242  13.904  14.287   4.880  0.2135  0.2787  0.0799
30434W        W46243   8.899  11.924  12.214 -0.0402 -0.1529  0.1545
30435W        W46244  14.620  14.248  14.547  0.2722  0.1708 -0.1620
30436W        W46245   2.944   3.711   6.134 -0.0035  0.0861  0.0319
30437W        W46246  11.445   6.322   4.918 -0.0919 -0.2653  0.0460
30438W        W46247   5.867   3.150   3.712 -0.0749 -0.3526  0.4443
30439W        W46248  15.462   9.116   1.299  0.0945 -0.0122 -0.0504
30440W        W46249   7.902  16.524  13.641  0.1810 -0.4330 -0.0376
30441W        W46250  17.626   5.987  11.746  0.0296 -0.0496  0.0966
30442W        W46251  17.009   7.592   4.384 -0.1206 -0.2711 -0.2253
30443W        W46252   5.655  12.586   0.261  0.0911 -0.4089  0.1575
30444W        W46253   7.798   6.786  14.552  0.4263 -0.1274 -0.1678
30445W        W46254   6.156   1.532  14.937 -0.1433  0.1216  0.1026
30446W        W46255   8.750  14.256   3.554 -0.3987 -0.0590 -0.1924
30447W        W46256  16.414   8.548  10.927 -0.3773 -0.0167 -0.0432
30448W        W46257  14.854  15.927  13.023  0.1275  0.0799 -0.0776
30449W        W46258   3.139   4.363  13.597  0.1334  0.2086  0.0650
30450W        W46259  14.730   1.418  11.560  0.3671  0.2643 -0.1719
30451W        W46260  12.147   4.513   0.118 -0.4380  0.1817 -0.1245
30452W        W46261   0.471   2.469   3.783 -0.0472 -0.1073  0.1848
30453W        W46262  15.833   7.845  12.634 -0.0069  0.0992 -0.2189
30454W        W46263  10.339  16.376   4.842 -0.0647  0.0488 -0.1432
30455W        W46264  13.439   4.221  11.086  0.1257  0.0807  0.2511
30456W        W46265  10.297   8.988   0.891  0.0869 -0.2425 -0.0080
30457W        W46266   7.451   6.260   0.927  0.0186 -0.2735  0.0215
30458W        W46267  16.038  17.877  13.428 -0.3420  0.2677 -0.3049
30459W        W46268   5.980   3.321  10.685 -0.3786  0.2833  0.0429
30460W        W46269   0.542  11.652   3.378  0.2271 -0.0226 -0.1153
30461W        W46270   5.148   5.070  15.665  0.2502 -0.1483  0.0359
30462W        W46271  12.817  11.373  13.248 -0.1993 -0.0060  0.1742
30463W        W46272   6.204  11.452   1.356  0.1821  0.2915  0.0069
30464W        W46273  13.732   1.579   0.082  0.1632  0.3786  0.0446
30465W        W46274  10.687   7.745   4.298 -0.0667 -0.0644 -0.1442
30466W        W46275   5.658  13.666   1.326  0.0651  0.1769  0.2123
30467W        W46276  16.537   2.265   4.826 -0.0446  0.0770 -0.0121
30468W        W46277  16.033   2.778  10.272 -0.0192 -0.2564  0.3369
30469W        W46278   7.838  14.458  12.009  0.1842 -0.0939 -0.2407
30470W        W46279  12.848   4.476  13.550 -0.0095 -0.1459  0.1931
30471W        W46280   8.732   4.574  12.086 -0.0303 -0.1480 -0.0139
30472W        W46281  14.999  11.127   2.618  0.0239  0.0994 -0.2965
30473W        W46282  17.153  14.337   0.965  0.2887 -0.3566  0.1365
30474W        W46283   1.354   5.002   1.678  0.0531 -0.0894  0.1228
30475W        W46284  15.726  17.488   2.075  0.4691  0.1370 -0.2621
30476W        W46285   0.322   2.515  12.607 -0.0491 -0.0936 -0.0595
30477W        W46286  16.330   5.402  12.166 -0.1578  0.2120 -0.0718
30478W        W46287   1.737  17.979   0.960 -0.2535 -0.1099  0.0420
30479W        W46288  16.287  12.523   1.819  0.0713  0.1508  0.0359
30480W        W46289  14.808   8.907   3.559  0.1666  0.0935  0.1754
30481W        W46290   5.026   6.161   0.643  0.0001 -0.0008  0.1079
30482W        W46291  11.827  16.774   5.242  0.3052  0.2516  0.2091
30483W        W46292   3.403  17.266   2.206  0.2026  0.3021  0.2808
30484W        W46293   9.432  14.190  12.767 -0.1732 -0.0354 -0.1178
30485W        W46294  12.615  17.355  14.724  0.0217 -0.3498  0.0107
30486W        W46295   2.203   4.960   4.195  0.1841 -0.1029 -0.1647
30487W        W46296  11.556   2.335   3.921 -0.0796  0.2015 -0.3017
30488W        W46297   9.892   8.124   4.094 -0.4035  0.1193 -0.0323
30489W        W46298   8.916   1.254   4.038 -0.0281 -0.0213  0.0092
30490W        W46299  12.396   2.914   5.344  0.0389 -0.1413 -0.1044
30491W        W46300   6.026   4.449  11.869  0.1216 -0.1738  0.0239
30492W        W46301   2.603   3.205   3.997  0.1194 -0.0801 -0.0361
30493W        W46302  13.776   4.505  13.187  0.1961 -0.0570  0.0425
30494W        W46303  12.579   4.279   4.310 -0.0767  0.2369  0.2426
30495W        W46304   7.914   6.911   0.251 -0.1166 -0.0427  0.2174
30496W        W46305   5.938  15.615  13.668  0.3249  0.1738 -0.1485
30497W        W46306   5.729  10.786   5.212 -0.0571  0.3011 -0.0992
30498W        W46307   9.872  15.036   2.577  0.0199  0.3714  0.1003
30499W        W46308  17.657   9.949  14.131  0.4376 -0.0866  0.0329
30500W        W46309   0.334   7.899   5.948  0.0276  0.0045 -0.2450
30501W        W46310   8.421   3.971   2.321  0.0641 -0.0651 -0.0797
30502W        W46311   5.767  10.784   0.551  0.0282  0.0425 -0.2296
30503W        W46312  12.696  13.943  15.382  0.3548  0.1071 -0.0534
30504W        W46313  15.902   2.688  13.706 -0.1655  0.0098 -0.2397
30505W        W46314   1.656  13.978  11.936 -0.1175  0.0491 -0.0175
30506W        W46315   6.139   9.043   0.987 -0.3780 -0.0146 -0.3483
30507W        W46316   2.497   2.251  12.401  0.2634 -0.0805  0.2652
30508W        W46317   6.671  16.729   0.444  0.1815  0.0646  0.1098
30509W        W46318  14.928  11.309   3.683 -0.1266  0.3202 -0.4295
30510W        W46319   2.193   5.521   3.478 -0.1240  0.1229  0.2340
30511W        W46320  17.014  17.939   0.233 -0.3111 -0.3762  0.3085
30512W        W46321   0.158  18.089   2.284 -0.0577 -0.1030  0.1864
30513W        W46322  15.542   9.040  11.342 -0.0219  0.3102 -0.3488
30514W        W46323   5.202  13.260  11.552  0.3399 -0.1443 -0.2052
30515W        W46324   9.031   6.577  10.966 -0.1667  0.1881 -0.2638
30516W        W46325  10.374   5.180  10.977 -0.0705 -0.3564  0.1673
30517W        W46326  13.458  11.321  11.656  0.0685 -0.1048  0.3244
30518W        W46327  16.658   1.377   2.289  0.0009  0.1255 -0.0102
30519W        W46328   4.380  10.529   4.652  0.1261  0.0237 -0.1465
30520W        W46329   8.950   7.283  11.390  0.0169  0.2858  0.0597
30521W        W46330  11.362   4.881   4.409 -0.1563 -0.3028  0.1105
30522W        W46331  15.429  13.458   1.104 -0.0035  0.1479 -0.1044
30523W        W46332  12.955  12.189   0.435 -0.0264 -0.1765  0.2328
30524W        W46333  13.366  10.960  15.547  0.2841  0.0726  0.0586
30525W        W46334   6.451  10.873   2.179 -0.2026 -0.2393 -0.3301
30526W        W46335   6.719   3.994  15.470 -0.1363  0.2361 -0.0255
30527W        W46336  10.016   7.663  13.456 -0.0440 -0.1722  0.1036
30528W        W46337   1.075  17.729   1.930 -0.0177 -0.3784 -0.0631
30529W        W46338  17.200  12.548  14.364 -0.0821 -0.0074  0.1590
30530W        W46339  14.504  15.006   0.806  0.3215 -0.2699 -0.0462
30531W        W46340   0.350   9.562   5.143 -0.1822 -0.1045 -0.2077
30532W        W46341   0.729  17.169   2.372  0.0803  0.1465  0.4409
30533W        W46342  12.011   6.908   0.156 -0.0543 -0.2685  0.0485
30534W        W46343   3.868   4.703  12.450 -0.1849 -0.1800  0.2571
30535W        W46344  16.316  16.475  10.913  0.0240  0.0423 -0.0175
30536W        W46345  14.653  12.268  13.681 -0.1411 -0.1600 -0.3680
30537W        W46346  11.498  11.315   5.793 -0.1413 -0.1259 -0.0546
30538W        W46347   8.723  10.331  15.002  0.1487 -0.2472  0.1635
30539W        W46348  17.383  13.006   5.154 -0.1178 -0.1959 -0.0145
30540W        W46349  10.184   3.409  13.398 -0.0843  0.2488 -0.1598
30541W        W46350   7.011  12.588   4.874  0.1361  0.0278  0.0970
30542W        W46351  11.124  16.973   3.278  0.3712  0.0087  0.1816
30543W        W46352   7.236   9.763  10.573 -0.0184  0.5156  0.2947
30544W        W46353   5.179   4.243   1.228 -0.0605  0.2607 -0.4703
30545W        W46354  12.002  18.071   5.424  0.1671 -0.3016 -0.0118
30546W        W46355  14.824   0.455   2.083 -0.1365  0.0466  0.2276
30547W        W46356   8.260  14.870   2.090 -0.2105  0.0473  0.2419
30548W        W46357   9.541  13.751  12.020  0.0132  0.0667  0.2503
30549W        W46358  11.033  11.858  12.063  0.1823  0.1579  0.1623
30550W        W46359   0.072  13.852   1.649  0.0986 -0.2692 -0.1899
30551W        W46360   8.949   3.507   1.116 -0.2530  0.0555 -0.1333
30552W        W46361  15.101  17.251   9.863 -0.2162  0.2143  0.1395
30553W        W46362   1.132   4.296  14.953  0.0161 -0.3094  0.1035
30554W        W46363   0.237   9.513  14.233  0.1293  0.0502 -0.0523
30555W        W46364   9.971   2.411   0.467  0.1299 -0.0506 -0.2076
30556W        W46365  11.219  11.073  12.497 -0.0024 -0.2776 -0.0268
30557W        W46366   9.615   0.532   5.136  0.2408 -0.3885 -0.0938
30558W        W46367  16.487  10.115   2.475  0.0778 -0.1720  0.0952
30559W        W46368   8.845   6.551   2.357  0.0998  0.2258 -0.3505
30560W        W46369   6.002   5.403  15.815  0.0801 -0.1731 -0.0897
30561W        W46370  10.650   4.248  13.422  0.2291  0.0262  0.0830
30562W        W46371  15.279  17.046  13.081  0.0948 -0.0011  0.2742
30563W        W46372  17.387  14.058  15.178  0.0235 -0.0768  0.1753
30564W        W46373   8.006  13.192   1.114  0.1295 -0.0285 -0.3496
30565W        W46374   6.004   7.630   0.944  0.1963 -0.2474  0.1280
30566W        W46375   4.306   5.514   1.570  0.1870  0.0055  0.0569
30567W        W46376   6.359   5.826   3.065 -0.3159  0.1483  0.0052
30568W        W46377  10.727  11.690  11.313 -0.1414  0.1766  0.1329
30569W        W46378   1.625  16.574   0.207 -0.0483  0.2310  0.1672
30570W        W46379   0.236   0.758  11.617  0.0922  0.1668 -0.0167
30571W        W46380   7.716   1.590   3.464  0.1341  0.4491 -0.1161
30572W        W46381   5.389   5.219   4.914  0.0103 -0.0624  0.3742
30573W        W46382  15.728  16.029   3.338 -0.1231  0.0280  0.0537
30574W        W46383   3.425   6.634  12.700 -0.4048 -0.1768  0.1472
30575W        W46384   3.234  16.816  13.668  0.0082  0.3333  0.0188
30576W        W46385   8.533   1.757  13.688  0.1285  0.2684  0.2310
30577W        W46386  14.817   8.554  11.977  0.1474  0.0142 -0.3233
30578W        W46387   2.986   4.067  14.008 -0.0250 -0.0492 -0.2281
30579W        W46388   0.036  11.605  15.353 -0.0677  0.1113 -0.0887
30580W        W46389   4.389   1.608  14.347 -0.1466 -0.1662  0.1906
30581W        W46390   9.893   6.026  11.868  0.1599  0.4100 -0.0646
30582W        W46391   5.805  15.092  11.247 -0.1042  0.2123  0.2668
30583W        W46392  18.304   1.360   0.081 -0.2173  0.2039  0.1009
30584W        W46393  14.582  12.153  12.160  0.1306 -0.1772 -0.1033
30585W        W46394  10.621   3.706  10.611  0.1954  0.1889  0.4643
30586W        W46395  16.993  10.150   1.564 -0.1690 -0.0872  0.1524
30587W        W46396   3.391   2.058   3.202 -0.0864 -0.0676  0.1757
30588W        W46397   5.976  14.529   5.649  0.0323  0.1353  0.0215
30589W        W46398   5.763   1.527  13.017 -0.0980  0.0874 -0.2226
30590W        W46399   5.704  14.959   1.575 -0.0820  0.0222 -0.0829
30591W        W46400   1.716   7.792  15.136  0.1411  0.1016  0.1139
30592W        W46401  15.365  14.445   9.614 -0.0737 -0.0613  0.2170
30593W        W46402   8.197   9.390   2.034  0.1910  0.0188  0.2299
30594W        W46403  10.541   6.577  14.928  0.0784  0.0705  0.1189
30595W        W46404   4.052  12.277   0.276 -0.3452  0.0771 -0.0857
30596W        W46405   6.517   0.751   1.092  0.3707 -0.1221  0.0847
30597W        W46406  17.302   1.459  14.214 -0.0465  0.1124  0.3429
30598W        W46407   7.005   5.396  10.289 -0.3939 -0.0717  0.0465
30599W        W46408   7.278   9.125  11.900  0.0259  0.2461  0.4265
30600W        W46409   1.425   8.293  14.475 -0.0482 -0.1884 -0.0852
30601W        W46410  13.935   5.634  10.760 -0.0696  0.4103 -0.2572
30602W        W46411  18.024   6.548  10.777  0.0198 -0.2750  0.1807
30603W        W46412   3.548   2.858   3.703  0.1320 -0.1978 -0.2777
30604W        W46413  16.591   8.548  13.493 -0.0062  0.1084 -0.5122
30605W        W46414   9.697   1.231  12.614  0.2282 -0.2854 -0.4380
30606W        W46415  15.178  16.478  12.429 -0.0068  0.2953  0.1575
30607W        W46416   8.524  16.999  15.110  0.0570 -0.2907  0.1454
30608W        W46417  11.463  10.289  14.797  0.3716 -0.2612 -0.2167
30609W        W46418   8.937   8.905   0.873  0.0607  0.2213 -0.2171
30610W        W46419  11.185   7.611  11.777 -0.1928 -0.0364 -0.0412
30611W        W46420   0.790   7.692   2.604 -0.1521  0.2211 -0.1422
30612W        W46421  13.199   9.207  11.451 -0.4035  0.3180 -0.0713
30613W        W46422  17.245   1.406   0.581  0.3672 -0.0499 -0.3617
30614W        W46423  17.040   6.068  10.575 -0.3018  0.1252 -0.0848
30615W        W46424  14.644  13.890  15.247 -0.0438 -0.0672 -0.3272
30616W        W46425   1.506  13.241   2.851  0.0684  0.3207 -0.2068
30617W        W46426   4.717   7.759   4.946  0.0185 -0.2448 -0.2952
30618W        W46427   1.311   0.210   5.819 -0.0504  0.0292 -0.0625
30619W        W46428  17.563  12.106   1.198 -0.0474  0.0433 -0.1062
30620W        W46429   4.556   4.036   0.501 -0.1288  0.1786  0.2132
30621W        W46430   2.308   7.139   1.560  0.1537  0.4525  0.1375
30622W        W46431  10.067   9.325  15.459  0.2054  0.0781  0.1010
30623W        W46432  18.294   4.719  15.789  0.0999  0.1274  0.1974
30624W        W46433   8.377   6.524   2.474 -0.3648  0.0042  0.2380
30625W        W46434   2.988  15.588   5.105  0.2955  0.1068 -0.0550
30626W        W46435   9.987  16.528  14.061  0.0987 -0.1907  0.1514
30627W        W46436   6.203  12.747   1.526 -0.1505 -0.0417  0.1279
30628W        W46437   3.944  13.056   0.654 -0.1533  0.0929  0.0305
30629W        W46438  12.484  10.928  14.021 -0.1129  0.2247 -0.2115
30630W        W46439  10.798  14.919   0.662 -0.1509  0.2854 -0.1662
30631W        W46440  13.481  12.814   3.286  0.1561  0.0988  0.1961
30632W        W46441  18.232  16.844   0.604  0.0723  0.1227  0.2504
30633W        W46442   7.381   7.822  14.909  0.3810 -0.0412 -0.2018
30634W        W46443   5.445  11.869   5.612  0.1688 -0.1383 -0.2039
30635W        W46444   6.804   8.697  15.068 -0.0180 -0.1779 -0.0072
30636W        W46445  18.106  12.332   2.259  0.2698 -0.0837  0.2578
30637W        W46446   4.252   0.954  15.790 -0.1941 -0.1085  0.0297
30638W        W46447   8.377   3.519  13.490  0.1792 -0.2924 -0.0001
30639W        W46448   2.678  15.051  15.759  0.2555  0.3047 -0.1610
30640W        W46449  18.202  11.467   2.664  0.0109  0.0273 -0.1864
30641W        W46450  10.847  12.524  14.591  0.3914  0.0298 -0.0348
30642W        W46451   0.889   5.524   2.210  0.3140  0.1282 -0.2755
30643W        W46452   5.619   9.338  15.290  0.0864  0.1798 -0.1492
30644W        W46453  18.126   7.753  11.816  0.1349 -0.1171 -0.1333
30645W        W46454  16.003   9.781  13.352 -0.1823  0.0227 -0.3134
30646W        W46455   4.455   1.970  11.936  0.2325 -0.0652 -0.1278
30647W        W46456  10.663  11.249  10.369 -0.1027 -0.3648  0.0550
30648W        W46457  12.691  12.233  13.101  0.2449 -0.2667 -0.0831
30649W        W46458   6.002   0.228   6.006  0.1567 -0.2039 -0.0009
30650W        W46459   0.103   5.143   0.920 -0.0758  0.0965 -0.1660
30651W        W46460  16.187  11.712   3.115 -0.0749  0.0085 -0.0565
30652W        W46461   2.579   3.681   0.891 -0.0390 -0.0721  0.0724
30653W        W46462   0.299  15.450  12.361 -0.1406  0.2134  0.1130
30654W        W46463   3.505   7.273  11.305  0.1720 -0.0578  0.1452
30655W        W46464  11.025  16.081  14.372 -0.1485 -0.1452 -0.0928
30656W        W46465   9.189   4.103  15.580  0.0731 -0.2825  0.2642
30657W        W46466  10.735  16.275   2.672  0.1400  0.0936 -0.0991
30658W        W46467   6.970   7.188  11.020 -0.3444 -0.2008 -0.1290
30659W        W46468  10.187  17.748  12.013  0.0093  0.2109 -0.3414
30660W        W46469  16.770   8.194  11.048 -0.0848 -0.5515  0.0132
30661W        W46470   7.323   4.061   1.153  0.0946  0.1209  0.1578
30662W        W46471   2.512   2.639   4.813  0.0904  0.1581  0.0307
30663W        W46472  16.747  12.784   3.589 -0.0267 -0.0677  0.0841
30664W        W46473   4.207   5.836  14.842  0.0488 -0.2036 -0.0141
30665W        W46474  16.788   5.724   5.266 -0.0751 -0.2272 -0.0642
30666W        W46475  14.385  10.044  12.665  0.0813 -0.1482  0.0072
30667W        W46476  14.664   2.276   1.704 -0.0947 -0.4120  0.3142
30668W        W46477  12.400   0.190   0.372 -0.0383 -0.0753  0.4289
30669W        W46478  12.619  14.685   0.062  0.4412 -0.2459 -0.0023
30670W        W46479   1.121   3.275  12.147  0.1684 -0.0807 -0.2682
30671W        W46480   7.057  10.723  11.614 -0.1911 -0.1098  0.3104
30672W        W46481  11.664   9.921   4.944 -0.0280  0.2524 -0.0902
30673W        W46482  12.136  14.484   0.967 -0.1218  0.0449  0.0443
30674W        W46483  11.933   9.447  15.791 -0.0438  0.2664  0.3071
30675W        W46484   0.832  12.379   1.793 -0.1048  0.0720  0.3824
30676W        W46485   4.769  10.204  12.725  0.3188  0.3076  0.1215
30677W        W46486   4.257  10.057  11.767 -0.1500  0.1570  0.0980
30678W        W46487  12.790   3.168  14.069 -0.1900  0.0367  0.0495
30679W        W46488  12.123   8.315  14.006 -0.0739  0.1351 -0.0905
30680W        W46489   9.073  14.683   0.240  0.2095  0.4963 -0.2673
30681W        W46490   4.138  12.525   4.669  0.1752 -0.0633  0.1308
30682W        W46491   9.184   6.891  15.547  0.1196 -0.1977  0.0912
30683W        W46492   6.604   7.005  12.522  0.2379 -0.1474 -0.2326
30684W        W46493  17.108  10.211   2.972  0.0178 -0.0105 -0.1142
30685W        W46494   2.507   7.626   0.217 -0.2608 -0.0103  0.1882
30686W        W46495  14.138  12.285  15.705  0.0781  0.1043  0.0832
30687W        W46496   0.066  12.350  13.141 -0.3046 -0.2221  0.4277
30688W        W46497   8.863  11.030   3.355 -0.0997 -0.0125 -0.1017
30689W        W46498   2.793   6.071   0.180  0.0492 -0.0469  0.4486
30690W        W46499  15.217   7.012  13.839 -0.2054  0.1854 -0.3756
30691W        W46500  14.867  13.969  15.718  0.5578  0.0386 -0.0605
30692W        W46501   8.684   3.600  11.476  0.1492  0.0111 -0.1237
30693W        W46502   6.545  10.752  12.329  0.1162  0.1174  0.3975
30694W        W46503   2.322  12.121   4.085 -0.0213  0.0078  0.4272
30695W        W46504   6.747   4.826   1.869  0.2363  0.1095 -0.5145
30696W        W46505  17.632   0.671   2.010 -0.0571 -0.1888 -0.3067
30697W        W46506   9.878   3.302  11.272  0.3055 -0.0722  0.3761
30698W        W46507  17.008  10.829  10.697  0.1757  0.0006 -0.1768
30699W        W46508  10.051   4.025  13.956  0.0202 -0.0995  0.1533
30700W        W46509  11.081   8.104   4.314  0.1845  0.0080 -0.0355
30701W        W46510  15.329   7.290   2.866  0.2173  0.2324  0.0329
30702W        W46511   2.181   6.455   2.600 -0.0753  0.1365  0.2217
30703W        W46512   0.706  11.523   1.430 -0.4909 -0.0665  0.1949
30704W        W46513   1.457  17.406   1.737 -0.1157 -0.2946  0.5123
30705W        W46514   7.738   3.848  15.629  0.2177 -0.0720  0.0745
30706W        W46515   9.860  16.767   1.094 -0.1132 -0.3521 -0.1142
30707W        W46516   0.103   5.868  11.948  0.1135  0.2901 -0.1761
30708W        W46517  15.825   4.722   3.626 -0.1169  0.1015  0.0179
30709W        W46518   8.605   4.084  12.205 -0.0186  0.1318  0.1115
30710W        W46519  12.656   7.771  13.489  0.0961  0.2260 -0.1861
30711W        W46520  10.434  18.400   4.483 -0.0487 -0.0322 -0.0653
30712W        W46521   7.415  11.984  14.559 -0.1086 -0.3841  0.1063
30713W        W46522  12.578   8.949  10.695 -0.2348  0.0831  0.1133
30714W        W46523  16.207   0.656  13.035  0.2629  0.1532  0.4329
30715W        W46524  10.237  11.595   2.500 -0.1647 -0.3155  0.0634
30716W        W46525   2.596   8.446   5.966  0.0262  0.3412 -0.2654
30717W        W46526   4.760  16.736  13.745 -0.2704 -0.0345  0.2853
30718W        W46527  17.436  17.649   0.984  0.0820 -0.1683 -0.0315
30719W        W46528  15.519   6.898  12.929 -0.0123  0.2096  0.2133
30720W        W46529   7.915   7.823  15.623  0.1756 -0.0958 -0.0207
30721W        W46530   2.118  16.672  15.418  0.1773 -0.2828  0.1060
30722W        W46531   4.182  17.230   0.321  0.2367 -0.1076  0.2114
30723W        W46532  16.693   2.742  11.829 -0.2296  0.1556 -0.1063
30724W        W46533  12.326  15.488  15.660 -0.3113  0.0947 -0.1967
30725W        W46534   5.185  17.637   0.142 -0.0170 -0.0794 -0.3995
30726W        W46535  17.822   7.307  14.937 -0.1378 -0.1920  0.0565
30727W        W46536  14.318   2.258  11.854  0.0994 -0.0330 -0.1512
30728W        W46537  11.396   1.824  11.037 -0.2616  0.0409  0.0213
30729W        W46538   4.411  16.444   4.803 -0.0049  0.0310 -0.3399
30730W        W46539  13.750   1.087   5.529  0.1869 -0.1632  0.0940
30731W        W46540   0.677  14.455   0.235  0.2086 -0.1750  0.1250
30732W        W46541  12.951  10.937  10.757  0.1054 -0.0542  0.0773
30733W        W46542  11.149   3.900  11.409 -0.3641 -0.2251 -0.1520
30734W        W46543  13.716   2.755  15.484 -0.0092  0.1562 -0.1298
30735W        W46544   6.575  13.789  13.893  0.0479  0.1863 -0.1743
30736W        W46545   7.039  14.818  15.794 -0.1426  0.1964 -0.1808
30737W        W46546  10.079  18.133   4.734  0.0621  0.2951  0.1241
30738W        W46547  16.983   6.350  13.675 -0.1956  0.1510 -0.1550
30739W        W46548  14.740  13.127   5.181  0.0640  0.2675  0.3313
30740W        W46549   8.613   0.178   4.433  0.0187  0.1454 -0.0165
30741W        W46550  14.613  15.624  12.226  0.2435  0.0128 -0.0478
30742W        W46551  15.417   2.878   0.302  0.1411 -0.1205 -0.1865
30743W        W46552   5.879   3.261   4.189 -0.0495 -0.1693  0.1720
30744W        W46553  16.809   3.526  13.422 -0.1117  0.0896 -0.2568
30745W        W46554   2.398  12.467   6.055  0.1281  0.0901 -0.2235
30746W        W46555   3.123  15.274  13.870 -0.0203  0.2444 -0.0490
30747W        W46556   0.986  15.531   1.072 -0.2062  0.2046  0.2510
30748W        W46557  17.171  15.741  11.191 -0.1775  0.1822 -0.3290
30749W        W46558  18.258  13.369   2.412 -0.1410  0.0938  0.2241
30750W        W46559  12.037   9.726   2.938 -0.1143  0.1525  0.1098
30751W        W46560   4.956  16.442  12.776  0.0779 -0.1461  0.1496
30752W        W46561   0.352   7.845   2.446  0.0148 -0.0836 -0.2622
30753W        W46562  11.571  10.842  12.940 -0.0639  0.0781 -0.1809
30754W        W46563  17.519   1.766  10.615 -0.0657  0.1719 -0.0791
30755W        W46564   5.544  17.533  10.929  0.0767  0.3483 -0.1551
30756W        W46565  12.365   0.129  14.588 -0.1256  0.0838  0.1197
30757W        W46566  12.495  14.861   2.426 -0.0999  0.0597  0.2128
30758W        W46567  16.420   4.862   2.556  0.2565  0.0212  0.2238
30759W        W46568  16.929   9.563   0.173  0.0590  0.3048 -0.1432
30760W        W46569   9.582   5.616  15.254  0.2502  0.1671 -0.1751
30761W        W46570  18.327  16.849  11.763 -0.0633 -0.0998  0.3551
30762W        W46571   9.026   7.818   3.186 -0.1827  0.2398 -0.0700
30763W        W46572  14.425  14.127  13.392 -0.1440 -0.1524 -0.0819
30764W        W46573  10.403   0.364   0.163  0.1389 -0.0649  0.1944
30765W        W46574  11.305   0.389  15.462  0.3122  0.0376 -0.2172
30766W        W46575  16.482   6.786   1.796 -0.2413 -0.0249 -0.0748
30767W        W46576  13.217   4.953  13.929  0.0525 -0.4173 -0.2337
30768W        W46577  15.053  14.779  13.284 -0.0406  0.0695  0.0189
30769W        W46578   4.818   3.930   1.342 -0.0287  0.0219  0.0484
30770W        W46579  16.542  17.390  11.759 -0.1122 -0.2067  0.0431
30771W        W46580   4.842   4.612  15.786  0.0926 -0.2415 -0.0571
30772W        W46581  15.259  12.598  13.916  0.0255  0.0286 -0.0464
30773W        W46582  13.521  13.392   1.027 -0.2057  0.3810  0.1070
30774W        W46583  12.527  12.302   1.414  0.2359  0.2154 -0.1629
30775W        W46584  11.857   8.357   5.990  0.0859  0.1329  0.0088
30776W        W46585   4.986   6.726   0.346  0.1626  0.0565 -0.2103
30777W        W46586   8.296  13.831  14.421 -0.0238 -0.4509  0.2055
30778W        W46587  16.432   6.122   3.369 -0.1286  0.2727 -0.4790
30779W        W46588  12.437  15.435   4.912 -0.2187 -0.0163 -0.2346
30780W        W46589   0.297  13.117  11.174  0.0972  0.0872 -0.0274
30781W        W46590   7.165  14.979  13.932 -0.2285  0.0829  0.2982
30782W        W46591  11.069  10.025   1.465 -0.3097  0.3268 -0.0328
30783W        W46592  14.145  12.768  13.210  0.0225  0.1825  0.1669
30784W        W46593  12.867   3.115   0.201  0.3394 -0.1311 -0.0972
30785W        W46594  17.844   7.625  12.233  0.3333 -0.1780 -0.3100
30786W        W46595  12.465   8.691  13.936 -0.0397 -0.0484  0.2905
30787W        W46596   3.182  14.089  12.133 -0.1183 -0.1988  0.2701
30788W        W46597   6.564  18.252  10.558 -0.1162  0.0554  0.5210
30789W        W46598   9.322   7.406   3.073 -0.1628 -0.0892  0.2430
30790W        W46599   4.502   7.246   1.186 -0.2062 -0.0326  0.0153
30791W        W46600   6.494   6.396  12.508  0.1839 -0.1853 -0.2410
30792W        W46601   9.522   5.015   1.333  0.0116 -0.0106 -0.0087
30793W        W46602  16.330   1.006  10.742 -0.2530 -0.1572  0.3089
30794W        W46603  15.107  16.661   3.601 -0.1417  0.0779  0.1343
30795W        W46604  16.234   9.178  12.104  0.1862 -0.1097 -0.3089
30796W        W46605   6.540   3.354  11.725  0.5088  0.2715  0.2831
30797W        W46606   2.535   4.773   4.979  0.3768  0.0897 -0.1150
30798W        W46607  13.940   7.664   5.390 -0.0280 -0.0777  0.1761
30799W        W46608   5.588   1.124  11.743 -0.1372  0.0533 -0.2708
30800W        W46609  12.690   9.715   4.174 -0.1264 -0.1458 -0.0163
30801W        W46610   3.103  15.830   2.287 -0.3619 -0.1262  0.2107
30802W        W46611   5.871  16.145  12.306 -0.2113 -0.0880  0.0797
30803W        W46612   4.190   9.701  14.265  0.2658 -0.1911 -0.0177
30804W        W46613  10.004   3.714  12.029  0.0669 -0.1665 -0.2555
30805W        W46614   5.629   7.184  10.582  0.4396 -0.0697 -0.1949
30806W        W46615   1.859   7.697   2.793 -0.0377  0.2478  0.1054
30807W        W46616   9.215  17.754   2.002  0.2169  0.0603  0.3389
30808W        W46617  13.160  15.993  11.372 -0.1657 -0.2482  0.2084
30809W        W46618   1.208  11.438  13.426  0.1894  0.0052 -0.1174
30810W        W46619   5.675   3.937   0.333  0.0567  0.0288  0.0405
30811W        W46620   9.747   9.637   4.246  0.0994 -0.2868 -0.1692
30812W        W46621   1.307  10.886  15.406 -0.2187  0.2001  0.1531
30813W        W46622   8.180  14.877  15.145  0.0663 -0.1604  0.0650
30814W        W46623  13.436   4.658   5.180 -0.1337  0.1937  0.0549
30815W        W46624   8.614  16.624   0.558  0.1106 -0.0504 -0.0848
30816W        W46625  12.355   4.783   1.553  0.1446 -0.0918  0.4882
30817W        W46626  15.042  13.605   2.117  0.0211 -0.0086  0.2159
30818W        W46627  10.662  11.620  12.546  0.2776  0.2655 -0.1682
30819W        W46628   4.450  15.523   1.816 -0.0406 -0.1217 -0.1053
30820W        W46629   6.883  13.184   3.490 -0.1781 -0.1853  0.2968
30821W        W46630  18.042  16.923   1.478 -0.1779 -0.2450 -0.0784
30822W        W46631   0.224  11.304   3.977  0.1141  0.1570 -0.0469
30823W        W46632  16.289  13.226  13.547  0.0053  0.1403 -0.1588
30824W        W46633   6.691  15.484  14.425 -0.1262  0.1289  0.1917
30825W        W46634  15.521  10.170  11.911  0.0733  0.0533 -0.2366
30826W        W46635   9.371  12.734  12.445 -0.1160  0.1110 -0.2268
30827W        W46636   8.884  18.218   1.171  0.0228 -0.1772 -0.2396
30828W        W46637   7.813   8.758   2.562  0.0642  0.1721  0.0319
30829W        W46638   7.070   0.926  14.745  0.2084 -0.1597 -0.0838
30830W        W46639   5.164   1.467   5.813 -0.4756  0.0988 -0.0333
30831W        W46640   3.043   7.343  13.907 -0.0594  0.1704  0.1930
30832W        W46641   7.272  14.497  11.731  0.1910  0.1500  0.2471
30833W        W46642  14.132   7.029   1.227 -0.0072  0.0774 -0.0684
30834W        W46643   6.419   2.076   5.026 -0.0102 -0.0252 -0.2475
30835W        W46644   9.156  16.204  13.022 -0.0201 -0.0510  0.0825
30836W        W46645   7.552  18.398   3.814  0.2821  0.3430  0.2271
30837W        W46646   8.514   6.578  13.418 -0.0548  0.0743  0.1175
30838W        W46647  13.933  16.982  12.201 -0.0688 -0.2585  0.0514
30839W        W46648   8.976   9.006  15.430  0.2072  0.2353 -0.0007
30840W        W46649   5.649   4.758   3.389  0.2411  0.1846  0.1394
30841W        W46650  11.885  11.366  12.080 -0.1604  0.3008  0.0050
30842W        W46651   7.572  13.258   4.008 -0.1729 -0.2153 -0.1245
30843W        W46652  14.600  16.915  15.608 -0.1613  0.0398  0.0976
30844W        W46653   6.383  13.342   4.296  0.0067 -0.2196  0.0100
30845W        W46654   7.398  15.286   1.962  0.2413  0.3382 -0.1439
30846W        W46655   7.123  11.026  11.189  0.2352  0.2412 -0.2820
30847W        W46656  15.623  11.451   3.916 -0.2405 -0.1200  0.4260
30848W        W46657   8.272  14.275  13.431  0.1081 -0.0855  0.1229
30849W        W46658  10.219  13.026   0.864 -0.0219 -0.2184 -0.1663
30850W        W46659   3.688  16.075   0.824  0.0591  0.4798  0.0806
30851W        W46660  11.816  10.157  13.566  0.1161 -0.2137  0.1773
30852W        W46661   8.645   1.282  13.672 -0.0381 -0.0299 -0.1214
30853W        W46662  16.921  13.376  14.030  0.1634  0.0071 -0.0697
30854W        W46663  16.911   6.802   3.097 -0.1548 -0.0270  0.1965
30855W        W46664  10.789  17.387   3.533  0.0882 -0.0031  0.2021
30856W        W46665   1.879   9.201  12.909 -0.1555 -0.1711 -0.0454
30857W        W46666   6.212  10.295  15.295  0.0305  0.2752  0.2922
30858W        W46667   3.232  15.781   2.834  0.0020 -0.0598 -0.1017
30859W        W46668  17.085  12.808   4.347  0.0566 -0.1688  0.2787
30860W        W46669   1.086   8.237  10.861  0.1592  0.0405 -0.1870
30861W        W46670   6.768  17.117  10.933 -0.2985 -0.1853 -0.0684
30862W        W46671   3.620   5.385   0.726  0.0512  0.2884  0.1047
30863W        W46672   9.974  17.494   4.950 -0.2745  0.2501  0.0486
30864W        W46673  12.085   0.803  11.182  0.0119 -0.3095  0.0020
30865W        W46674   2.133  12.767  10.820  0.2828  0.2807  0.2241
30866W        W46675   4.648   0.340   5.110  0.1381  0.1211 -0.2493
30867W        W46676   3.283  11.565  13.277  0.2905  0.0476  0.2278
30868W        W46677   2.041   2.043  11.055 -0.1336 -0.5807 -0.2029
30869W        W46678  17.900  10.488  14.811  0.0905  0.0034  0.0625
30870W        W46679  11.964   5.210   2.730 -0.4032 -0.0823 -0.1682
30871W        W46680   4.117  11.679   0.896  0.0558 -0.3062  0.0867
30872W        W46681  17.608  11.646   3.325 -0.0154 -0.1457  0.1307
30873W        W46682  10.732   4.132   4.936 -0.0753  0.0176  0.2081
30874W        W46683   0.724   4.802  12.777  0.1075  0.0402  0.0602
30875W        W46684   4.433  18.148   0.895  0.1213  0.5608  0.1363
30876W        W46685   3.266   0.308   1.729  0.2154 -0.0475 -0.2548
30877W        W46686  10.845   3.469   0.943  0.1254 -0.3707 -0.2630
30878W        W46687  11.122  10.019  15.165 -0.0077  0.0528 -0.0207
30879W        W46688   1.888   9.059  13.858 -0.0479  0.1370 -0.0677
30880W        W46689   9.911  14.013  15.212  0.1820 -0.2430  0.1463
30881W        W46690  18.033  17.129   4.374  0.3187 -0.2453 -0.1802
30882W        W46691  13.552   9.818  12.174 -0.4266  0.0334 -0.2792
30883W        W46692   4.376   1.810   2.833  0.0595 -0.2130 -0.0683
30884W        W46693  12.471  18.014  11.570  0.1192  0.1520  0.4127
30885W        W46694  16.354  18.426   0.721  0.2955  0.0020 -0.3990
30886W        W46695   0.908   3.988  15.765  0.0659 -0.1638 -0.2320
30887W        W46696   9.459  11.891   4.476 -0.0089 -0.0821  0.1602
30888W        W46697  17.753   9.145  13.077  0.4555  0.1282  0.0748
30889W        W46698   1.195   3.373   3.025  0.1984  0.1451 -0.3197
30890W        W46699   2.978  15.541   1.902  0.0425  0.0598  0.0087
30891W        W46700   0.518  14.838   5.234 -0.0860  0.3892  0.0084
30892W        W46701  14.840  11.387  11.998 -0.1770 -0.1263  0.0729
30893W        W46702  14.087   8.014   2.382 -0.1479 -0.2625  0.1740
30894W        W46703   7.603   4.868   5.129  0.1763  0.0928 -0.0658
30895W        W46704   7.323  16.645   2.936  0.3796 -0.1266 -0.3599
30896W        W46705   6.416   6.443  10.902  0.0533 -0.0571 -0.0284
30897W        W46706   0.228  16.657   0.689 -0.2275 -0.1806  0.0066
30898W        W46707   5.931  16.231   4.907  0.2583  0.0028  0.1785
30899W        W46708   7.876  11.197  15.037 -0.3614 -0.0127 -0.0763
30900W        W46709   8.659  13.038   9.898  0.1406 -0.0001 -0.2831
30901W        W46710  13.032  12.609   1.282 -0.0119 -0.0525  0.0231
30902W        W46711  15.168  13.239   5.855  0.0948 -0.1766  0.0128
30903W        W46712  13.775   7.632   4.288  0.1609  0.0902 -0.0191
30904W        W46713  16.625  14.115  15.286  0.0102  0.1020  0.1710
30905W        W46714  17.013   4.924   5.811 -0.3602  0.2960 -0.1092
30906W        W46715  14.034  16.535   4.534  0.1408  0.2222  0.1850
30907W        W46716   3.998  16.074   1.853 -0.0061  0.0089 -0.2625
30908W        W46717  12.764  12.665  14.622 -0.0697 -0.0530 -0.0332
30909W        W46718   8.832   9.520  11.388  0.1669  0.1228  0.5042
30910W        W46719   3.492   4.761   1.784  0.3886 -0.0503  0.1708
30911W        W46720   9.307  12.047  11.002  0.0388  0.0461  0.1734
30912W        W46721   0.866   1.053   3.263  0.0171 -0.3339  0.1027
30913W        W46722  14.542   1.631   5.666 -0.2467  0.0329  0.0766
30914W        W46723   7.468  12.752  11.639  0.2281  0.2088 -0.0264
30915W        W46724  13.287  16.821  11.765  0.1000 -0.0889 -0.0422
30916W        W46725  12.638   6.810  11.053 -0.0656  0.0403 -0.1254
30917W        W46726  16.139   9.666   2.875 -0.0905  0.0894 -0.2118
30918W        W46727  15.904  16.929   0.156 -0.0792  0.0909 -0.2641
30919W        W46728   7.913   4.314  12.656 -0.1161 -0.1129 -0.1018
30920W        W46729   0.831  13.393   3.368 -0.3809 -0.1251 -0.1149
30921W        W46730   9.212   9.334  13.462 -0.1755  0.2550 -0.0729
30922W        W46731  10.399   6.344   3.641 -0.0207  0.1281 -0.1553
30923W        W46732  15.413  14.595   1.857 -0.2495  0.0291 -0.0967
30924W        W46733   4.371   2.856  14.867 -0.2170 -0.1389  0.1710
30925W        W46734   5.785   4.709   1.952  0.0387 -0.2174 -0.3046
30926W        W46735  16.195   2.229  11.054 -0.2736 -0.1665  0.1803
30927W        W46736  17.098  11.287   6.391  0.1068  0.0066 -0.1712
30928W        W46737   2.326   9.649   3.910  0.2284  0.0123  0.1826
30929W        W46738   0.813   3.894  13.447 -0.0324 -0.0808  0.3312
30930W        W46739  17.482   6.787  15.674  0.1017  0.4121 -0.1067
30931W        W46740  16.503   5.070   3.051  0.1883  0.2255 -0.0149
30932W        W46741  17.051   3.691  12.687 -0.1461  0.2231  0.2643
30933W        W46742  12.075  17.118  13.055  0.1858 -0.2805 -0.1319
30934W        W46743   4.886   8.815  14.965  0.2786 -0.4636  0.1530
30935W        W46744   3.574  16.762  14.932  0.1324  0.1115  0.0079
30936W        W46745   8.247  11.299  13.404 -0.2735 -0.0556 -0.0119
30937W        W46746   9.781  15.308  14.636  0.3397 -0.0672  0.0417
30938W        W46747   4.927   2.318   3.867 -0.0412 -0.3011  0.0275
30939W        W46748  15.205  12.151  13.497 -0.1389  0.2603 -0.0486
30940W        W46749   4.516  11.426  13.837 -0.2790  0.1448 -0.1687
30941W        W46750   2.245   7.672  12.321  0.2240  0.0154 -0.0078
30942W        W46751   5.214  12.149  12.610  0.0826 -0.0534  0.3249
30943W        W46752   8.845  10.948   1.553  0.0556 -0.3678  0.3828
30944W        W46753   7.843  17.202  15.267 -0.0263 -0.1598  0.1282
30945W        W46754  18.031   5.827   4.269  0.0741  0.2824  0.0536
30946W        W46755  16.036   4.462  15.055 -0.1392 -0.0437 -0.0015
30947W        W46756   1.655   8.232  10.633 -0.1212  0.1070 -0.3246
30948W        W46757   7.886   0.132   2.469  0.3135 -0.2460  0.0350
30949W        W46758  10.380   9.620  13.866  0.0627  0.1004 -0.1024
30950W        W46759   9.589   4.798  12.197  0.0124 -0.2188 -0.1037
30951W        W46760   9.504   8.036  11.345 -0.0226  0.1129 -0.0271
30952W        W46761  11.973  13.336  14.470  0.1047  0.2192  0.1778
30953W        W46762   2.673   6.203   4.099  0.0439 -0.0405 -0.1157
30954W        W46763  15.329   0.556   1.568  0.0970 -0.0862  0.0201
30955W        W46764  16.673   0.712  11.739  0.0031  0.0839  0.1796
30956W        W46765  14.067   5.871  13.452  0.0503 -0.1666  0.1105
30957W        W46766  16.948   5.196  13.893  0.2068  0.3896 -0.0734
30958W        W46767   6.661   8.581  15.533  0.1834 -0.1134 -0.1375
30959W        W46768  15.289  13.017  13.616  0.5042 -0.2362  0.0146
30960W        W46769  11.120  15.783   0.473  0.2903  0.0722 -0.0776
30961W        W46770   5.654   2.143   2.837 -0.0032 -0.1900  0.0524
30962W        W46771  11.441  11.526  14.364  0.3032 -0.1594 -0.0402
30963W        W46772  13.453   0.279   1.878  0.3583  0.1450  0.0696
30964W        W46773  13.286   5.924   5.315 -0.0705  0.0495 -0.0456
30965W        W46774  15.451  13.669  14.423  0.0372  0.2888  0.1820
30966W        W46775  12.961   2.278   0.664 -0.1440  0.1163  0.0504
30967W        W46776   7.178  11.238   0.545 -0.1720  0.1116 -0.0643
30968W        W46777   3.300  15.589   1.113 -0.3116 -0.0304 -0.0568
30969W        W46778  11.723  16.567   9.999 -0.1261 -0.1396 -0.2226
30970W        W46779  11.639   1.816   3.892  0.1149 -0.2288 -0.0256
30971W        W46780   4.922   2.629  11.899  0.1844 -0.2254 -0.0360
30972W        W46781  14.371   8.541   4.479  0.1258 -0.2165  0.1920
30973W        W46782   3.036   6.982  12.560 -0.1311 -0.0494  0.0051
30974W        W46783  13.537  10.559   0.536  0.1438 -0.1873 -0.0187
30975W        W46784   1.531  17.150   3.772  0.0363 -0.3344  0.1289
30976W        W46785  17.984   1.025  10.978 -0.0523  0.1872  0.2366
30977W        W46786   2.378  13.106  13.677  0.3606  0.4738  0.1042
30978W        W46787  14.812   3.081   1.164 -0.0781 -0.2263 -0.0043
30979W        W46788   5.752  11.929  12.599  0.2648  0.0691 -0.3702
30980W        W46789   5.115   4.616   0.821  0.0478  0.3854  0.0449
30981W        W46790   8.278   6.813  11.565  0.2239  0.3463  0.0577
30982W        W46791   4.511  10.561  15.274 -0.3591  0.1551 -0.0973
30983W        W46792   6.682   1.667   4.845 -0.1020 -0.2291 -0.2166
30984W        W46793   6.844  18.109   2.530 -0.4290  0.1281 -0.0970
30985W        W46794   5.536  10.785   3.452 -0.1542 -0.2759  0.2076
30986W        W46795   9.528  14.193  14.930 -0.1029 -0.2397 -0.2730
30987W        W46796   3.236  13.517   2.717 -0.1012  0.0401 -0.2823
30988W        W46797   2.888   0.175  12.222  0.0467  0.3132 -0.2026
30989W        W46798  16.339   9.553  12.459  0.2566  0.0536  0.1355
30990W        W46799   4.052   1.068   0.489  0.2423 -0.0493  0.1066
30991W        W46800   3.457   3.371   2.874  0.0751  0.0369  0.5137
30992W        W46801   6.628  11.458   5.103  0.1507 -0.0510  0.1408
30993W        W46802  16.883   9.658   2.878  0.2697 -0.0348  0.0883
30994W        W46803   2.546   3.636  11.487  0.2814  0.2959  0.1152
30995W        W46804  13.369  15.160   0.978 -0.3774  0.0048 -0.0169
30996W        W46805   4.262   7.687  12.312 -0.0049  0.1334  0.2654
30997W        W46806   6.262  10.497   4.054  0.3294 -0.0084 -0.3705
30998W        W46807  17.327   9.765   0.485 -0.0956  0.2606 -0.0886
30999W        W46808   3.775   3.461  10.640 -0.0437 -0.0336  0.1123
31000W        W46809  12.296   0.713   0.207  0.0848 -0.0883  0.0236
31001W        W46810  16.969  14.299  12.924  0.1059 -0.2211 -0.0698
31002W        W46811   9.229   1.284  13.002 -0.3197 -0.0117 -0.1176
31003W        W46812   8.473   2.837  12.541 -0.0710  0.1491  0.2300
31004W        W46813  11.561   5.740   4.990  0.0258 -0.2866 -0.0225
31005W        W46814  17.543  11.977  12.747 -0.2558  0.2663  0.2786
31006W        W46815   7.307  17.316  15.188 -0.0299 -0.0367 -0.0257
31007W        W46816   2.560  13.690  10.699 -0.1440 -0.1943 -0.2936
31008W        W46817  10.686   5.936   3.586 -0.0206 -0.0553  0.1529
31009W        W46818  11.522   5.847   1.425 -0.0103 -0.2089 -0.0936
31010W        W46819   6.037  15.676  15.594 -0.4311  0.2927 -0.0085
31011W        W46820  14.109  14.973   5.392 -0.1804 -0.4387 -0.3644
31012W        W46821  14.504   5.137  14.391 -0.3955 -0.0334 -0.0315
31013W        W46822  13.145  17.370  11.955  0.1002 -0.2466  0.1314
31014W        W46823   2.531   9.627   5.176 -0.3311 -0.1245  0.0891
31015W        W46824   1.352  10.919  14.825  0.1882  0.2338  0.2734
31016W        W46825  15.481   5.830  12.145  0.3519  0.0503 -0.0251
31017W        W46826   2.744  13.729  14.705 -0.2234  0.2750  0.1907
31018W        W46827   6.129  13.260   4.736 -0.3031  0.0085 -0.2106
31019W        W46828   6.227   2.093   3.544  0.2381 -0.1669  0.0309
31020W        W46829  14.485  12.600  14.922 -0.2057  0.1006 -0.0281
31021W        W46830   1.438  16.140   0.717 -0.0207  0.0743 -0.1522
31022W        W46831   8.798  10.562  12.573  0.3762 -0.1367 -0.0448
31023W        W46832  15.314   3.971  13.882 -0.1250 -0.0644  0.1202
31024W        W46833  18.409  17.818  14.974  0.3170  0.2311  0.0848
31025W        W46834   7.914   2.291  11.036 -0.0278  0.2504 -0.2313
31026W        W46835  15.911  16.818  15.155  0.0266  0.3969 -0.0222
31027W        W46836   6.126   5.934  12.939 -0.0386  0.0595  0.0221
31028W        W46837   2.527  12.185  11.146  0.0187 -0.3588 -0.4398
31029W        W46838   8.310  10.812   3.654 -0.3068  0.2359 -0.0895
31030W        W46839  12.032   0.909  13.778  0.1602 -0.0539 -0.0136
31031W        W46840  11.599  12.813   1.315  0.0220  0.2592 -0.2548
31032W        W46841   9.309   7.738  13.124  0.1979  0.0143  0.0867
31033W        W46842   9.390  16.674  13.449  0.1946  0.1565 -0.0851
31034W        W46843   7.994   0.456  13.546 -0.0958 -0.2213  0.1367
31035W        W46844  17.448   0.729  14.874  0.1599 -0.0720  0.1332
31036W        W46845   6.032   3.655  15.784 -0.1266 -0.0427  0.0903
31037W        W46846   2.067   5.461   6.040  0.0517 -0.1547 -0.0202
31038W        W46847  15.806   6.172  11.944  0.1338  0.0357 -0.1002
31039W        W46848  13.612  15.729  13.540 -0.1268  0.1075  0.0826
31040W        W46849  10.037  17.960   1.417 -0.2955  0.0277  0.3455
31041W        W46850   8.399   9.150   3.863  0.1505 -0.1683 -0.0448
31042W        W46851   7.605  18.335   0.751  0.0466  0.2759  0.1139
31043W        W46852  18.226  17.902   1.421  0.2908  0.4448 -0.0657
31044W        W46853  12.115   5.547   1.098  0.2884  0.1577 -0.0548
31045W        W46854   7.766   7.594  12.919 -0.1439 -0.4136  0.2284
31046W        W46855   8.296   4.814  11.318  0.2711 -0.1138 -0.0209
31047W        W46856   8.358   4.709   2.925 -0.0617  0.2042 -0.2903
31048W        W46857   4.043  10.299   3.796 -0.0795 -0.0119  0.0052
31049W        W46858   7.362  16.410  15.724 -0.3778 -0.1922  0.0284
31050W        W46859   2.555   2.985   3.018  0.1521  0.3778 -0.0661
31051W        W46860   0.025   4.094   0.488 -0.0179 -0.2626  0.0800
31052W        W46861  11.604   8.104  11.015 -0.1690  0.0898  0.2871
31053W        W46862  18.392   3.265  11.654 -0.2974  0.1364  0.2093
31054W        W46863  17.966   6.486  11.705 -0.1231 -0.0897 -0.1991
31055W        W46864   2.772  15.856  15.463 -0.0606 -0.3230  0.0516
31056W        W46865  17.881  15.176   1.388  0.3910  0.2271 -0.0965
31057W        W46866   5.108  10.859   3.177  0.0807 -0.0957  0.1229
31058W        W46867  18.335  10.371  14.472 -0.4814 -0.1878  0.1550
31059W        W46868  16.534   9.470   3.994 -0.0193  0.0501 -0.4295
31060W        W46869  13.271  11.770   1.039 -0.2426  0.3500  0.2649
31061W        W46870   2.770  16.238   1.170  0.1281 -0.0283 -0.1087
31062W        W46871   3.946   6.203  11.675 -0.3037  0.1267 -0.2274
31063W        W46872  12.709   8.151  15.704 -0.0659 -0.1228 -0.1073
31064W        W46873   1.748  10.108  14.320 -0.2399 -0.1142 -0.2706
31065W        W46874  14.895   6.258  13.450  0.3027  0.1097  0.0220
31066W        W46875  17.230  13.543   3.403  0.2953 -0.1118  0.0069
31067W        W46876  16.117  15.421   2.241  0.2683  0.4670  0.1700
31068W        W46877   6.613   4.256   3.823 -0.1336  0.2292 -0.3608
31069W        W46878   9.411  14.385  11.188  0.0072  0.0321 -0.2961
31070W        W46879  11.993  15.932   3.867  0.1077 -0.1156  0.0806
31071W        W46880  10.734   9.320   5.299  0.0085 -0.1330 -0.2711
31072W        W46881  14.446   0.407   0.308 -0.1790 -0.0694 -0.0278
31073W        W46882   0.904   7.710  10.929  0.2063  0.1648 -0.0413
31074W        W46883   3.874   4.481   4.037  0.0579  0.0066  0.0227
31075W        W46884  11.419   3.510  13.603  0.2548  0.1941  0.2898
31076W        W46885  15.466   8.726   0.967  0.1137  0.1095  0.2055
31077W        W46886  11.850   0.764   2.256 -0.2192 -0.2302 -0.0444
31078W        W46887   0.284   0.707  11.098 -0.0466 -0.1373  0.2051
31079W        W46888   6.370   9.697  12.149 -0.0158 -0.0455  0.0593
31080W        W46889  17.189   0.550  12.490  0.3528  0.0406 -0.0003
31081W        W46890  16.264  17.287   4.147 -0.2700  0.0139  0.2870
31082W        W46891   4.450   4.791   3.634 -0.3765  0.2675 -0.1850
31083W        W46892  15.925   3.295  11.999 -0.0619  0.0549 -0.0220
31084W        W46893  12.419   0.977   4.198 -0.0123  0.0465 -0.0122
31085W        W46894   3.161   3.959   4.121  0.1079 -0.0564 -0.4494
31086W        W46895  14.904   6.593   4.839 -0.0560 -0.1402 -0.1632
31087W        W46896  12.898  11.431   0.187 -0.0314  0.2568 -0.1478
31088W        W46897  14.377   9.807  14.832  0.1140  0.1683  0.3191
31089W        W46898  12.860   8.278  14.347  0.1100 -0.0341 -0.3785
31090W        W46899  15.177   6.816   6.184  0.0088  0.1833  0.1540
31091W        W46900   5.997  10.709  11.137 -0.6588  0.2646  0.0944
31092W        W46901   4.691  10.477   0.390 -0.0639 -0.4079  0.1581
31093W        W46902  17.841  16.854   3.615  0.0484  0.2668 -0.1911
31094W        W46903  11.207  10.918   1.740  0.4193 -0.0448 -0.3449
31095W        W46904  11.594   0.808  15.585 -0.0602  0.0446  0.4287
31096W        W46905   0.690  18.113   2.167 -0.1155  0.0435  0.3191
31097W        W46906   1.769   5.349   1.053  0.1851  0.1113 -0.0226
31098W        W46907   4.077  12.177  13.883 -0.1353 -0.1092  0.0754
31099W        W46908   9.044   0.373  11.911 -0.0330  0.0297 -0.1028
31100W        W46909   7.468   2.713   3.574  0.0176  0.2211  0.0845
31101W        W46910  15.500  11.299   5.202  0.0986 -0.1009  0.0190
31102W        W46911   2.830   6.575   0.391  0.0116  0.1183  0.0459
31103W        W46912   6.451  12.962   4.586  0.1850 -0.1744  0.1585
31104W        W46913   6.864   9.198   5.056  0.1028 -0.1609  0.0500
31105W        W46914   9.162   6.595  13.657 -0.0055 -0.1936 -0.4206
31106W        W46915   4.171   7.658  10.729 -0.3092  0.1871  0.0553
31107W        W46916  12.670  15.265  13.125  0.1318  0.1575  0.0156
31108W        W46917  13.906   4.689  12.304 -0.2661  0.0063 -0.0759
31109W        W46918  14.511  11.010   3.364  0.1314  0.0541  0.0031
31110W        W46919  18.255  15.441   3.478 -0.2260 -0.0367  0.0081
31111W        W46920   2.915   4.248  13.105  0.0067 -0.3992 -0.0982
31112W        W46921  14.441  14.613  13.360  0.1274 -0.0436  0.0531
31113W        W46922   5.401   8.700   0.706  0.1802  0.0512  0.0801
31114W        W46923  10.637  14.376   2.904 -0.3374 -0.1115  0.0126
31115W        W46924  13.669   3.705  11.415 -0.0059 -0.1804  0.1005
31116W        W46925   1.815  11.272   3.099 -0.1129 -0.3619 -0.0039
31117W        W46926  13.946   4.628   5.200 -0.0958 -0.0762  0.2821
31118W        W46927   3.652  13.772   0.216 -0.1804 -0.0806 -0.0798
31119W        W46928   7.401  11.140   0.126  0.2273  0.3185  0.3086
31120W        W46929   2.462   8.460   2.021 -0.2324 -0.0459 -0.2804
31121W        W46930  16.020   3.711  14.620 -0.4801 -0.1171  0.1673
31122W        W46931   8.862  15.589   4.061  0.2078 -0.1382 -0.0546
31123W        W46932   6.778  11.086  15.314 -0.4470  0.2229  0.1028
31124W        W46933   3.627  12.289   4.312 -0.1637 -0.0949 -0.2882
31125W        W46934   1.446  16.620  12.793  0.2408 -0.1258  0.1204
31126W        W46935   1.998   1.757   1.220  0.1143  0.1923  0.1404
31127W        W46936  15.772  13.879   4.158  0.0629  0.1992  0.0156
31128W        W46937   5.133  13.923  12.225 -0.1729 -0.1617 -0.1372
31129W        W46938  13.487   7.501  14.438 -0.1682 -0.2208 -0.1896
31130W        W46939  17.508   9.022  14.616  0.2893  0.2060 -0.1844
31131W        W46940   9.490  13.841   0.054 -0.2574 -0.0374 -0.0982
31132W        W46941  11.585  14.735   2.346  0.0596  0.0604 -0.2309
31133W        W46942   3.168  10.929  11.542 -0.0997 -0.0277  0.1738
31134W        W46943   4.182  10.602   3.407 -0.0277 -0.1887  0.1242
31135W        W46944   3.696   7.268  14.726  0.1693  0.0878 -0.2228
31136W        W46945  13.362   0.818   1.011  0.1138  0.2367 -0.0243
31137W        W46946  18.104   6.700   2.795  0.2344  0.0019  0.2149
31138W        W46947   5.604  16.156   4.380  0.2430 -0.1575  0.0329
31139W        W46948   3.596  17.121   2.673 -0.1094  0.1066 -0.0436
31140W        W46949   7.416   6.701   4.181 -0.1411  0.3649 -0.4740
31141W        W46950   2.287  14.923  12.799  0.3567 -0.1296  0.1233
31142W        W46951   5.731   7.476   5.652  0.0582  0.1458  0.0454
31143W        W46952   0.754   0.962   2.418 -0.2737  0.0445 -0.3131
31144W        W46953   0.362   8.148  14.664  0.0582 -0.1238 -0.1338
31145W        W46954   7.704   8.921  14.861  0.1342  0.2687  0.0682
31146W        W46955  12.001  15.804  10.614 -0.0438  0.0063  0.1905
31147W        W46956   3.302   6.295   2.201 -0.1055 -0.0651  0.1742
31148W        W46957  13.821  12.654   4.451 -0.0371  0.3832  0.1411
31149W        W46958  10.065   1.636  12.839  0.1324 -0.0604  0.0950
31150W        W46959   3.185   5.224   3.087  0.1071 -0.3091  0.1072
31151W        W46960  12.336   7.371   0.008  0.1325 -0.0670 -0.3433
31152W        W46961  16.354   0.376  12.497 -0.0784  0.1399  0.0287
31153W        W46962   7.077  10.337  13.532 -0.2816  0.2404 -0.0647
31154W        W46963  16.924   2.862  14.019  0.2137 -0.0200  0.1668
31155W        W46964  16.233   7.718  10.861 -0.1617 -0.0031  0.1876
31156W        W46965  16.015  11.013  11.543 -0.0032  0.3340  0.4920
31157W        W46966   8.541  11.476   0.266 -0.2023 -0.1365  0.2707
31158W        W46967   0.335  16.751  15.778 -0.0802  0.0397 -0.0683
31159W        W46968  16.749   3.668  10.607 -0.1130 -0.0447  0.3486
31160W        W46969  18.193  17.820   0.581  0.0087  0.2868 -0.0446
31161W        W46970   3.472  17.311   3.100 -0.3072 -0.1649 -0.1848
31162W        W46971   5.158   6.151   4.032  0.1998  0.1292 -0.0983
31163W        W46972   9.801  10.559  12.587  0.2069  0.0087  0.1215
31164W        W46973  10.676   8.293   3.818  0.1998  0.0721 -0.1562
31165W        W46974   1.750  13.529   1.979  0.1191 -0.2116 -0.0473
31166W        W46975   2.973   1.887   5.697  0.1958 -0.0199  0.1292
31167W        W46976   0.602   9.479   5.560 -0.1949  0.1380 -0.1714
31168W        W46977   3.897   5.306  12.417  0.0487  0.0456 -0.3540
31169W        W46978   3.692   3.246   4.737 -0.0393 -0.1924 -0.0373
31170W        W46979   6.575   3.016   4.763  0.1604 -0.0455 -0.2516
31171W        W46980   0.376   7.310   3.640  0.0576 -0.1660 -0.1025
31172W        W46981  11.562   6.680  14.305  0.1206 -0.0457  0.0368
31173W        W46982   0.478  11.683  12.487  0.1382  0.2939 -0.1167
31174W        W46983  12.922   3.468   1.693 -0.0252 -0.2770  0.2104
31175W        W46984   2.065  12.958   2.035  0.0826  0.0424  0.1248
31176W        W46985  17.228   7.763  11.160 -0.0883 -0.0197  0.0942
31177W        W46986   2.279  10.670   0.849 -0.5316  0.1319  0.0204
31178W        W46987   3.374   2.536   5.184 -0.1277 -0.4181 -0.3296
31179W        W46988   3.328  11.379  15.286  0.1993 -0.1929  0.1163
31180W        W46989   2.968   3.219   0.842  0.1701  0.1809 -0.3182
31181W        W46990  17.795  16.579   3.164 -0.2772  0.1179 -0.0086
31182W        W46991   7.958   3.259  10.817  0.1239  0.1072  0.1394
31183W        W46992  13.539   7.646  12.355  0.0511 -0.0628  0.0301
31184W        W46993   2.246   2.534   3.035  0.2946 -0.0125 -0.1068
31185W        W46994  17.446  17.652  13.477  0.0740 -0.0149 -0.2962
31186W        W46995   3.118   0.072  11.813 -0.3145  0.0773  0.1376
31187W        W46996  14.028   6.559  13.696  0.3088 -0.0402 -0.2471
31188W        W46997  13.474  16.451   0.710  0.0482 -0.3791  0.0108
31189W        W46998  14.275  17.468   2.917  0.0841  0.2489  0.1902
31190W        W46999  10.783  14.746  15.587  0.1847 -0.0472 -0.0888
31191W        W47000   8.481  15.930   1.785  0.3131 -0.0142 -0.0493
31192W        W47001   5.762  10.483  10.700 -0.1578  0.1587  0.0472
31193W        W47002   7.932  15.230   0.653 -0.1393  0.1142 -0.0966
31194W        W47003   5.517   5.166  14.400  0.1724 -0.0501 -0.0304
31195W        W47004  10.211  11.774  11.547 -0.3081  0.1476 -0.2366
31196W        W47005  15.996  14.653   4.811 -0.2727  0.3399 -0.0508
31197W        W47006   4.522  16.207  13.574 -0.0781 -0.2301 -0.0497
31198W        W47007   6.597   1.360  14.859 -0.0946 -0.1344 -0.0839
31199W        W47008  13.962   0.295  11.255 -0.1083 -0.0215  0.0495
31200W        W47009  11.441   6.711   0.022  0.1574  0.2125  0.3094
31201W        W47010  12.432   0.068   2.192 -0.0078  0.1466  0.0264
31202W        W47011   6.993   7.656  10.998  0.1280 -0.1875  0.0524
31203W        W47012   3.770  11.710   2.934  0.0618 -0.2800  0.1309
31204W        W47013   0.118   3.104  13.622  0.1013  0.1948  0.1674
31205W        W47014  11.364  11.750  13.818 -0.1291 -0.2179 -0.1408
31206W        W47015  11.880  14.995  13.758  0.2659  0.1087  0.1607
31207W        W47016   8.070  10.123  14.191  0.2570  0.2340 -0.2456
31208W        W47017  14.800   3.117   3.014 -0.4558 -0.0753 -0.2262
31209W        W47018   7.621  12.391   0.038 -0.0148  0.2320  0.0730
31210W        W47019  16.352  16.132  15.853 -0.0347  0.0578 -0.1035
31211W        W47020   7.606   2.880   4.034  0.0922 -0.3770  0.0274
31212W        W47021   9.624   4.868  15.616  0.1544 -0.2786  0.1539
31213W        W47022  16.639   7.058  13.851  0.1642 -0.0609  0.0623
31214W        W47023  10.347  16.154  10.967  0.0342  0.2220  0.0003
31215W        W47024   2.923   0.879   2.774  0.1557 -0.0328 -0.0138
31216W        W47025  15.976  14.165  11.192 -0.0069  0.2107  0.1765
31217W        W47026  14.211  17.983   2.731  0.0795  0.2712 -0.1678
31218W        W47027  18.437  10.327  12.556 -0.0287  0.0666 -0.1680
31219W        W47028   0.341  14.345  14.896  0.2939 -0.0313 -0.3387
31220W        W47029  18.010  15.656  13.346  0.0518  0.1870  0.1442
31221W        W47030   8.120  10.740   4.536  0.1222  0.2881 -0.1962
31222W        W47031  18.104  14.810   9.733 -0.0160 -0.1283  0.1567
31223W        W47032  18.115   9.057   6.342 -0.0835 -0.0691 -0.0640
31224W        W47033  10.185  14.787  15.419  0.1037 -0.1697 -0.1300
31225W        W47034  17.461  18.249  15.211 -0.2628 -0.1716  0.1657
31226W        W47035   6.781  14.169  12.831 -0.2398  0.3219 -0.0300
31227W        W47036  10.560   6.188   5.344  0.0712 -0.0003  0.2445
31228W        W47037   5.514  11.989  14.221  0.1540 -0.1746  0.0782
31229W        W47038  10.754  18.408   2.495  0.2293 -0.0432 -0.0331
31230W        W47039   3.393   7.792  14.448 -0.1027 -0.0186 -0.1005
31231W        W47040   1.727  15.335  13.961 -0.0563 -0.1325 -0.3143
31232W        W47041  11.403  12.233  13.741 -0.1414 -0.2123  0.0153
31233W        W47042  16.724   9.321   3.419  0.0203 -0.0727 -0.5001
31234W        W47043  17.555   1.799   3.443  0.1467  0.0719 -0.3136
31235W        W47044  13.844   6.816   4.813  0.2291  0.3942 -0.0787
31236W        W47045   1.151  15.355   1.616 -0.3374 -0.1338 -0.1827
31237W        W47046   0.446   0.013  12.216 -0.3656  0.0955  0.0140
31238W        W47047  16.918   4.240  14.590  0.1348 -0.0453 -0.0739
31239W        W47048  11.153  10.794  15.756  0.2333 -0.2538  0.1823
31240W        W47049   7.767  14.993  12.620 -0.1289 -0.2189  0.0516
31241W        W47050   8.027  16.870  13.979 -0.1365 -0.0930  0.1230
31242W        W47051   4.996  11.664   3.359  0.1876  0.2766  0.0093
31243W        W47052  12.295   7.826  12.542  0.4068  0.2110 -0.3814
31244W        W47053   0.408  14.765  10.330 -0.0288  0.0618 -0.0821
31245W        W47054  10.216   4.337  14.257  0.2109 -0.0122  0.3508
31246W        W47055  15.841  13.311   4.235 -0.0372  0.0973  0.1841
31247W        W47056   1.059   2.354  15.303  0.1109 -0.0388  0.0641
31248W        W47057  10.285  14.346  15.293  0.0635 -0.1585 -0.1324
31249W        W47058  17.798   4.575  11.963  0.1862 -0.1742  0.1026
31250W        W47059  12.930  13.641   4.365 -0.0279  0.0573 -0.1037
31251W        W47060   2.292  12.436  14.943  0.0350 -0.0370  0.0978
31252W        W47061  17.352   1.848   4.340 -0.4059  0.0698  0.0019
31253W        W47062   1.297  15.221   4.948  0.3532 -0.1203 -0.1123
31254W        W47063   9.495  11.155   3.336 -0.0474  0.3135 -0.1827
31255W        W47064   3.847   8.263  13.381 -0.0125 -0.0039  0.0924
31256W        W47065  18.119  15.137   5.584  0.0870  0.1507  0.0524
31257W        W47066   0.291   3.368  15.302  0.0813  0.0467 -0.1791
31258W        W47067  16.341   7.138   3.671  0.1027 -0.0843  0.1578
31259W        W47068   2.710   3.637   5.663 -0.0491 -0.1541 -0.0862
31260W        W47069  13.699   3.553  13.771 -0.2864  0.0736  0.1791
31261W        W47070   4.052   0.936   4.494 -0.2267  0.2685 -0.0322
31262W        W47071   5.954  14.511   1.713 -0.2049 -0.0190  0.0004
31263W        W47072   5.499  16.247  14.969 -0.0241  0.3198 -0.0039
31264W        W47073   2.887   9.746   2.806  0.2586 -0.0046  0.1821
31265W        W47074  16.246  13.182   3.487 -0.0109  0.2337  0.0832
31266W        W47075  13.736  13.736  10.697 -0.3275 -0.1419  0.2172
31267W        W47076   8.795  10.683   2.879 -0.3584  0.2760  0.1735
31268W        W47077   1.119   8.146   4.116  0.0818  0.0943  0.3517
31269W        W47078   5.587   6.036  15.015 -0.0871 -0.0656 -0.2000
31270W        W47079  11.809  17.220  11.591  0.1673 -0.3619  0.1306
31271W        W47080   1.504   3.279   2.282  0.0925  0.0633  0.0448
31272W        W47081   6.618  11.082   0.622  0.1304  0.3170 -0.0946
31273W        W47082  15.495  17.576   0.436  0.1262 -0.0124  0.0103
31274W        W47083  12.234   9.798   4.216 -0.2147 -0.1491 -0.0848
31275W        W47084  12.112   6.531   1.092  0.0549  0.2325  0.1402
31276W        W47085   8.391   2.387  12.776 -0.1735 -0.0289 -0.0714
31277W        W47086  13.623  12.575  15.507 -0.1556 -0.1075 -0.1224
31278W        W47087   7.568  13.098  15.366 -0.1934  0.1726 -0.3429
31279W        W47088  14.389   6.662   0.901 -0.0359 -0.2494  0.0327
31280W        W47089   9.457   6.427  11.137  0.1766 -0.1491  0.1715
31281W        W47090   9.627  10.397   5.645 -0.2283  0.0107  0.0986
31282W        W47091   0.479  12.418   1.307  0.3473 -0.0082  0.0287
31283W        W47092  15.778  17.226   0.563 -0.4934  0.0755 -0.0798
31284W        W47093  13.941  12.686  11.605 -0.0017 -0.3233  0.2183
31285W        W47094   3.177  13.821  13.694 -0.1439 -0.0472 -0.1811
31286W        W47095  10.044  15.692   0.387  0.0968 -0.1838 -0.3152
31287W        W47096   2.702   7.914  10.858 -0.3839  0.0728 -0.0206
31288W        W47097   5.059  12.759  14.059 -0.1082  0.0682 -0.0099
31289W        W47098   0.569   9.165  14.499 -0.0703  0.0435 -0.2905
31290W        W47099   2.005   4.115  12.738 -0.4394 -0.1293  0.0807
31291W        W47100  12.642  10.566  13.669 -0.2095 -0.0452 -0.1401
31292W        W47101   3.378  12.894  11.422 -0.0306  0.0076 -0.0761
31293W        W47102  15.465   2.193   4.994 -0.3444  0.1225  0.1291
31294W        W47103   1.802  17.461   4.543 -0.0713 -0.1047 -0.3124
31295W        W47104   3.516  10.476  12.167  0.4145  0.0628 -0.0323
31296W        W47105  16.556  17.798  15.298 -0.1246  0.1432 -0.1379
31297W        W47106  10.882   5.601  14.236  0.0612 -0.2010 -0.0928
31298W        W47107   4.257  13.447  11.742 -0.0388 -0.0514  0.1678
31299W        W47108  14.850   1.912   1.245 -0.1497  0.0475 -0.2659
31300W        W47109   6.840   9.702   2.479 -0.1353  0.1068  0.0169
31301W        W47110   7.987   4.108   4.051  0.0588  0.2378 -0.1460
31302W        W47111  18.039   5.840  13.691  0.0306  0.1149  0.0977
31303W        W47112   8.511  13.912   4.183  0.2141  0.1163  0.2178
31304W        W47113   9.778   8.307  14.787 -0.0696 -0.0656  0.1174
31305W        W47114   1.971   8.755   2.639 -0.1634 -0.1559  0.0413
31306W        W47115   1.146   9.539  12.822 -0.4565 -0.0375  0.0717
31307W        W47116  12.640   4.034   0.821  0.2808  0.2018  0.1963
31308W        W47117   0.663  15.675  12.581 -0.0948 -0.2025  0.1646
31309W        W47118   0.551  15.455  13.217  0.1225  0.0819 -0.1358
31310W        W47119  11.640  15.804  12.971  0.0164  0.0393 -0.2231
31311W        W47120  14.555   6.673   0.394 -0.1482 -0.3608 -0.0824
31312W        W47121  17.264  17.960   3.551 -0.2234 -0.0522 -0.4419
31313W        W47122   9.217  17.403  12.959  0.1898  0.0200 -0.0969
31314W        W47123   8.597   4.975   0.210 -0.2860  0.0708 -0.1383
31315W        W47124   2.969   3.699   1.666 -0.2632  0.0234 -0.2995
31316W        W47125   4.392   9.970  13.798 -0.0735 -0.0576  0.0487
31317W        W47126  17.960  14.744  14.939  0.0599 -0.0964  0.0464
31318W        W47127  16.675   7.613  10.587  0.1486  0.1553 -0.0038
31319W        W47128  16.281   5.741  15.838  0.3254  0.0102 -0.1463
31320W        W47129   8.445   3.736   2.959 -0.0490  0.0796 -0.0925
31321W        W47130  11.173   3.772  14.495 -0.0958  0.2839  0.2379
31322W        W47131   8.012  16.266  15.162 -0.0908  0.1902 -0.2387
31323W        W47132   8.669   1.786   2.483 -0.2875  0.2924 -0.0267
31324W        W47133   6.585   6.598  12.957  0.1360 -0.0193  0.0240
31325W        W47134  10.448   9.271  14.310 -0.1902  0.0650 -0.1295
31326W        W47135   3.962   2.952   2.328  0.1655  0.1603  0.0834
31327W        W47136  14.640  13.163  11.021  0.1139 -0.1537  0.2698
31328W        W47137   0.316  15.635   3.313  0.1623  0.1422  0.3897
31329W        W47138  15.482  11.784   4.617  0.4242  0.5667 -0.2539
31330W        W47139   0.684   9.387  14.934  0.0725 -0.0184  0.1408
31331W        W47140   1.524   1.799   3.922 -0.2352  0.1516  0.2747
31332W        W47141   2.915  12.484  11.557 -0.0822 -0.0510 -0.1762
31333W        W47142   0.244   4.389  14.674  0.0482 -0.0681 -0.0376
31334W        W47143   4.759  12.282   2.996 -0.0521  0.1379  0.1267
31335W        W47144   6.510  15.125  14.088  0.2873  0.2081  0.2632
31336W        W47145  13.708   9.931  15.452  0.2633 -0.0453  0.1263
31337W        W47146  12.887  12.924  15.226 -0.3044  0.1631 -0.1033
31338W        W47147   0.222   5.231  13.161 -0.0872 -0.2792  0.2138
31339W        W47148  16.596  10.293   1.303 -0.2338  0.0962  0.3228
31340W        W47149  18.254   4.126  15.738  0.2944 -0.0107  0.1092
31341W        W47150   7.421   9.883  13.062  0.0442 -0.2359  0.2568
31342W        W47151   1.853   6.141   5.121 -0.1335 -0.0508 -0.1113
31343W        W47152  17.333  10.708   6.160  0.3060 -0.0396  0.1547
31344W        W47153  12.963  13.399   1.708  0.1763 -0.2468 -0.0199
31345W        W47154  16.148   1.266   2.466  0.1929 -0.0239  0.0814
31346W        W47155  17.153   6.648  14.573  0.2259 -0.1300 -0.2093
31347W        W47156  14.694  17.601   3.161  0.1621 -0.2339 -0.0116
31348W        W47157   2.453  13.253  15.450  0.1847 -0.1252  0.0362
31349W        W47158  17.165  12.026   2.061  0.4564  0.0307 -0.0533
31350W        W47159   5.681   9.766  14.441  0.0189  0.0984  0.1132
31351W        W47160   6.638   8.097  12.276  0.2432  0.1385  0.3452
31352W        W47161  10.127  16.493   3.356 -0.2739 -0.1038 -0.1202
31353W        W47162   9.192   7.987   1.600  0.5009  0.0824 -0.0499
31354W        W47163  12.369   3.419   5.375 -0.0719 -0.1422 -0.2734
31355W        W47164  15.652   6.241   4.567 -0.2463  0.0645 -0.2564
31356W        W47165   0.396  12.522   4.418 -0.3664 -0.2393  0.3193
31357W        W47166   5.824   2.928  15.443  0.0301 -0.0324  0.2667
31358W        W47167   6.309   0.755  14.058 -0.1344  0.0950  0.0497
31359W        W47168   2.499  17.050  11.365 -0.1697 -0.0955  0.0169
31360W        W47169   8.099  11.468   3.319  0.1210 -0.1775 -0.0709
31361W        W47170   3.553   4.546  11.912  0.1862 -0.1961 -0.1028
31362W        W47171   2.632   4.753   3.998  0.2334  0.2313  0.2611
31363W        W47172  14.403  13.038   0.464 -0.1063 -0.2156 -0.3199
31364W        W47173  13.895   2.887   0.131  0.5064  0.0057 -0.1710
31365W        W47174   5.621   4.930  12.675 -0.2186  0.2372 -0.0200
31366W        W47175  17.556   1.361  12.384  0.0460  0.0197 -0.2823
31367W        W47176   2.503   0.487   4.496 -0.0957 -0.2997  0.2300
31368W        W47177  17.776  13.330   6.036 -0.1811  0.1886 -0.0280
31369W        W47178   1.323  13.320  14.350  0.0566 -0.0557 -0.1108
31370W        W47179  12.310   5.067  14.749  0.1286 -0.2337  0.1165
31371W        W47180  12.573   5.511  14.523  0.1280 -0.2231  0.2617
31372W        W47181   4.612   0.310   0.987  0.1518 -0.0212  0.2094
31373W        W47182  13.953   5.823  12.181  0.0328  0.0547  0.0883
31374W        W47183   6.218  11.865  15.757 -0.0942 -0.0367  0.3165
31375W        W47184   4.654   8.146  13.531 -0.0883 -0.2784  0.0968
31376W        W47185   9.159  12.203   4.236 -0.1841 -0.0089  0.0452
31377W        W47186  12.381   5.030   3.563  0.0664 -0.0837  0.0130
31378W        W47187   5.144  10.728  12.541  0.0499  0.0122 -0.0235
31379W        W47188   5.614   3.002  14.952  0.0392 -0.0743  0.1355
31380W        W47189  13.433   1.623   1.083 -0.0588  0.2605 -0.0924
31381W        W47190   7.285  14.352   1.091  0.2696 -0.0698  0.0459
31382W        W47191   5.576   5.823   4.052 -0.0944 -0.0421 -0.0936
31383W        W47192  12.241  14.521  13.574  0.1224  0.1787 -0.0452
31384W        W47193  10.436   0.933   3.121 -0.1978  0.2314  0.0751
31385W        W47194  15.922   8.298  10.132  0.0607 -0.0730  0.1856
31386W        W47195   9.399   7.755  15.460 -0.1866  0.3330  0.1142
31387W        W47196   5.513   4.647   1.140  0.0107 -0.0069  0.2618
31388W        W47197   4.000  16.629   3.530  0.0103 -0.0097 -0.0780
31389W        W47198   0.527   4.844   4.378 -0.1637  0.1488  0.0830
31390W        W47199   0.279  14.337  14.013  0.2167  0.2457  0.1100
31391W        W47200   2.172  11.136  14.873 -0.2766 -0.2808  0.0500
31392W        W47201   4.312   2.970  12.648 -0.0096  0.1516  0.0094
31393W        W47202   3.170  17.942   1.078  0.2483  0.0328 -0.2277
31394W        W47203  14.911  12.960  13.951  0.0669  0.0166  0.2067
31395W        W47204  12.749   4.391  11.941  0.1201  0.1651  0.0884
31396W        W47205   9.663  18.400  11.975  0.3795  0.1293 -0.1830
31397W        W47206   1.347  16.350  12.435  0.1239  0.0191 -0.0727
31398W        W47207   5.104   9.908   4.755 -0.3492 -0.1417  0.1606
31399W        W47208  16.174  13.793   3.317 -0.2571  0.0461  0.1723
31400W        W47209   0.435  10.064   4.977  0.1231 -0.1902 -0.0187
31401W        W47210  11.218  10.475  15.279  0.0701  0.1450 -0.1407
31402W        W47211  17.063  10.731   4.147 -0.3888 -0.0111 -0.3177
31403W        W47212   2.331   5.111  14.848  0.3272  0.1266 -0.0697
31404W        W47213   7.451   6.052  15.674 -0.0403  0.1961  0.2623
31405W        W47214   5.062   4.835  11.743 -0.1561 -0.0244  0.0339
31406W        W47215  13.742  17.532  11.527  0.4217 -0.2846  0.0941
31407W        W47216  13.049  11.330  12.642 -0.1969 -0.0359  0.1941
31408W        W47217   6.181  13.182   0.482  0.0295  0.2131 -0.2494
31409W        W47218   8.651  15.944   4.314 -0.1519 -0.3377 -0.1661
31410W        W47219   9.636   1.178   4.375 -0.1952  0.0660  0.1432
31411W        W47220   3.746  15.662   4.109 -0.1148 -0.1484 -0.2627
31412W        W47221   9.069  13.483   3.220 -0.2702 -0.2460 -0.2622
31413W        W47222   8.173   0.576   4.764  0.1779 -0.1331 -0.0658
31414W        W47223   1.255   2.827   4.432 -0.0927 -0.1344  0.2411
31415W        W47224  16.703  10.556  12.884 -0.1800  0.1295 -0.0657
31416W        W47225   1.942  11.971  12.955 -0.3395  0.2655 -0.1778
31417W        W47226   5.231  16.169  15.507  0.2497 -0.0037  0.1210
31418W        W47227  10.006   5.133  15.840 -0.2010 -0.0748 -0.1856
31419W        W47228  17.948  12.834  10.856 -0.0003  0.0477  0.0746
31420W        W47229  14.974  12.284   5.857  0.0278  0.0137  0.0517
31421W        W47230  17.066   9.653   1.472 -0.1531 -0.0850  0.1223
31422W        W47231  12.601  14.173   5.072 -0.1547  0.2276 -0.2117
31423W        W47232  15.099  11.076   1.164  0.2980 -0.0868 -0.0447
31424W        W47233  17.124  12.802  14.816 -0.0322  0.0867  0.4021
31425W        W47234   1.844  16.481   2.116  0.2352 -0.1574 -0.0130
31426W        W47235   1.745  10.895  11.951 -0.0355  0.0355  0.0336
31427W        W47236   4.380  13.394  13.768 -0.3683  0.0308 -0.0643
31428W        W47237   9.360   8.244  13.988 -0.2847  0.0603  0.3538
31429W        W47238   8.559   6.338  13.017  0.0015 -0.2971  0.1633
31430W        W47239   1.731   4.322   4.227 -0.2485  0.3534  0.2174
31431W        W47240   6.102   5.046   3.737 -0.1753 -0.0954 -0.3127
31432W        W47241  14.992   5.316  11.474  0.3739  0.3113  0.2931
31433W        W47242   8.041   8.529   0.913 -0.0329  0.0941  0.2090
31434W        W47243  13.747  10.091  14.566  0.3431 -0.1195 -0.2577
31435W        W47244  12.483   4.238  12.417 -0.0674  0.0312  0.1169
31436W        W47245  13.567  11.108   4.751 -0.1668  0.0535  0.1786
31437W        W47246  17.129   7.695   3.857  0.0446  0.3165  0.0115
31438W        W47247   2.979  14.097  15.690 -0.2418 -0.2668  0.2463
31439W        W47248   5.423   9.595   1.231 -0.2656  0.0547 -0.0361
31440W        W47249  13.051  10.946   2.975 -0.0212 -0.0174 -0.0209
31441W        W47250  10.093  12.440  13.863 -0.0866  0.0112  0.1268
31442W        W47251   9.919  12.841   4.188 -0.0881  0.0445  0.0572
31443W        W47252   4.789   4.733  12.602  0.1540 -0.2206  0.0077
31444W        W47253  13.223   5.140   5.047 -0.1778  0.1763  0.0530
31445W        W47254   1.217  12.994  12.317 -0.1041  0.1144 -0.2274
31446W        W47255   5.563   0.843  13.665  0.0826  0.1893  0.3217
31447W        W47256   3.297  11.692   3.982 -0.0868  0.2431 -0.1748
31448W        W47257   7.616  16.787   3.703 -0.2763 -0.0490 -0.0459
31449W        W47258  15.405   9.291  13.005  0.3162  0.2225  0.3632
31450W        W47259   7.893  13.145  10.150  0.1320 -0.1893  0.0300
31451W        W47260  10.781   1.010   2.655  0.0005 -0.0800  0.0229
31452W        W47261  17.959   8.921  15.697  0.1057 -0.1725  0.0049
31453W        W47262  13.771   1.975   1.624  0.2771  0.0996 -0.2117
31454W        W47263   5.793   0.807   2.544 -0.1237 -0.0582 -0.2428
31455W        W47264  11.154   8.165  14.132 -0.0666 -0.0016  0.0387
31456W        W47265   0.912   1.758  12.824 -0.0761  0.0841 -0.2518
31457W        W47266   8.049  15.650  14.670 -0.0454 -0.1184 -0.1962
31458W        W47267   3.355  14.837  13.290  0.0166  0.1512  0.5433
31459W        W47268  16.810  12.377  11.745  0.3872  0.1324 -0.0313
31460W        W47269   4.307   0.364  14.597 -0.1280 -0.0026  0.3003
31461W        W47270   4.107   1.991  11.033 -0.0925 -0.2572  0.2723
31462W        W47271   1.937  18.021   2.711  0.0788 -0.0265  0.0077
31463W        W47272  16.389  13.393   1.504  0.0004 -0.0422  0.1253
31464W        W47273   3.404   9.472  12.802 -0.1246 -0.1131 -0.4424
31465W        W47274   9.168   1.570  14.807  0.0257 -0.0017  0.0655
31466W        W47275  16.318   2.875  12.246 -0.5755 -0.1164 -0.0676
31467W        W47276  13.964   3.483  14.722 -0.1222 -0.1139  0.1735
31468W        W47277  11.254   6.289  12.237 -0.4248 -0.2906 -0.0999
31469W        W47278  10.090   8.962   3.683  0.0004 -0.0336  0.0727
31470W        W47279  15.655  12.985   1.306 -0.0599 -0.0379  0.0652
31471W        W47280  15.592   7.080   0.325 -0.0920  0.1019  0.1923
31472W        W47281   4.274   0.663  13.859 -0.2447 -0.0592 -0.1217
31473W        W47282  10.234  18.010  12.995  0.0417  0.0587 -0.1112
31474W        W47283   3.671   0.217  13.436  0.0658 -0.0182  0.0967
31475W        W47284   1.255   7.466  11.286  0.2643  0.2579 -0.1835
31476W        W47285   9.032   2.310  15.096  0.2065 -0.0510 -0.2013
31477W        W47286  12.404   1.582  11.694  0.2769 -0.3437 -0.0672
31478W        W47287  13.572   1.315   5.091  0.0836 -0.1610  0.2045
31479W        W47288   3.022   0.433   2.580  0.0358  0.1997  0.1218
31480W        W47289   1.914  15.930   0.714  0.2165 -0.0692  0.0867
31481W        W47290   0.839   3.559   2.673  0.0138 -0.3017 -0.1173
31482W        W47291   2.407  10.643  12.752  0.0722 -0.3165 -0.1250
31483W        W47292   7.353   5.745   0.911  0.2552  0.0899  0.0827
31484W        W47293  10.342   2.553  11.698 -0.0618  0.2830 -0.2995
31485W        W47294   4.128  11.706  12.413  0.0175 -0.2444  0.4450
31486W        W47295   2.600   9.435   0.213 -0.3270  0.2206  0.0995
31487W        W47296   6.431  16.631  14.137 -0.0461 -0.3543  0.0117
31488W        W47297  16.872   2.614   4.722 -0.2424 -0.1028 -0.0837
31489W        W47298   4.665  16.390  15.057 -0.2501  0.1340 -0.0815
31490W        W47299  17.812   8.752   3.319 -0.1902 -0.2089 -0.2072
31491W        W47300   0.078  12.786   4.728  0.4802  0.0822  0.2282
31492W        W47301   4.990  15.962   3.753  0.0390 -0.1638  0.2601
31493W        W47302  10.191  15.040  11.969  0.1149  0.2210  0.1537
31494W        W47303  16.729   5.611  10.811  0.0954 -0.0180  0.0110
31495W        W47304   7.074  18.267  12.802  0.1545 -0.2300  0.0686
31496W        W47305   7.857   9.972  12.849  0.0450 -0.3219  0.1528
31497W        W47306  14.848   9.475   0.383  0.1348  0.1928  0.1622
31498W        W47307   1.737  16.891  12.529 -0.2663  0.1002  0.0227
31499W        W47308  11.747   5.200  13.429 -0.2043  0.0694  0.1724
31500W        W47309  13.530  13.437   0.515 -0.0961  0.1779 -0.0755
31501W        W47310   9.589  10.667   5.070  0.1920  0.0987 -0.2021
31502W        W47311  11.102  10.299   3.199  0.0076 -0.0273 -0.3159
31503W        W47312  10.310  12.226  11.843  0.1320  0.2468 -0.0256
31504W        W47313  17.992   6.663   4.603 -0.3354  0.1719  0.1402
31505W        W47314  16.586   2.673  12.671  0.1226 -0.0988  0.2548
31506W        W47315   5.573   6.377   3.215 -0.3924 -0.3810 -0.3801
31507W        W47316   7.649  12.710   4.896 -0.0279 -0.1741 -0.0768
31508W        W47317  11.719  13.193  13.840  0.0226 -0.1453  0.1078
31509W        W47318   4.922   9.491  12.680 -0.1919 -0.2015 -0.0328
31510W        W47319  13.621   6.131   9.339 -0.2511  0.0030 -0.1077
31511W        W47320   0.656  15.859   2.523 -0.2772 -0.2225 -0.0253
31512W        W47321   3.352   8.022  12.681  0.3213 -0.2147 -0.0726
31513W        W47322  17.510   9.977  13.683  0.0441 -0.0660  0.2034
31514W        W47323  11.734  11.473   4.770 -0.1846 -0.2309  0.0991
31515W        W47324   3.064   2.079  11.361 -0.0232 -0.0283  0.1526
31516W        W47325   6.265   4.038  12.132  0.0186 -0.1048  0.0247
31517W        W47326   6.282   0.709   2.581  0.0855 -0.2469  0.3533
31518W        W47327   2.025  16.515   2.594  0.0655 -0.3452  0.0906
31519W        W47328  13.795   1.938  11.975  0.0373 -0.2202  0.1743
31520W        W47329   8.631   0.482  13.388 -0.0634  0.2900  0.2129
31521W        W47330   3.051  10.747  13.188  0.1047 -0.4211  0.1012
31522W        W47331   2.973   5.982  14.579 -0.2620 -0.0950 -0.2220
31523W        W47332  10.911  14.398  11.521 -0.3095 -0.3720  0.1526
31524W        W47333   0.449   4.484   0.641  0.3490  0.3507  0.0545
31525W        W47334   0.933  10.452   3.705  0.0608  0.2426  0.1887
31526W        W47335   4.052  17.505  11.938 -0.2694  0.1689  0.2754
31527W        W47336  11.351   6.360  13.974  0.0091  0.1071 -0.0849
31528W        W47337  15.118   0.189  12.798  0.0266 -0.0297  0.1464
31529W        W47338   0.502   9.652   2.125  0.2679  0.1311  0.2638
31530W        W47339   4.245   7.106   1.901 -0.0577 -0.0384 -0.3052
31531W        W47340  10.781   9.993  14.819  0.0565  0.1384  0.1815
31532W        W47341  14.765   3.937   0.496  0.1889  0.1687 -0.0675
31533W        W47342  12.215   9.243   0.780 -0.2104  0.2446  0.1568
31534W        W47343   8.012   3.579   3.400  0.1187 -0.0229 -0.2404
31535W        W47344   3.861   1.849  14.537 -0.0764 -0.0079 -0.3678
31536W        W47345   8.260  15.712   2.272 -0.2858 -0.1146  0.2808
31537W        W47346  14.250   5.645  11.171 -0.0247 -0.0161  0.0371
31538W        W47347  15.562   7.012   2.570 -0.2180  0.0868  0.1445
31539W        W47348   9.721   9.542   3.522 -0.0585  0.1248  0.3793
31540W        W47349  14.912   0.301   0.402 -0.4545 -0.4253  0.0106
31541W        W47350  14.047   1.519   4.916  0.4110 -0.2373  0.0546
31542W        W47351   1.464   9.830   0.252  0.0190  0.0758  0.0346
31543W        W47352   1.664   3.135   3.756 -0.0805  0.2127  0.0569
31544W        W47353  10.382   9.160   4.923  0.0659 -0.1362 -0.1721
31545W        W47354   9.789  10.394  14.118 -0.1810 -0.2275  0.3260
31546W        W47355   8.839  13.218  13.944  0.0504  0.1626 -0.1449
31547W        W47356  14.568   3.725  11.842 -0.0106  0.0439  0.2964
31548W        W47357  12.116   7.680   4.668 -0.0537 -0.0831  0.1537
31549W        W47358   3.880   0.817   0.945 -0.1132  0.1952 -0.1730
31550W        W47359  15.584  12.223   3.737  0.2096  0.0485  0.1729
31551W        W47360   1.540   3.053  14.988  0.3693 -0.1352 -0.2100
31552W        W47361  17.269   8.295  12.118  0.2242  0.1331  0.1099
31553W        W47362   5.789  14.095   1.990  0.3452 -0.0489  0.2224
31554W        W47363   7.169   6.571  14.810 -0.1445  0.0514 -0.1178
31555W        W47364  10.512  10.019   1.945  0.0561 -0.3505  0.0208
31556W        W47365  13.938  12.124  14.308  0.4774 -0.2715 -0.0561
31557W        W47366   5.150  16.836   1.364  0.2200  0.0991 -0.1652
31558W        W47367  16.542  15.059   2.254  0.1545  0.0292 -0.1587
31559W        W47368   3.141  14.482   3.566 -0.1934  0.1747  0.1670
31560W        W47369   9.632  15.536   2.568  0.0318 -0.0815 -0.1053
31561W        W47370   5.581  14.480  14.484  0.1276  0.1686 -0.1292
31562W        W47371   9.617  14.276  13.601  0.1091 -0.1254  0.0237
31563W        W47372  13.918  18.288  11.121 -0.1177 -0.1651  0.1997
31564W        W47373   9.613   8.716   2.436 -0.0927 -0.0523  0.2210
31565W        W47374  17.519   4.193   4.363 -0.2021  0.0978  0.0895
31566W        W47375   9.237   8.527   0.969  0.1385  0.2930  0.1262
31567W        W47376  13.329  18.417   1.523  0.2362 -0.2867 -0.1031
31568W        W47377   1.286   0.815  13.417  0.0364 -0.1178 -0.3570
31569W        W47378   7.187   2.953   5.602 -0.0247  0.2626  0.2688
31570W        W47379   0.919  10.048   0.519  0.2286  0.4654 -0.0962
31571W        W47380   1.118  18.209   1.767 -0.2542 -0.0743  0.4247
31572W        W47381   2.784  17.105  13.974  0.0684  0.0701  0.2371
31573W        W47382  14.560   8.226   4.079 -0.0106  0.0329  0.2481
31574W        W47383  12.949   3.959   1.801  0.0821  0.3508  0.0095
31575W        W47384  13.600   8.274   1.648  0.3220 -0.0896 -0.0895
31576W        W47385   4.378   6.710   2.273  0.1535  0.1338 -0.0209
31577W        W47386  14.217   7.005   3.114  0.0140  0.3126  0.2418
31578W        W47387   9.196  11.775  14.460  0.2092  0.0185 -0.0431
31579W        W47388   4.567   2.132  15.241  0.3920 -0.2174 -0.0930
31580W        W47389   3.362  18.257  13.364 -0.0685 -0.3250  0.2586
31581W        W47390   6.681  10.619   5.124 -0.1909  0.1661 -0.1810
31582W        W47391   0.777  17.610   9.754 -0.2599 -0.1478 -0.0451
31583W        W47392   1.919   9.641  15.293 -0.0362 -0.1402 -0.0030
31584W        W47393   1.615   0.066   9.769  0.0199 -0.0554 -0.2268
31585W        W47394   3.192  12.645   1.451 -0.1440 -0.2942 -0.1549
31586W        W47395  14.801  11.880   3.897 -0.0854  0.1379  0.3187
31587W        W47396   8.679   0.701   2.849  0.0501  0.4116 -0.1974
31588W        W47397   6.512   9.808  12.872 -0.0286  0.2522 -0.1870
31589W        W47398  13.273   4.368   1.836 -0.2833 -0.2975 -0.1092
31590W        W47399   9.648  11.372  15.735 -0.1299  0.1084 -0.1524
31591W        W47400   4.202  16.167  11.472 -0.0790  0.1511 -0.1489
31592W        W47401  12.059  17.952   0.166  0.2485  0.0276  0.3234
31593W        W47402  18.452  15.744   0.882  0.1350 -0.0005  0.0416
31594W        W47403   1.944  16.238  15.198 -0.2949 -0.1459 -0.2428
31595W        W47404   9.109   9.801  11.143  0.0620 -0.3440 -0.1789
31596W        W47405  14.208   0.531   3.569 -0.0309  0.2616  0.1580
31597W        W47406  14.859   9.872  14.908  0.0624  0.0573 -0.2416
31598W        W47407   3.945   6.534  15.632  0.0290  0.1303 -0.3058
31599W        W47408   5.262  10.911  11.600 -0.1632 -0.0738 -0.3096
31600W        W47409  16.065   6.432  13.258  0.0620 -0.1702  0.0166
31601W        W47410  14.049  14.083   0.098  0.2126  0.2719  0.0598
31602W        W47411   6.389   5.801   1.090  0.2816  0.0814 -0.2429
31603W        W47412   3.260  17.955  12.793 -0.4012  0.1339 -0.1971
31604W        W47413  15.269   2.102  14.059  0.0277  0.2647  0.2942
31605W        W47414   1.133   6.142   0.914 -0.1105  0.2624 -0.3726
31606W        W47415   1.443  10.421  14.996 -0.2024  0.1849 -0.0238
31607W        W47416   0.299   6.420  15.470  0.0010  0.0854 -0.1595
31608W        W47417  15.119   6.768   1.247 -0.1652 -0.2068  0.1726
31609W        W47418  15.309   7.501   0.535  0.3346 -0.2908 -0.1174
31610W        W47419  10.636   4.416   1.630  0.3119 -0.0536  0.2794
31611W        W47420   5.500   7.914   4.820 -0.0628 -0.0434 -0.2042
31612W        W47421   5.995  16.475  13.063 -0.1131 -0.0593 -0.0329
31613W        W47422   7.637  12.791  12.898  0.0058  0.1631 -0.1607
31614W        W47423   6.245  17.989  13.566  0.0387 -0.1635 -0.0395
31615W        W47424  16.728   9.389   4.462  0.2025 -0.2405 -0.0566
31616W        W47425   3.930  14.213  15.202  0.0308 -0.2046  0.2262
31617W        W47426  18.343   1.768   2.919  0.1339 -0.0281 -0.1453
31618W        W47427  15.675   3.981   4.953 -0.4318  0.3683  0.0094
31619W        W47428   3.023   1.837  13.441  0.2275 -0.1738 -0.1203
31620W        W47429  18.202  14.012   0.176  0.1273  0.0075 -0.0667
31621W        W47430  17.392   6.495   5.841 -0.2909 -0.0727  0.3148
31622W        W47431  11.119   2.461  11.694  0.0207 -0.2894  0.2868
31623W        W47432   4.748  15.673   2.825  0.1402 -0.0766  0.1884
31624W        W47433   2.116   7.002  14.010 -0.1064 -0.3131 -0.2163
31625W        W47434   9.163  13.318  15.388  0.0044 -0.1371  0.0195
31626W        W47435  11.181   3.132   4.199 -0.1409 -0.0158  0.1590
31627W        W47436   8.490  13.720  12.069  0.0072 -0.0447  0.0274
31628W        W47437  13.820   1.293  14.295 -0.1416  0.0163  0.2663
31629W        W47438  12.461   9.840   2.631  0.0232  0.0412  0.1077
31630W        W47439  17.331  15.732   2.454 -0.2705  0.2423  0.0189
31631W        W47440   5.205   6.806   3.458 -0.1467 -0.1754 -0.1140
31632W        W47441  14.057   5.608   2.107  0.0869  0.0407 -0.1357
31633W        W47442   5.692  16.865  13.105 -0.1646  0.0980  0.1704
31634W        W47443  14.082  14.640   1.889 -0.0096  0.3644 -0.0027
31635W        W47444  15.599  12.295  14.508  0.0865 -0.2404  0.0603
31636W        W47445   8.569   1.298  10.880  0.0246 -0.0813 -0.0451
31637W        W47446   7.919  18.143  14.579 -0.1255 -0.3838 -0.0262
31638W        W47447  15.877  14.366  14.530 -0.1812  0.3681 -0.0947
31639W        W47448   3.918   3.628  10.178  0.0060  0.0673  0.1238
31640W        W47449  16.801  13.712   1.545  0.1207  0.2016  0.3162
31641W        W47450   8.979   9.072  11.599  0.1355  0.0992 -0.3341
31642W        W47451  11.552   4.959   1.966 -0.2277 -0.2996  0.1596
31643W        W47452   4.318   7.856   4.455 -0.1143  0.0009  0.0132
31644W        W47453  13.634  12.609  13.070 -0.1148 -0.1773 -0.1761
31645W        W47454  12.446   1.803   4.672 -0.0814 -0.2382 -0.1859
31646W        W47455  17.859  18.346   4.229  0.1368 -0.0502  0.2582
31647W        W47456  15.743   8.342   4.520 -0.0663 -0.1240  0.1071
31648W        W47457  11.917   9.269   4.406  0.0136 -0.1531 -0.0931
31649W        W47458  14.920   7.923  13.463 -0.0086  0.1730  0.0027
31650W        W47459  14.775   6.961   0.896 -0.1433 -0.0968  0.0758
31651W        W47460  11.152  15.365   2.834  0.1316 -0.3567  0.1600
31652W        W47461   9.628   7.236  12.320 -0.0307 -0.3448 -0.1251
31653W        W47462   0.628   4.173  11.891  0.0769 -0.2507  0.0463
31654W        W47463   2.107   0.146  13.301  0.1617 -0.2192 -0.1891
31655W        W47464  15.797  13.714   4.610 -0.2032  0.2693  0.2334
31656W        W47465  10.126  10.558  13.003 -0.1070 -0.0686  0.0837
31657W        W47466   4.613   8.670  13.585 -0.6654  0.3558  0.1521
31658W        W47467   9.267  16.325   6.039 -0.3097  0.1454  0.3413
31659W        W47468  12.127   8.987   1.498 -0.1226 -0.2054  0.2118
31660W        W47469   2.702  14.016   5.373 -0.2348 -0.1408 -0.1371
31661W        W47470   4.723   1.686   0.071  0.0100 -0.0596 -0.2829
31662W        W47471  11.102   4.396   0.350  0.1529 -0.1404  0.0083
31663W        W47472  13.888  16.000  15.788  0.0133 -0.3976 -0.1834
31664W        W47473  11.178  12.326  13.233 -0.3680  0.2745  0.0367
31665W        W47474   1.458   1.897  12.482 -0.2715 -0.2421  0.1776
31666W        W47475  15.562  11.342  15.844 -0.0008 -0.3322  0.2956
31667W        W47476   7.231   1.551  14.340 -0.0748 -0.2588  0.3477
31668W        W47477   5.472  10.922   4.774  0.4191 -0.0129  0.0542
31669W        W47478  11.196   2.974  11.532  0.4500 -0.2762 -0.0279
31670W        W47479  18.154  16.712   2.003 -0.3673 -0.2431 -0.1799
31671W        W47480   4.613   2.098  12.717 -0.1392 -0.0818 -0.3314
31672W        W47481  13.973  11.479   3.043  0.0745  0.2275 -0.0202
31673W        W47482   9.445   1.052  11.417  0.0192 -0.0465 -0.0113
31674W        W47483   1.982   6.396   1.968  0.0206  0.2017 -0.4038
31675W        W47484   8.103   2.532  11.422  0.0808 -0.1065  0.0180
31676W        W47485  16.484  14.409   0.385 -0.3329 -0.4538 -0.2260
31677W        W47486   2.193  12.862   4.440 -0.0942 -0.1470 -0.0448
31678W        W47487   0.113   2.112  15.055 -0.1607  0.1419  0.0694
31679W        W47488   5.004  15.075  10.272 -0.1607 -0.1457 -0.1496
31680W        W47489   5.640  11.555   0.258  0.1464 -0.0326  0.0380
31681W        W47490  12.464  17.316   1.367  0.2339 -0.0093  0.1313
31682W        W47491  16.216   4.257  12.470  0.0931  0.0905  0.1955
31683W        W47492   3.945   4.194   5.248 -0.2980 -0.0277 -0.0330
31684W        W47493  15.868   7.798   0.996 -0.0236  0.1125  0.1737
31685W        W47494  18.043  16.367  13.937  0.0672 -0.2108  0.5587
31686W        W47495   4.360   2.552   3.374 -0.1863  0.2115  0.1017
31687W        W47496   0.570  16.393  13.776 -0.0980 -0.1707  0.3192
31688W        W47497  16.653  15.257  11.099  0.2468  0.1026  0.0942
31689W        W47498   6.134   2.128   0.682  0.0172  0.0238 -0.0777
31690W        W47499  14.174   3.970   3.156 -0.3200 -0.1371  0.0979
31691W        W47500  12.598   6.820   4.352  0.0271 -0.0314  0.0914
31692W        W47501  15.899   3.499  12.732  0.1274  0.3401  0.0133
31693W        W47502  14.506   4.579   0.817 -0.1645 -0.1359  0.1248
31694W        W47503  16.986   5.879  14.443  0.0243  0.0402 -0.0666
31695W        W47504  12.822  14.271  14.210 -0.2691  0.3494 -0.0254
31696W        W47505   8.817  13.573  11.265 -0.0266  0.1966 -0.2050
31697W        W47506   0.869   2.618   0.229  0.0372 -0.4446  0.1015
31698W        W47507  10.822   6.983   1.623 -0.1146 -0.1150 -0.0862
31699W        W47508   1.244   4.535   1.033  0.1594  0.1881 -0.0131
31700W        W47509  15.409   7.923   5.293 -0.0384  0.0236 -0.0400
31701W        W47510   2.246  10.538  15.715 -0.3031 -0.2085 -0.0039
31702W        W47511   8.494   1.987  11.972 -0.0422 -0.3644 -0.0481
31703W        W47512   5.652   4.939   3.879  0.3691 -0.0673 -0.0206
31704W        W47513  12.224   8.795  12.472  0.2055  0.1962  0.2680
31705W        W47514   4.184  18.325  13.111  0.0012  0.1076 -0.1935
31706W        W47515   9.500   1.035  15.625  0.0276  0.0988 -0.0156
31707W        W47516   7.444   6.892  12.655  0.0010  0.0549  0.0166
31708W        W47517  14.185   3.627   5.133 -0.0518  0.1263 -0.1937
31709W        W47518   8.291  13.773  15.300  0.1501  0.0817 -0.2040
31710W        W47519   2.781  12.695  12.679  0.0572 -0.0589 -0.0673
31711W        W47520  17.259  12.508  12.625  0.2002  0.2122  0.0799
31712W        W47521   4.236   7.329   4.444  0.2536 -0.0406 -0.3734
31713W        W47522   1.259   5.441  14.970  0.0631 -0.1319  0.3010
31714W        W47523   1.699  16.983  14.301  0.1752 -0.3170 -0.0490
31715W        W47524  14.842   7.084  13.066  0.1105  0.0896 -0.2211
31716W        W47525   2.120  17.603   5.034 -0.1572 -0.1648 -0.0114
31717W        W47526   5.689   5.274   3.337  0.0932 -0.1687  0.0646
31718W        W47527  16.558   1.050  11.354  0.1371 -0.1931  0.1565
31719W        W47528   7.971  17.301  14.398  0.1031  0.1635 -0.0800
31720W        W47529  13.750   5.637  12.656  0.5122 -0.1195  0.0648
31721W        W47530   7.018  10.572   4.298  0.1616 -0.1203  0.0170
31722W        W47531   2.428  13.367   4.034  0.0187  0.2223  0.3773
31723W        W47532  17.945  16.402  11.101  0.0613  0.0590  0.0550
31724W        W47533  15.068  16.565  15.644 -0.0330  0.0818  0.0473
31725W        W47534  13.595   4.998  14.831 -0.4055 -0.0389 -0.2597
31726W        W47535   7.197  18.463  15.148  0.0575 -0.1889  0.0330
31727W        W47536   9.582  13.630   1.564  0.0580  0.0311  0.1060
31728W        W47537   8.483  15.166   2.449  0.2138  0.0538  0.0888
31729W        W47538  18.074  17.227   9.605  0.1847 -0.1168  0.0544
31730W        W47539   8.508   2.429  11.722  0.0049 -0.1700 -0.0180
31731W        W47540  17.386   7.930  13.074 -0.1364 -0.0910 -0.2083
31732W        W47541   3.916   1.548   3.529  0.0533  0.0941 -0.0943
31733W        W47542  10.223   4.679   1.665  0.0273  0.2452  0.0063
31734W        W47543   7.575  14.700   1.483  0.0185 -0.2039  0.3334
31735W        W47544   7.790  14.858   1.899  0.0692 -0.0263 -0.3741
31736W        W47545   8.136   6.101  12.933 -0.1383  0.2782  0.0215
31737W        W47546   9.521   5.117  14.188 -0.2277 -0.0145 -0.0892
31738W        W47547  12.310  17.901   1.355 -0.2354 -0.1838 -0.2272
31739W        W47548  13.828  13.536  15.809  0.0900 -0.1359  0.0923
31740W        W47549  17.038  15.716   2.069 -0.1067 -0.4302 -0.1832
31741W        W47550   9.893  10.713   2.340 -0.2359  0.0337 -0.3229
31742W        W47551  15.405  12.437   5.153  0.3867  0.1294 -0.0587
31743W        W47552  14.199  13.051  10.730 -0.3177 -0.0893  0.2533
31744W        W47553   9.929  15.896   1.339 -0.3008 -0.0574  0.1033
31745W        W47554   0.090   1.413   1.146 -0.0212  0.2864 -0.0302
31746W        W47555   2.345  15.298   0.203 -0.1407  0.2861  0.0419
31747W        W47556   1.896  13.045  13.790 -0.1826 -0.1301 -0.1611
31748W        W47557  10.942  10.204   0.741  0.0520  0.2881 -0.0763
31749W        W47558  18.350  15.766  12.314 -0.1785 -0.0674  0.1214
31750W        W47559  10.534  13.004   4.515 -0.2514  0.3100  0.1905
31751W        W47560  17.582  18.312  11.779  0.0192  0.1347 -0.0333
31752W        W47561   9.871   6.691   0.924  0.2254 -0.2387 -0.1289
31753W        W47562  10.412  16.882  11.809  0.0426  0.2034  0.2777
31754W        W47563  13.972   1.607   1.323  0.2448 -0.0800 -0.0085
31755W        W47564   2.429  10.819  13.950  0.1445  0.1624 -0.0517
31756W        W47565   7.469  12.035   0.615 -0.1294 -0.2520 -0.0378
31757W        W47566  17.278   2.536  15.036 -0.2961  0.1552 -0.1275
31758W        W47567   4.370   0.995  12.542  0.0987 -0.2037  0.0768
31759W        W47568   6.841   9.748   5.342  0.1038 -0.1346  0.2481
31760W        W47569  11.145  18.005   3.058 -0.2089  0.2080  0.0560
31761W        W47570   4.944  14.734   2.746  0.0577  0.1446 -0.2277
31762W        W47571  15.550   6.405   9.559 -0.2968  0.1781  0.0104
31763W        W47572  17.549   4.974   2.401 -0.1306  0.1603  0.0883
31764W        W47573  12.966   0.728  13.716  0.2361  0.1866 -0.0509
31765W        W47574   9.708   8.798   0.326 -0.0220 -0.0488  0.0191
31766W        W47575   6.461   9.346  14.742 -0.1353 -0.0980 -0.1214
31767W        W47576   6.367  16.718   2.640  0.1609  0.0598 -0.1966
31768W        W47577   5.919   0.070   3.989  0.2014 -0.2938  0.1385
31769W        W47578  16.821  15.433  12.083 -0.2484  0.1528 -0.2301
31770W        W47579   0.273   6.963   2.086 -0.0716  0.1236  0.1983
31771W        W47580  10.184   9.152  11.688  0.2542  0.0476 -0.0987
31772W        W47581  16.733   0.175  12.150 -0.1999 -0.0435 -0.2951
31773W        W47582   8.671  13.974  10.658  0.3230 -0.1662  0.0039
31774W        W47583  16.202   6.243  12.826 -0.2319  0.0212 -0.3133
31775W        W47584  15.561   5.576   2.978  0.5144 -0.3957  0.0462
31776W        W47585  12.220  17.134  15.303  0.0727 -0.0847 -0.0463
31777W        W47586  18.293   5.262   4.960  0.0972 -0.2084 -0.1162
31778W        W47587   1.194   4.378  11.715 -0.0980 -0.0889 -0.0243
31779W        W47588  14.086  13.185   2.628 -0.3358 -0.0405 -0.0054
31780W        W47589   4.770  12.717   4.046 -0.0174  0.0877  0.1299
31781W        W47590   5.172   1.806  13.715  0.2355 -0.0037  0.0210
31782W        W47591   6.992  10.155  10.506 -0.1555 -0.3893 -0.0138
31783W        W47592   1.326   7.713   5.785  0.1433 -0.3934 -0.2385
31784W        W47593  17.509   2.853   0.513 -0.0310 -0.0247  0.4032
31785W        W47594  16.171   9.862   5.585 -0.0560 -0.1761  0.0220
31786W        W47595   6.962  12.079   2.998 -0.1126  0.1628  0.1938
31787W        W47596   1.591   7.607  14.602 -0.1745 -0.1895 -0.1551
31788W        W47597  18.075   3.916  15.168 -0.0629  0.1715 -0.0314
31789W        W47598  11.265  15.619  10.634 -0.1328  0.4083  0.1292
31790W        W47599   5.558   0.412   0.051 -0.2958 -0.2363 -0.0791
31791W        W47600   6.448   2.467   3.255 -0.0837 -0.0511  0.1413
31792W        W47601  17.075  12.998   1.688  0.0177  0.3066 -0.0094
31793W        W47602  14.287   2.325   0.817 -0.2990  0.0366 -0.2979
31794W        W47603  12.308   5.308   3.139 -0.3124 -0.0963  0.0428
31795W        W47604  13.081  11.621  11.296 -0.0769 -0.0793 -0.1875
31796W        W47605   2.051  11.307   2.001  0.0329  0.0830  0.2213
31797W        W47606  15.636  10.539   3.743  0.1332 -0.1241 -0.1862
31798W        W47607  10.304   5.661   2.841 -0.0790 -0.1837  0.0004
31799W        W47608   2.382  10.640   2.521 -0.0160  0.1545 -0.0593
31800W        W47609   7.255   7.922  11.314  0.1886  0.1220 -0.1292
31801W        W47610   8.243  11.918   1.979 -0.0289 -0.2651  0.2133
31802W        W47611  14.575  10.785   2.782 -0.0965 -0.2269 -0.4180
31803W        W47612   8.993  13.771  11.777  0.1400 -0.1290  0.1676
31804W        W47613  10.765  15.196   1.164  0.1705 -0.0651 -0.1244
31805W        W47614   5.266   5.952   3.105 -0.1047 -0.0963 -0.1437
31806W        W47615   6.044  15.818   0.238  0.1098  0.0214 -0.2381
31807W        W47616   2.246   9.408  13.845  0.0150 -0.0139 -0.3674
31808W        W47617   6.654  14.066   2.158  0.0404  0.1955  0.0953
31809W        W47618   2.641  11.915   1.006 -0.1768 -0.0444 -0.2734
31810W        W47619   3.576   9.272  11.420  0.0213 -0.0336  0.1086
31811W        W47620  12.637  14.714  12.761  0.2488 -0.0616 -0.0817
31812W        W47621   9.212   0.787   1.188  0.0140  0.4373 -0.0590
31813W        W47622   9.115   1.221   0.722  0.3300  0.0280 -0.2070
31814W        W47623  13.313   2.629   4.927  0.1981  0.1362  0.1354
31815W        W47624   8.988   0.505   0.257 -0.0501  0.0899 -0.2058
31816W        W47625  11.508  18.185  14.654  0.0644  0.1270  0.2605
31817W        W47626   5.602   1.717   4.087 -0.2270  0.1656  0.2698
31818W        W47627   9.094  18.442   4.365  0.0758 -0.0467 -0.0566
31819W        W47628   8.033   2.639   5.909 -0.0669 -0.2748  0.1546
31820W        W47629  17.847   4.839  14.674 -0.4084  0.1753  0.0764
31821W        W47630  15.785  14.992   0.277  0.0491 -0.0666  0.2075
31822W        W47631  14.906   8.823   3.069  0.0979 -0.0656 -0.0697
31823W        W47632  13.292  13.040   2.865  0.1101 -0.2960 -0.0848
31824W        W47633  17.832   4.197   1.803  0.0472  0.2142  0.0180
31825W        W47634   8.145   4.023   1.415  0.1275 -0.0107 -0.2890
31826W        W47635  10.580   1.605  15.363 -0.2775  0.2491 -0.0516
31827W        W47636  14.109   0.707   5.429  0.0776 -0.2328  0.1770
31828W        W47637  14.009   9.694  15.786  0.1346 -0.1259 -0.0585
31829W        W47638   6.602  12.895   2.355  0.4081 -0.3291  0.0323
31830W        W47639   4.222   1.951   0.258  0.0744 -0.2160 -0.2195
31831W        W47640   0.887  10.394   5.093 -0.2830 -0.0142 -0.0797
31832W        W47641   6.142  17.342  12.241  0.2255 -0.0668 -0.1930
31833W        W47642   5.548   9.000  13.877 -0.3070 -0.1498  0.1708
31834W        W47643   1.711   7.371   0.872  0.0538 -0.0272 -0.0640
31835W        W47644  12.000  18.310   0.553  0.0651 -0.0762  0.3682
31836W        W47645   9.210  17.256   2.038  0.1564 -0.2532  0.2551
31837W        W47646   8.475  11.674   0.840  0.0693 -0.3011  0.2164
31838W        W47647  14.389  10.621   4.299  0.4073  0.2014 -0.2632
31839W        W47648   5.066   7.977   3.645 -0.1034 -0.1386  0.0611
31840W        W47649   6.112   5.106  10.272  0.1165 -0.3334  0.1515
31841W        W47650   3.908  11.004  14.577 -0.0476 -0.1219  0.2413
31842W        W47651   5.439  12.433   2.849  0.3665 -0.1847  0.1809
31843W        W47652   1.450   5.780  11.479  0.1700  0.4233 -0.0234
31844W        W47653   1.935   8.552   2.130 -0.3302 -0.1766 -0.0280
31845W        W47654  17.590  11.278   1.887 -0.3359 -0.0182 -0.3573
31846W        W47655   2.992   4.387  12.658 -0.0340 -0.5664  0.1990
31847W        W47656   7.828   4.608  13.155 -0.2090  0.2509 -0.0816
31848W        W47657   2.616   7.304  12.339 -0.1266 -0.1183  0.0705
31849W        W47658   4.160  11.798   2.154 -0.0571  0.0308  0.1473
31850W        W47659  17.592  14.482   0.662  0.1894 -0.0065 -0.1611
31851W        W47660  17.463   9.327  11.441 -0.2359 -0.1459  0.1821
31852W        W47661   3.770  17.128   4.253  0.1877  0.1277  0.1413
31853W        W47662   6.446  14.574   1.985  0.2372  0.2662 -0.1567
31854W        W47663   1.355   7.146  11.702 -0.2019 -0.0758 -0.1423
31855W        W47664  14.374  16.167  10.932 -0.0098 -0.0759 -0.3237
31856W        W47665  13.167  18.222  11.698  0.2032 -0.1731 -0.0577
31857W        W47666  14.509  13.457   0.805 -0.1121 -0.0609 -0.1234
31858W        W47667  10.766   6.682   4.344 -0.0663  0.0440  0.0336
31859W        W47668  17.808   5.253   3.386 -0.0543  0.0506  0.0198
31860W        W47669   1.172  17.732  12.200  0.0912  0.0138 -0.0092
31861W        W47670   8.772   2.222   0.434  0.1023 -0.1195  0.1216
31862W        W47671   3.805  17.606   4.521  0.2903  0.0082 -0.1140
31863W        W47672  10.407  13.773  12.714  0.0683 -0.0190 -0.1471
31864W        W47673  10.741   4.081  10.869  0.0644 -0.1177 -0.0926
31865W        W47674   0.319  17.985   1.282 -0.0483  0.0885 -0.1806
31866W        W47675   1.456   6.322  14.499  0.1076  0.0886  0.1603
31867W        W47676   1.850   6.796   3.191 -0.4032  0.0287 -0.0338
31868W        W47677   7.233  16.451   4.002 -0.0955  0.2224 -0.2077
31869W        W47678  18.036   8.524  13.920 -0.1880 -0.2394 -0.3971
31870W        W47679  13.091  16.378   0.381 -0.3908  0.1092  0.4247
31871W        W47680  16.979   5.100  15.768 -0.2600  0.1928 -0.3283
31872W        W47681   9.109   9.343   2.021  0.0848  0.0587  0.0219
31873W        W47682   5.911  16.380  14.727 -0.2514 -0.1226  0.0386
31874W        W47683   0.780   2.736   4.211  0.0614 -0.0138  0.1928
31875W        W47684   1.075  14.704  14.685  0.2210 -0.1176  0.1122
31876W        W47685  15.863   1.558  12.916 -0.1185  0.1115  0.0566
31877W        W47686   6.741   9.219   4.455 -0.1225  0.2027 -0.0890
31878W        W47687   6.571   1.682  12.225 -0.0918 -0.2373 -0.2416
31879W        W47688   3.303  13.924  13.183 -0.3343 -0.0177  0.0512
31880W        W47689  13.457  16.431   1.200  0.0384  0.1103 -0.0379
31881W        W47690  17.890  16.091   3.265  0.0628 -0.0065 -0.0526
31882W        W47691   5.297   4.397   4.035 -0.0138  0.1086  0.1214
31883W        W47692  18.225  11.407  11.126  0.2239  0.2106 -0.1158
31884W        W47693   0.054   2.521   3.054  0.1362 -0.0197 -0.1282
31885W        W47694  18.222  10.713   1.768 -0.0309 -0.2759 -0.1920
31886W        W47695   1.010   1.081   1.982 -0.4394  0.1861  0.0210
31887W        W47696   9.108  14.835  14.509  0.1230  0.0045 -0.1554
31888W        W47697   9.013  12.174  13.398  0.0825  0.2894 -0.0433
31889W        W47698   4.548  16.148   0.473 -0.0666  0.0852 -0.1930
31890W        W47699  15.150  15.103   3.825 -0.1235  0.1241 -0.0155
31891W        W47700  17.281   6.388   2.779 -0.0126  0.2429  0.2628
31892W        W47701  10.118   6.562   2.836  0.0603 -0.1417 -0.1698
31893W        W47702  13.026   0.277  11.820  0.2235  0.0450  0.0358
31894W        W47703  15.016   2.678  11.360 -0.2554 -0.0239  0.2503
31895W        W47704   1.915   6.931   4.688  0.0656  0.0138 -0.1861
31896W        W47705   0.576   5.002   5.479  0.1151  0.2017 -0.1285
31897W        W47706   0.190   8.254   4.077  0.0249  0.2384 -0.0566
31898W        W47707  10.896   9.809   2.788 -0.0141 -0.0762  0.0331
31899W        W47708   8.746  14.519  13.292  0.2795 -0.1045 -0.3148
31900W        W47709  10.837   7.580  11.350 -0.2549 -0.0289  0.0783
31901W        W47710   3.080   9.339   5.228  0.2229 -0.2669  0.0550
31902W        W47711  12.809  11.843  15.294 -0.0517 -0.1955  0.1571
31903W        W47712   5.915  16.232   3.996 -0.1318  0.0297  0.3404
31904W        W47713   5.585   3.040   4.593  0.0009 -0.1140  0.1869
31905W        W47714  10.417  12.078   2.372 -0.2800  0.2234 -0.0415
31906W        W47715  11.675   3.149   1.373  0.2406  0.0639 -0.0626
31907W        W47716   8.050  12.306   3.432  0.1174 -0.0755  0.0277
31908W        W47717  13.769   2.233   4.106 -0.0702 -0.1547  0.2105
31909W        W47718   5.042   8.435  14.613 -0.0799  0.0955 -0.0377
31910W        W47719   6.063  16.740   1.614 -0.1964 -0.0702 -0.2410
31911W        W47720  17.036  17.958   4.788 -0.1994 -0.4115  0.2527
31912W        W47721  12.842  14.005   1.615 -0.1947  0.0648  0.0489
31913W        W47722  12.706  12.323  13.643  0.2315 -0.1873  0.2269
31914W        W47723   7.243   4.507   4.977  0.1297 -0.2082 -0.2128
31915W        W47724  17.349  14.112  14.199  0.1639  0.1087  0.2138
31916W        W47725  12.217   1.484  15.258 -0.1168 -0.0907 -0.0003
31917W        W47726   6.471  16.965   4.297  0.1456 -0.5823 -0.0773
31918W        W47727  14.543   2.028  15.094 -0.0391 -0.1353  0.5671
31919W        W47728  12.632   1.239   3.074 -0.1336 -0.1264  0.0128
31920W        W47729  12.795   2.277   2.473  0.0197  0.2641  0.1279
31921W        W47730   7.486   5.236   3.519 -0.0042 -0.0052  0.0427
31922W        W47731  14.187  15.940   0.989 -0.1355  0.1506 -0.1625
31923W        W47732   5.029  16.324   2.499  0.0699  0.1780  0.0544
31924W        W47733   4.683   2.052  10.041 -0.0253  0.2713  0.3087
31925W        W47734  14.034  14.498   0.352  0.0724  0.2049 -0.2269
31926W        W47735   5.328  13.276   4.435  0.0437  0.1493  0.1979
31927W        W47736   6.499   1.982   3.138  0.0735  0.0393 -0.1561
31928W        W47737   4.117   6.985  15.421  0.3744  0.1690  0.2726
31929W        W47738  13.301  13.817   1.757  0.3026  0.0008  0.1489
31930W        W47739  15.444  14.757   4.764 -0.0176 -0.0683 -0.1520
31931W        W47740   5.992   6.586   3.408 -0.1303  0.1054 -0.0740
31932W        W47741  14.980  12.912   3.039  0.1746 -0.0411 -0.1661
31933W        W47742  14.415   8.245  15.822 -0.2118  0.2648  0.1602
31934W        W47743  12.562   6.468  15.582 -0.2258 -0.0153 -0.1981
31935W        W47744  16.786   4.213   2.836 -0.1008  0.1976 -0.0215
31936W        W47745  17.126  15.853  14.197 -0.3277  0.2368  0.0116
31937W        W47746   1.616   8.221   4.244  0.2677 -0.2323  0.2562
31938W        W47747  13.676   7.443   1.709  0.1057 -0.0699  0.1547
31939W        W47748  11.992   9.886  11.493  0.3180  0.2774  0.1803
31940W        W47749  17.041  15.180  15.222 -0.0586  0.0062 -0.0271
31941W        W47750   9.395   1.897  13.396  0.1997  0.2044  0.0069
31942W        W47751  14.517   1.750  15.508  0.0016 -0.0253 -0.2731
31943W        W47752   8.851  16.118  11.408 -0.0256 -0.4126 -0.1519
31944W        W47753   7.833  17.907  10.240 -0.2361 -0.1405 -0.0065
31945W        W47754  13.552   4.058   0.106  0.2416 -0.0342 -0.0507
31946W        W47755   3.472   3.779   2.056  0.0526 -0.0501  0.2826
31947W        W47756  15.028  15.239  15.204  0.4065 -0.1654  0.0174
31948W        W47757   4.668   0.964   3.772 -0.0596  0.0536  0.5730
31949W        W47758   8.356  15.767  11.506 -0.0494 -0.3076 -0.0680
31950W        W47759   5.537   1.905   5.584 -0.0293  0.2183 -0.0602
31951W        W47760  13.518  10.795   1.017 -0.1487 -0.1838 -0.2655
31952W        W47761  12.673   1.799   1.602 -0.0645  0.0638  0.1090
31953W        W47762   6.255   0.050   4.328 -0.0452 -0.0880  0.0551
31954W        W47763  12.726  11.972   3.654 -0.2119  0.1248 -0.2895
31955W        W47764  16.231  12.863   2.255 -0.1534 -0.3638  0.1336
31956W        W47765   9.051  13.302   2.703  0.2968 -0.2266  0.2141
31957W        W47766  12.546  14.181   1.227 -0.1302 -0.2927  0.2147
31958W        W47767   8.793  16.998   3.171  0.3445 -0.2710  0.4355
31959W        W47768   7.689  11.029   4.538  0.2572  0.4131  0.3415
31960W        W47769   0.921  12.614  13.217 -0.1519 -0.0425 -0.0624
31961W        W47770  18.240  18.109  11.947  0.1756  0.0601  0.2946
31962W        W47771   5.974   0.426   0.348 -0.3796 -0.2895 -0.1441
31963W        W47772   7.453   9.228  14.395  0.1669  0.2316  0.2451
31964W        W47773  11.483   6.637  15.365  0.1735 -0.1120 -0.0498
31965W        W47774   8.013  11.803  15.032  0.2141 -0.1735 -0.2619
31966W        W47775  10.529  13.719   0.093  0.0111 -0.1277  0.0602
31967W        W47776  15.243  17.594   0.918 -0.0060 -0.1423  0.0479
31968W        W47777   4.728  12.099  12.934 -0.1625  0.2160 -0.2277
31969W        W47778   1.851  11.602   4.883  0.3473 -0.3321  0.2443
31970W        W47779   1.621   8.764   1.464 -0.2437 -0.0497  0.0895
31971W        W47780   0.091  15.426   1.847 -0.2021 -0.1065  0.2192
31972W        W47781   6.882   2.154  12.684  0.2360  0.3110 -0.0518
31973W        W47782  11.738  11.158  14.975 -0.1617  0.0502  0.0932
31974W        W47783  15.707  10.896   1.945  0.1971 -0.3155  0.0204
31975W        W47784   7.847  15.150  13.796  0.1421  0.1818  0.0857
31976W        W47785   0.114   4.939   5.227 -0.0082  0.0106  0.0347
31977W        W47786   5.780   8.964   0.695 -0.3762  0.1158 -0.1049
31978W        W47787  17.998  12.693  13.355  0.1812 -0.3408 -0.1593
31979W        W47788  15.243   9.506   4.090  0.1978 -0.0432 -0.2629
31980W        W47789   4.624   8.550   2.393 -0.0642 -0.0198 -0.0251
31981W        W47790  14.061   6.545   0.422 -0.0320 -0.0224 -0.3333
31982W        W47791  14.893   5.956  15.720 -0.1310  0.2644  0.1430
31983W        W47792   0.834   3.536  11.402 -0.1859 -0.0064  0.0752
31984W        W47793  18.154   4.413   0.343  0.1392 -0.0365  0.1206
31985W        W47794   1.181  11.637   5.423  0.0477 -0.1737 -0.0629
31986W        W47795  14.348   0.701  13.182 -0.1226 -0.1911 -0.0415
31987W        W47796   0.642   8.084  11.750 -0.1932 -0.2017  0.1107
31988W        W47797  13.820  18.425   4.870 -0.1340 -0.0194 -0.1676
31989W        W47798   1.165  12.468   4.887 -0.2230 -0.0959 -0.0052
31990W        W47799   5.119  11.574   0.755 -0.0405  0.0359  0.1246
31991W        W47800  13.257   8.082  10.855  0.1338  0.1838 -0.0760
31992W        W47801   7.138   7.109  14.063  0.3726 -0.2320  0.2422
31993W        W47802  11.497  15.040  11.188 -0.1954 -0.0500  0.3566
31994W        W47803   5.486   2.594  11.658  0.1717 -0.4163  0.1185
31995W        W47804   6.200  14.077   3.255  0.3551  0.1913 -0.0278
31996W        W47805   7.150   4.297  15.076  0.3433 -0.0480  0.0155
31997W        W47806  12.234   8.742  15.397  0.0335  0.1999 -0.1332
31998W        W47807   6.493   5.293   1.841 -0.0731  0.0669  0.1055
31999W        W47808   8.293  14.702   3.699  0.1625 -0.0977  0.0139
32000W        W47809   1.362  17.977   3.884  0.0834  0.2718  0.0361
32001W        W47810   5.294  13.250   2.292 -0.0326  0.1326  0.0505
32002W        W47811  16.453  13.275   3.947 -0.1682 -0.4074  0.2834
32003W        W47812  12.391  11.141  15.377 -0.0396  0.0307  0.1003
32004W        W47813   9.513   6.245   0.984  0.0939 -0.2986  0.0478
32005W        W47814  13.214  14.235  12.140 -0.2861 -0.0440  0.1580
32006W        W47815  17.192   4.174  15.058 -0.2260 -0.2540  0.2346
32007W        W47816   2.707  16.126   0.591  0.1653  0.1226 -0.0664
32008W        W47817  12.263  17.432  10.367  0.0214 -0.0635  0.0342
32009W        W47818   6.288   8.702   1.507  0.0153 -0.1059  0.1982
32010W        W47819  12.519  13.700  13.658 -0.0005  0.2731 -0.3456
32011W        W47820   2.094   5.380   2.999  0.2113 -0.2464 -0.0369
32012W        W47821   5.734  17.536   0.272  0.0664 -0.1681  0.2145
32013W        W47822  16.119   4.338  10.904  0.1836 -0.0712  0.0804
32014W        W47823   9.742   9.892   1.035  0.0316 -0.0113  0.0034
32015W        W47824   1.818   8.703  12.883  0.2803  0.0678 -0.2197
32016W        W47825   9.450   7.893   3.467  0.3119 -0.2594  0.0308
32017W        W47826   5.262  12.748  12.382  0.1272  0.2472 -0.0503
32018W        W47827   9.377  12.869  15.445  0.0128 -0.1405 -0.2394
32019W        W47828   5.557  12.532  13.353  0.0638 -0.1311 -0.1338
32020W        W47829   6.896  12.755  13.189 -0.1772 -0.2152  0.1950
32021W        W47830   6.425  11.975   5.116 -0.1471 -0.1877 -0.0414
32022W        W47831   2.119  14.116   5.230 -0.3565  0.2772  0.0778
32023W        W47832  15.643  15.223   3.760 -0.1146  0.0727 -0.0788
32024W        W47833   8.087  12.929   4.961 -0.1274 -0.0101  0.0109
32025W        W47834  14.939   1.376   2.050 -0.1589  0.1315  0.2618
32026W        W47835   5.217  13.941   2.199 -0.1622  0.0882  0.3319
32027W        W47836   1.860   5.051   3.653 -0.0381 -0.1022 -0.0683
32028W        W47837  15.591   1.470   2.955  0.1362 -0.1135 -0.4804
32029W        W47838   2.938   9.069  10.325  0.0947  0.1982  0.1133
32030W        W47839  15.573  14.405   5.119 -0.2190 -0.0033  0.2547
32031W        W47840   8.347   8.470   5.018 -0.2095  0.2333 -0.1153
32032W        W47841  16.319   0.164   5.110 -0.1372 -0.1407  0.1094
32033W        W47842  13.991   3.702   0.040 -0.1830  0.1031  0.0226
32034W        W47843   1.242   8.384  13.976  0.0346  0.0896 -0.1477
32035W        W47844   1.390   3.840   1.507  0.1592 -0.2017 -0.0088
32036W        W47845  16.498   6.809   3.975 -0.2660 -0.4801 -0.1067
32037W        W47846  16.089   5.601   3.933 -0.0056 -0.2191  0.0387
32038W        W47847  13.951   4.308   2.810 -0.1867 -0.1563  0.1276
32039W        W47848  10.663   2.699   4.780  0.0553  0.2854 -0.1719
32040W        W47849   8.676  16.009  13.012 -0.1873  0.2695  0.1290
32041W        W47850  15.415   4.113   3.033  0.1739 -0.0100 -0.3411
32042W        W47851  15.125   6.973  12.622  0.1831 -0.1311 -0.0125
32043W        W47852  10.444  17.550  12.398  0.2303  0.0711  0.0037
32044W        W47853  16.856   5.335   4.374 -0.0339  0.0326  0.1287
32045W        W47854  15.333  11.984   5.647  0.0699 -0.3808  0.0258
32046W        W47855   1.637  10.835  12.867 -0.1471 -0.0006  0.1524
32047W        W47856   6.044   7.884  11.822 -0.0355  0.2571  0.1086
32048W        W47857   4.385   6.476  12.948 -0.0786 -0.1500  0.2857
32049W        W47858   6.260   4.886  14.562 -0.0548 -0.0588  0.4173
32050W        W47859  10.168  14.934   5.323  0.4738  0.1343 -0.0268
32051W        W47860  16.724  10.710   0.469  0.0826  0.1210  0.0539
32052W        W47861   4.267  11.255   0.291  0.3068  0.3318  0.0407
32053W        W47862  13.974   7.499  11.225  0.1562 -0.0532 -0.0570
32054W        W47863  15.569  11.251   1.107  0.1194 -0.4400 -0.0695
32055W        W47864  13.161  11.841  10.579 -0.0214 -0.0866 -0.0725
32056W        W47865  13.553   9.444  15.506 -0.3769 -0.1667 -0.0924
32057W        W47866   6.260   7.333  12.781 -0.0265  0.1293 -0.3462
32058W        W47867   1.748  13.741   4.358  0.0415 -0.1509  0.1514
32059W        W47868  15.210  15.077   5.028  0.0462  0.2468 -0.4800
32060W        W47869   3.271  12.178   3.467  0.2699  0.4085 -0.0206
32061W        W47870  11.851   2.675  11.097 -0.1446 -0.7295  0.1525
32062W        W47871   3.441   7.600  12.992  0.1979  0.0888  0.0016
32063W        W47872  10.733  16.413  10.951 -0.3306  0.0926  0.1277
32064W        W47873   2.488  12.627   3.517  0.1366  0.2084 -0.2610
32065W        W47874  13.939  12.843   5.909  0.0472  0.2469  0.1065
32066W        W47875  14.179   3.783  14.339  0.3346  0.1478 -0.1842
32067W        W47876  13.761  12.478   3.482 -0.0155  0.0419  0.3217
32068W        W47877   2.631  15.377  15.105  0.1874  0.2923  0.1063
32069W        W47878   0.201   5.788   3.231 -0.0964 -0.0028 -0.0068
32070W        W47879  15.997  16.601  15.687  0.0610 -0.0510 -0.0533
32071W        W47880   9.873  14.497   2.667 -0.0074 -0.1284 -0.1278
32072W        W47881  14.125   8.871   1.130 -0.0090 -0.0959 -0.0736
32073W        W47882   4.830   5.774   0.259  0.0200  0.0723 -0.0228
32074W        W47883   2.150   5.277   1.836 -0.0428 -0.0852  0.0109
32075W        W47884  11.108  11.682   2.663 -0.1239  0.1429  0.3241
32076W        W47885   3.564   8.686  11.753 -0.0217 -0.1802  0.3124
32077W        W47886   0.890   3.283   1.666  0.1751  0.0753 -0.1184
32078W        W47887   5.310   6.731  11.347  0.1829 -0.0453  0.0419
32079W        W47888   7.335   0.794  10.211 -0.0680 -0.0653  0.2162
32080W        W47889   7.834  13.843   2.436 -0.1766  0.0520 -0.3300
32081W        W47890  17.630  18.148   1.090  0.2269  0.1024  0.2377
32082W        W47891  18.051  14.504  13.299 -0.5059  0.0988  0.1204
32083W        W47892   5.607   0.031  14.871 -0.0497  0.2832  0.2079
32084W        W47893  15.003   9.478   9.934  0.0015 -0.0084 -0.0725
32085W        W47894   1.356  12.759   0.526  0.1023  0.1893 -0.2853
32086W        W47895  12.232   8.837   2.124  0.1016 -0.3359  0.0071
32087W        W47896   4.775   8.272   5.203 -0.3954  0.1171  0.0648
32088W        W47897   2.221   4.756   3.296 -0.0105  0.1485 -0.4237
32089W        W47898   4.165   3.612   4.019 -0.0743 -0.1207  0.0477
32090W        W47899   2.809  16.602   4.251 -0.0469  0.0217  0.2090
32091W        W47900   6.404  14.533  14.949  0.4106  0.1118 -0.4081
32092W        W47901   8.411   4.161   0.472 -0.2814  0.0288  0.3693
32093W        W47902   8.659   6.463   0.275  0.2563  0.2110  0.2176
32094W        W47903   8.941   1.444   4.902 -0.0010  0.2316 -0.1136
32095W        W47904  14.391   1.133   0.462 -0.1746  0.0256 -0.1475
32096W        W47905  14.453  14.208   4.866 -0.1949 -0.0289  0.0094
32097W        W47906  18.277   4.615   5.505 -0.2755 -0.3896 -0.1883
32098W        W47907  15.106   1.657   0.351 -0.3342 -0.2115  0.1109
32099W        W47908   0.498   0.470  12.901  0.0231  0.2964  0.1373
32100W        W47909   4.206   5.812   4.550  0.1571 -0.1304 -0.3141
32101W        W47910  12.436   4.555  15.403 -0.3589 -0.2439 -0.2235
32102W        W47911  16.524  10.233  13.859  0.0729  0.4485 -0.0285
32103W        W47912  12.801  15.201   3.800 -0.0229  0.1793 -0.2368
32104W        W47913   9.640   8.536  11.202  0.0664  0.1043 -0.4594
32105W        W47914  13.828  11.816  13.243 -0.2784 -0.1357 -0.2985
32106W        W47915   1.548  12.457  11.086 -0.0031 -0.0798 -0.0219
32107W        W47916   8.449  14.271  12.436 -0.2523 -0.3709 -0.0298
32108W        W47917   4.267   1.511  11.752  0.2682  0.0811  0.1088
32109W        W47918   4.361   0.934  11.281  0.0121 -0.1294 -0.0848
32110W        W47919  11.861  13.119   1.086 -0.1213  0.1155 -0.0696
32111W        W47920   1.450   0.356   3.662 -0.1009 -0.0762 -0.0030
32112W        W47921   9.451   1.382   4.745 -0.0862 -0.1192 -0.2096
32113W        W47922  15.311   9.668   3.288  0.2193  0.0779 -0.3782
32114W        W47923  11.224   6.887   1.269  0.0242 -0.1355  0.1939
32115W        W47924   0.656   9.444  12.991 -0.1395 -0.0873  0.0319
32116W        W47925  10.265  12.183  13.395  0.2066 -0.0446  0.1361
32117W        W47926  12.919   4.197   3.751  0.0602 -0.2213 -0.0282
32118W        W47927   2.363   0.513  12.916  0.0877 -0.1678 -0.1515
32119W        W47928   8.448  15.708  14.416  0.3626  0.1511  0.2389
32120W        W47929   1.870   8.509  11.976 -0.1431  0.0734  0.2803
32121W        W47930   6.305   4.381   5.394  0.1350 -0.0383  0.2418
32122W        W47931  12.274  12.014  10.509  0.1751  0.2318 -0.0849
32123W        W47932   6.992  14.719  12.702 -0.2898  0.2342  0.3117
32124W        W47933   9.865  16.986  14.926 -0.3143 -0.0987  0.1667
32125W        W47934   6.188  15.461  11.289  0.2012  0.0641  0.1214
32126W        W47935   6.407   4.574  12.738  0.1399  0.4419 -0.0914
32127W        W47936  17.034   0.319  14.506 -0.1018  0.5024  0.0001
32128W        W47937   9.222  10.115   0.309 -0.0214 -0.0261 -0.0938
32129W        W47938   7.198   0.737   1.059 -0.1817  0.0086  0.1288
32130W        W47939   3.595  18.024   4.823  0.2718 -0.0141 -0.0169
32131W        W47940   8.382   0.149  14.307 -0.0281  0.0186 -0.3304
32132W        W47941  16.565  15.079   0.670  0.0193  0.0633  0.0710
32133W        W47942  16.309  16.188  12.851 -0.0379  0.2418 -0.2274
32134W        W47943  13.867  15.412  15.528 -0.0332  0.1666 -0.0855
32135W        W47944  15.418  14.382  12.592  0.1388 -0.0453 -0.0342
32136W        W47945   4.308   3.263  14.532 -0.3146  0.2543 -0.0335
32137W        W47946   4.605  11.443   0.686  0.2865 -0.0253  0.0397
32138W        W47947  17.030  10.793  12.618  0.2354  0.1425  0.1445
32139W        W47948   4.523  15.914  15.004  0.0766  0.1034  0.1730
32140W        W47949   2.737   1.267   2.531 -0.3938  0.0515 -0.2024
32141W        W47950  17.995  11.702  11.954  0.2510  0.1092  0.1281
32142W        W47951   7.994   2.479   3.322  0.3274  0.1568 -0.0742
32143W        W47952  17.082   2.139  13.552 -0.1434 -0.2227 -0.1274
32144W        W47953  14.289   2.564  12.918  0.1182 -0.0824  0.1255
32145W        W47954   3.080  18.333  14.085  0.1713  0.2363 -0.1433
32146W        W47955   2.911  15.201   0.347  0.0592  0.0219  0.2710
32147W        W47956   0.329   3.547  13.528  0.0208  0.1088 -0.2178
32148W        W47957  10.640  13.090   3.723 -0.1063  0.2283 -0.0119
32149W        W47958   2.641   4.653   3.536 -0.1222 -0.1815 -0.1190
32150W        W47959   0.731   3.612   3.185 -0.0298 -0.0930 -0.0275
32151W        W47960  13.202   7.591   1.199  0.0309  0.0189  0.2060
32152W        W47961   3.557   8.435   4.867  0.0890  0.3580 -0.2468
32153W        W47962   0.631  14.258   5.172  0.0831 -0.0416  0.1057
32154W        W47963   4.528   7.303   3.110  0.0018  0.1322 -0.1754
32155W        W47964  11.465   4.497  11.122  0.2270  0.2709  0.2560
32156W        W47965  13.550  14.547  12.336 -0.0577  0.0666 -0.3485
32157W        W47966  13.477   1.585  15.494 -0.0731  0.0203 -0.0519
32158W        W47967  13.656   6.225  14.586  0.2659  0.2815 -0.4286
32159W        W47968  15.239   1.013   0.218  0.0941 -0.1329  0.0704
32160W        W47969  11.523   2.462   3.027  0.0255  0.1633  0.2396
32161W        W47970   6.974   0.227   1.827 -0.0159 -0.0037 -0.1052
32162W        W47971   1.404   7.288   1.776 -0.0338 -0.4799  0.0485
32163W        W47972   5.764   6.187   3.656 -0.2734 -0.1332 -0.1365
32164W        W47973  13.353   4.843   4.640 -0.1997 -0.0859  0.1401
32165W        W47974  11.400   2.742   1.424 -0.0482  0.1176  0.1068
32166W        W47975  14.794   0.394  10.935 -0.0147 -0.1646 -0.0688
32167W        W47976  17.796   6.797   3.441 -0.2407  0.0916 -0.0349
32168W        W47977   6.536   4.112  11.260 -0.1271  0.0977 -0.0185
32169W        W47978  18.229   7.782  12.679 -0.1745 -0.3018  0.0019
32170W        W47979  14.174   4.066  11.796 -0.1617  0.0375 -0.2991
32171W        W47980  12.874  12.846  13.381 -0.3846  0.0725  0.0998
32172W        W47981   9.698  13.666  15.491 -0.1357  0.1004 -0.1102
32173W        W47982  13.618   2.834  11.646 -0.0554  0.0436  0.1643
32174W        W47983   0.042  15.866  11.821 -0.0606  0.0329  0.0213
32175W        W47984   2.476  12.683   1.914 -0.3552  0.3702  0.1866
32176W        W47985  10.715  17.749  12.787 -0.2093 -0.2006  0.0474
32177W        W47986   8.899  11.450  12.286 -0.4498 -0.1354 -0.0655
32178W        W47987   7.585  14.873   3.876  0.1991  0.0074  0.0973
32179W        W47988   4.604   5.101  15.788  0.0010  0.0631  0.0404
32180W        W47989   8.069   4.400   5.737  0.3852  0.1934  0.0613
32181W        W47990   9.065  17.639  14.770 -0.2154  0.2826 -0.1146
32182W        W47991   9.983   1.035  12.082  0.0992 -0.5465  0.1970
32183W        W47992   1.981  10.740  13.868  0.0022  0.1357 -0.0142
32184W        W47993   0.177   5.503  12.321 -0.3929 -0.1642 -0.0630
32185W        W47994   4.977  11.847  11.155 -0.0514 -0.3553 -0.2493
32186W        W47995  12.114   6.711   4.381 -0.1900 -0.4829  0.0809
32187W        W47996  10.425   3.120   3.355  0.1922 -0.0960 -0.0245
32188W        W47997   5.902   9.377   3.827  0.0532 -0.1497  0.2574
32189W        W47998   7.029   5.023  14.133 -0.0859 -0.1766  0.0057
32190W        W47999  11.749   1.806  14.388 -0.0430 -0.1296  0.3804
32191W        W48000  16.644   5.870   1.027 -0.0217 -0.0145 -0.0309
32192W        W48001  15.771   9.656   2.505  0.3092 -0.1706 -0.0493
32193W        W48002  18.132   9.883  12.739 -0.1789 -0.1668 -0.1336
32194W        W48003  11.851  10.217   0.487 -0.2780  0.2175 -0.0807
32195W        W48004   7.174  12.496   0.852 -0.0851 -0.1497 -0.0217
32196W        W48005   8.408  16.944   1.653 -0.0708 -0.0576 -0.0308
32197W        W48006   5.398  12.907   3.616 -0.3227  0.1016 -0.1229
32198W        W48007  16.994  11.243  13.348 -0.1568 -0.2793  0.0060
32199W        W48008   1.915   0.655   0.114  0.1921  0.2919 -0.0484
32200W        W48009  13.157  15.888  15.587  0.1472 -0.2081  0.0361
32201W        W48010   9.277  10.273  12.501 -0.2119 -0.0230  0.1432
32202W        W48011   5.678  15.341  15.681  0.0561  0.1694 -0.0250
32203W        W48012  10.113   1.133   2.097  0.2343  0.0301  0.1168
32204W        W48013  14.174   4.153  13.062  0.0093  0.1117 -0.0974
32205W        W48014   7.334   5.668   2.787 -0.0895 -0.1038 -0.2914
32206W        W48015  15.798  16.191  12.625 -0.0613  0.0640  0.2632
32207W        W48016  12.847   5.710   3.149 -0.4719 -0.1830  0.0366
32208W        W48017  10.637  14.616  11.935  0.0837  0.2257  0.1449
32209W        W48018   7.799   2.421  15.417 -0.1695 -0.1103 -0.2143
32210W        W48019   6.265  18.173   0.234  0.1023 -0.0290 -0.1195
32211W        W48020   1.355  12.344   3.862 -0.3899 -0.2171  0.0433
32212W        W48021  16.863  16.623  13.775 -0.0100 -0.2036 -0.0323
32213W        W48022   8.982  10.234   5.546  0.5248 -0.0556 -0.1248
32214W        W48023  13.156   7.900  11.436  0.0918  0.0437 -0.0168
32215W        W48024   0.352   6.726  12.223  0.0403 -0.1966  0.1066
32216W        W48025  18.318  10.507   0.707 -0.0892 -0.1907  0.0350
32217W        W48026  18.174   4.094   2.158 -0.1002  0.3778  0.0395
32218W        W48027   4.623   6.463   2.859 -0.4632 -0.1387 -0.1057
32219W        W48028   6.078  13.375  13.429 -0.2867  0.3475  0.2957
32220W        W48029   1.676   4.711  10.378 -0.1284 -0.0830 -0.0160
32221W        W48030  17.770   4.953   1.895 -0.0526 -0.0658 -0.2360
32222W        W48031   3.539  11.304  15.798 -0.0757  0.0185 -0.0382
32223W        W48032  14.668  14.427  11.952  0.0822  0.1623  0.1413
32224W        W48033   8.552  13.183  12.188  0.0376  0.0484  0.1981
32225W        W48034   1.662  17.986  14.063  0.1519  0.0569 -0.1741
32226W        W48035   6.359  11.396  13.117  0.1580 -0.0371  0.0390
32227W        W48036  14.452  15.566  14.343  0.0513 -0.2074  0.0025
32228W        W48037   4.572  17.930  12.944  0.0281 -0.0977  0.1067
32229W        W48038   7.250   8.947   2.515  0.1906  0.0201  0.1188
32230W        W48039  17.548  15.020   3.256 -0.0964 -0.4901 -0.3622
32231W        W48040   3.510  17.581   3.531  0.2325 -0.1653  0.1409
32232W        W48041   5.590   9.726   4.796 -0.1108  0.0551  0.1596
32233W        W48042   7.877  11.381   0.114  0.3213  0.0126 -0.3101
32234W        W48043  11.344   2.811  14.574 -0.1584 -0.1866  0.1192
32235W        W48044  17.668   0.464  12.391 -0.1717  0.3182  0.1135
32236W        W48045   7.714  11.308   0.917 -0.0572 -0.1308  0.1861
32237W        W48046  12.016  16.517  14.747  0.3418  0.0246  0.0818
32238W        W48047  17.724  13.347  13.780 -0.1249 -0.1795 -0.1395
32239W        W48048  13.090   5.082  13.416  0.0041 -0.1511  0.0687
32240W        W48049   9.681   9.157   4.623  0.1153  0.0617 -0.1281
32241W        W48050   9.070  13.340   1.703 -0.2378 -0.1200  0.0264
32242W        W48051  14.958  14.719   5.315  0.0737  0.0092 -0.1209
32243W        W48052  14.163   7.856   0.161  0.0758  0.0042 -0.1849
32244W        W48053   3.754   8.256  13.939  0.0939 -0.1297 -0.0414
32245W        W48054  12.375  15.368  12.363 -0.2533  0.1474  0.3199
32246W        W48055   6.178  17.502  14.029  0.0374 -0.0836 -0.0781
32247W        W48056   2.841  12.949  13.699 -0.1865  0.1266  0.1726
32248W        W48057  17.030  15.394  13.804  0.0918  0.0770  0.3065
32249W        W48058   2.989  10.001   1.032  0.1445 -0.3034 -0.0297
32250W        W48059  14.336  15.152   2.665  0.1589 -0.1791 -0.2391
32251W        W48060   1.295   6.870  13.714 -0.1068 -0.2799 -0.1084
32252W        W48061   3.506   5.616   0.311 -0.0560 -0.1792 -0.1054
32253W        W48062   2.870  16.754  11.862  0.1641  0.0476  0.0036
32254W        W48063   9.846   5.073   0.967 -0.0268 -0.1358  0.2474
32255W        W48064   5.640   2.590  14.672  0.0659  0.3465 -0.1559
32256W        W48065   6.619  14.816  12.371 -0.1088 -0.2711 -0.1024
32257W        W48066   7.872   3.638   0.186 -0.1100  0.0391 -0.1816
32258W        W48067  10.708  11.262  13.420  0.1354 -0.2436  0.0105
32259W        W48068  10.971   9.437   0.176  0.0699 -0.2496  0.1149
32260W        W48069   7.539   8.662  14.437  0.0612 -0.0377  0.2854
32261W        W48070  11.839  17.249   3.240  0.0734  0.0275  0.1101
32262W        W48071   8.306  13.268   3.439  0.1972 -0.0079 -0.1279
32263W        W48072   5.761   2.722  13.255  0.0861  0.1422  0.0345
32264W        W48073   4.018   0.239   2.989 -0.0564 -0.0044 -0.1740
32265W        W48074   1.163   1.688  11.260  0.3708 -0.0726 -0.3645
32266W        W48075   1.787   4.379   0.279 -0.0861 -0.1313  0.1236
32267W        W48076   1.936   8.350   0.745 -0.0910 -0.0454  0.1439
32268W        W48077   9.805  12.796   3.282 -0.6135  0.3464 -0.0575
32269W        W48078  17.177  17.412   1.457  0.0720 -0.1845 -0.3684
32270W        W48079   1.330  14.277  14.751 -0.2569 -0.1763 -0.0637
32271W        W48080  15.300  10.927   1.615  0.0067  0.0649 -0.1537
32272W        W48081  13.437  17.488  15.733  0.0761 -0.0643 -0.0446
32273W        W48082   0.531   0.294  11.374  0.0627  0.1203  0.0021
32274W        W48083  14.471  16.330  11.422  0.1222 -0.0602  0.3366
32275W        W48084  17.861   2.089   2.148  0.0428  0.0350  0.2095
32276W        W48085   2.269   6.247  11.069 -0.0048  0.1007 -0.0153
32277W        W48086   9.732  14.801  11.113 -0.0961 -0.0483  0.1503
32278W        W48087   3.257  17.522  11.367 -0.1314 -0.1700  0.1790
32279W        W48088   0.771  10.847   0.879  0.1664 -0.3322  0.0090
32280W        W48089   8.161   6.566   4.947  0.3658  0.0423  0.1121
32281W        W48090   8.099  10.316  10.387 -0.0855 -0.2040  0.1305
32282W        W48091   9.093   3.144  10.715  0.1407  0.0246  0.1036
32283W        W48092   1.403   2.889  13.334 -0.0310  0.1540  0.2496
32284W        W48093  17.207  11.895   3.501 -0.1781  0.0567  0.1598
32285W        W48094  13.629  10.396  11.317 -0.2681  0.3989  0.1252
32286W        W48095   5.840   7.871   0.534 -0.1463 -0.0765 -0.1758
32287W        W48096   5.919  18.203   1.022 -0.2396  0.0845  0.2298
32288W        W48097   9.918   4.138   5.075 -0.0267  0.1010  0.1144
32289W        W48098   0.979  11.160   5.645 -0.3594 -0.1571 -0.0245
32290W        W48099   6.913   3.272   0.144 -0.1663 -0.0452  0.1425
32291W        W48100  14.904   7.612   4.414 -0.0586  0.1142 -0.0189
32292W        W48101   8.438  17.642  13.454  0.3215 -0.0225 -0.2939
32293W        W48102   2.214  16.826   0.571 -0.2573  0.0332 -0.0216
32294W        W48103  16.157   3.676   2.577  0.4142 -0.4229 -0.2416
32295W        W48104   2.441  10.810   1.292  0.1865 -0.1672 -0.0538
32296W        W48105   1.036   6.733  11.684 -0.0470  0.2618  0.0363
32297W        W48106   1.987  17.165   1.420 -0.4026 -0.1077 -0.1972
32298W        W48107  11.430  12.074  12.326  0.1790  0.1575 -0.0599
32299W        W48108  15.456  12.183  10.888  0.1613  0.2455 -0.0559
32300W        W48109  15.149   4.465   4.327 -0.2007  0.0376 -0.1859
32301W        W48110  18.047   0.988   3.265 -0.4654 -0.0774  0.0580
32302W        W48111  14.420  12.072   5.223  0.0441  0.3307  0.2556
32303W        W48112   0.865   2.107   4.994  0.2092  0.0753  0.0518
32304W        W48113   6.410  13.969   2.615 -0.0847 -0.2715  0.2014
32305W        W48114  11.719   1.825   1.248 -0.1239 -0.2965  0.0735
32306W        W48115  18.197  15.232  15.043 -0.1067 -0.0148 -0.2129
32307W        W48116   5.213  16.440   5.270  0.0899  0.3027  0.2290
32308W        W48117   0.277   1.624   3.438 -0.1340 -0.0600  0.1756
32309W        W48118   1.017  15.146  14.938  0.3108  0.0919 -0.1077
32310W        W48119   2.935   4.775   3.169  0.0894 -0.0516  0.2532
32311W        W48120  15.566   4.066  13.319  0.1457  0.1647  0.0446
32312W        W48121   5.522   2.079  12.404  0.0429  0.1056  0.2014
32313W        W48122  13.683   5.451   3.672  0.0253  0.0093 -0.1496
32314W        W48123   8.555  12.656  11.944  0.0868 -0.3530  0.3627
32315W        W48124   2.559   8.969   3.323 -0.2057  0.2691 -0.0601
32316W        W48125   8.152   1.036  11.744  0.1221 -0.2274  0.0223
32317W        W48126   0.374   9.076   5.274 -0.0956 -0.0569  0.0728
32318W        W48127  10.851   7.629  15.630  0.2336 -0.0066 -0.1155
32319W        W48128   6.413   1.180   5.557 -0.1087 -0.2689  0.0021
32320W        W48129  10.593  16.187  14.595  0.1002  0.0071 -0.0425
32321W        W48130  17.674  16.032  10.160 -0.0592  0.1799  0.1380
32322W        W48131   7.983  16.712   1.859  0.2813 -0.1201  0.0849
32323W        W48132   0.816   0.026   5.948 -0.1145  0.0509 -0.1840
32324W        W48133   2.030   9.490   5.386  0.1871  0.0742  0.2078
32325W        W48134   3.398   4.660   1.315  0.0986  0.2512 -0.4340
32326W        W48135  18.286   6.538   5.476  0.2412 -0.1963  0.2190
32327W        W48136  13.296   3.417   4.375  0.0218 -0.3340 -0.0284
32328W        W48137  10.162  13.680  13.463 -0.2086 -0.0970  0.1588
32329W        W48138  17.473   5.055  13.831  0.0994 -0.1692  0.3133
32330W        W48139  17.365   3.333   0.549  0.1115  0.0424 -0.1280
32331W        W48140   2.977   9.594  13.524 -0.1353  0.1950  0.1175
32332W        W48141  13.605  13.666  12.659  0.2975 -0.0435  0.1107
32333W        W48142   1.061  14.723  13.971 -0.0306 -0.0798  0.1199
32334W        W48143   0.102   0.889   3.848  0.1980  0.0061  0.0254
32335W        W48144   0.602   6.501   2.583 -0.3826 -0.1878 -0.2358
32336W        W48145   9.277   2.951   2.361  0.2624 -0.1480  0.0131
32337W        W48146  11.089  10.594   0.341 -0.0492  0.1672 -0.0409
32338W        W48147   5.550  12.227   1.282  0.0806  0.0178  0.0400
32339W        W48148   9.148  17.867  13.932  0.0560  0.1639  0.0555
32340W        W48149   7.916   4.635  15.673  0.3109  0.2182  0.0383
32341W        W48150   7.027   8.116   4.259 -0.1774  0.2383  0.1315
32342W        W48151   0.606  13.173   0.059  0.1502  0.1497 -0.0525
32343W        W48152  16.768  16.536   2.456 -0.2107 -0.0258 -0.3582
32344W        W48153   3.496  14.982  11.935  0.0480  0.0106  0.1525
32345W        W48154  14.490  16.611   4.843  0.0484 -0.1357 -0.1812
32346W        W48155  16.777  10.688  12.013 -0.0051 -0.0591  0.1096
32347W        W48156  13.981  12.812  11.113  0.3502 -0.0351  0.1656
32348W        W48157  13.352  11.955   0.590 -0.0326  0.0250  0.0520
32349W        W48158   6.595  17.941   2.945  0.2716 -0.2428 -0.3997
32350W        W48159  13.004  14.062   3.866  0.3954  0.1332 -0.0623
32351W        W48160   8.091  16.589  14.845 -0.1282  0.0517 -0.1977
32352W        W48161   4.093   4.985  15.609  0.0508  0.2679 -0.2517
32353W        W48162  12.851  10.408  10.711  0.2026 -0.2140 -0.0350
32354W        W48163   7.965  10.597   3.174  0.2446 -0.1313  0.1182
32355W        W48164   6.745  13.341   3.935  0.0924 -0.0965  0.3744
32356W        W48165  14.771   7.705  14.287  0.0310 -0.0789 -0.1435
32357W        W48166   9.550   8.049   1.017 -0.1220  0.0836 -0.0212
32358W        W48167   7.850  13.994  10.809  0.2003 -0.0566 -0.0435
32359W        W48168  17.024  17.667  15.175  0.1547 -0.1196  0.0283
32360W        W48169  13.227  13.553  12.944  0.2252  0.1356  0.1433
32361W        W48170   2.780   8.689   3.719 -0.0448  0.1501 -0.1373
32362W        W48171  10.034  16.950   4.781  0.0544 -0.1665  0.1889
32363W        W48172   7.527  14.279  11.074 -0.0831 -0.0599 -0.0718
32364W        W48173  15.378   9.158  14.797 -0.1147  0.1018  0.1726
32365W        W48174  12.222  18.291  13.076  0.0258 -0.0485 -0.1088
32366W        W48175  15.811  14.397  13.009  0.2681 -0.0426 -0.1230
32367W        W48176  16.512  16.875  14.751  0.0960  0.0989 -0.1122
32368W        W48177  15.947   9.188  14.106  0.1726 -0.0159  0.0831
32369W        W48178  15.923  11.670   1.847  0.1994 -0.0319  0.0119
32370W        W48179   1.155   6.955   0.373  0.1694  0.1109 -0.1362
32371W        W48180  13.065   5.133  15.822 -0.1903  0.0372  0.3625
32372W        W48181  15.299   7.767  11.498  0.1038 -0.0902 -0.1759
32373W        W48182   1.980  16.680  12.181 -0.3269  0.0397 -0.1542
32374W        W48183  10.185   9.968  14.156 -0.1538 -0.1013  0.0737
32375W        W48184   0.915  14.215  11.581 -0.2494 -0.0998  0.2003
32376W        W48185  13.455  16.760   2.609  0.1273  0.2336 -0.2938
32377W        W48186   5.188   9.844  14.505 -0.0222  0.0720  0.2421
32378W        W48187   7.210   8.841  13.107  0.1907  0.0509 -0.2338
32379W        W48188  10.583   4.885   4.829 -0.4066 -0.0064 -0.1387
32380W        W48189   1.794   6.386   2.882  0.1485  0.1781 -0.1245
32381W        W48190  13.344  13.599   4.601 -0.2552 -0.2467  0.2573
32382W        W48191   5.698   6.676   9.876 -0.2315 -0.1516 -0.0059
32383W        W48192  11.400  12.856   1.734  0.1681  0.0231  0.0171
32384W        W48193   6.334   9.050   5.206  0.0865 -0.0150 -0.0268
32385W        W48194  17.189  17.240  13.562 -0.1839 -0.2691 -0.3530
32386W        W48195   6.949  12.080   0.669 -0.2780  0.1993  0.1247
32387W        W48196  13.266   7.722  10.118 -0.0242  0.0376 -0.3533
32388W        W48197   9.322  13.482   5.382  0.0712 -0.0813  0.2606
32389W        W48198  10.292  15.461   3.966 -0.2557 -0.0256  0.2143
32390W        W48199  16.129   8.617   3.693  0.4534 -0.2237  0.1038
32391W        W48200  12.352   9.277  11.972  0.2960 -0.2549  0.3310
32392W        W48201  16.013  11.436  10.576 -0.2285 -0.2106 -0.1704
32393W        W48202   2.583   5.259   3.156  0.0122 -0.2863 -0.4057
32394W        W48203   4.713   1.302  12.015 -0.0791  0.0899  0.0101
32395W        W48204   8.710  16.320   0.985  0.1799  0.1167  0.1191
32396W        W48205  17.157  16.162   1.033  0.1524  0.2582 -0.1260
32397W        W48206  15.746   0.821   2.227 -0.1978  0.0396  0.1180
32398W        W48207   1.897  15.551   1.161  0.0176  0.0976  0.1508
32399W        W48208   0.933  16.995  15.046  0.0372  0.0986 -0.1784
32400W        W48209  14.415  17.493   0.202  0.3321  0.0199  0.1929
32401W        W48210  10.784  12.423   0.812  0.1038 -0.3247 -0.0742
32402W        W48211   4.375   3.521  12.771 -0.0445 -0.0231  0.1418
32403W        W48212   3.988   5.567  11.085 -0.0371  0.3104 -0.0269
32404W        W48213  11.579   4.974  13.029  0.2951  0.0742 -0.0701
32405W        W48214   7.865   3.009  11.399  0.1451  0.0658 -0.0162
32406W        W48215  15.839  16.134  13.132  0.0846  0.0401  0.1624
32407W        W48216  14.631   8.936  11.609 -0.0978  0.1598 -0.0486
32408W        W48217   9.439   6.174   0.465 -0.3824 -0.0628 -0.2611
32409W        W48218  12.501   5.293   0.843 -0.1274 -0.4166 -0.0323
32410W        W48219  18.273   5.608  12.771 -0.1486  0.4904  0.1465
32411W        W48220  10.610  16.946  12.797 -0.1270 -0.2656  0.1375
32412W        W48221  12.446  11.126   2.123 -0.2487 -0.0403 -0.2053
32413W        W48222   5.893   2.663  10.434  0.0227 -0.1584  0.0929
32414W        W48223   6.597   4.274  13.099  0.0312 -0.1311  0.0142
32415W        W48224   7.714   7.741   3.840  0.2407  0.0616 -0.4686
32416W        W48225   7.912   6.728  12.520  0.0933  0.3484 -0.1359
32417W        W48226   3.822  13.340  12.992  0.3321  0.2132 -0.2218
32418W        W48227  14.170   3.323  13.459 -0.2297  0.0932 -0.1012
32419W        W48228   7.501  16.511  10.751 -0.1410  0.0386 -0.1155
32420W        W48229  17.200   9.240   0.532 -0.0201 -0.1321  0.2028
32421W        W48230  14.997  15.858   0.882 -0.0497  0.2834 -0.1218
32422W        W48231   6.539  17.535  13.706 -0.1138  0.0112  0.0598
32423W        W48232  15.919  16.900   5.175  0.1059  0.0531 -0.1148
32424W        W48233  13.231   1.313   2.358 -0.0339 -0.1322  0.2115
32425W        W48234  17.897  12.111  13.273 -0.1223  0.0752 -0.1090
32426W        W48235   8.091   3.814   0.571  0.0569  0.0810 -0.1888
32427W        W48236  12.835   6.052   1.485  0.1561 -0.1473 -0.1816
32428W        W48237   4.863  10.023  13.979 -0.0522  0.1093  0.1994
32429W        W48238   0.723   9.347   6.019  0.1111  0.1573 -0.2588
32430W        W48239   7.394   9.956   4.701  0.1494  0.3222  0.3403
32431W        W48240   6.339   2.482   1.884 -0.0868 -0.3215  0.1168
32432W        W48241   7.199   4.509  10.875  0.2238  0.1775 -0.3325
32433W        W48242  10.833  14.806   3.360 -0.3699 -0.1715 -0.0357
32434W        W48243   0.227  16.864  10.894  0.1548  0.2647  0.1418
32435W        W48244   7.965  10.443  12.733 -0.0920  0.0208 -0.0979
32436W        W48245   7.861   4.862  12.690 -0.1793 -0.0298 -0.2226
32437W        W48246  13.368   9.845   1.121 -0.1061 -0.4296  0.2084
32438W        W48247   4.744   8.323   0.087  0.0839  0.0559 -0.0922
32439W        W48248   8.456  14.912   4.122  0.0754  0.2266 -0.1835
32440W        W48249   9.756  17.410   3.084  0.1954  0.0090 -0.0994
32441W        W48250  11.027   2.359  15.308  0.0455 -0.1910 -0.2021
32442W        W48251  17.280  11.201  12.889  0.0303  0.3603  0.0044
32443W        W48252  15.761   4.309  11.468 -0.2864 -0.2310 -0.0352
32444W        W48253   6.689   1.154   3.503  0.2456  0.0553 -0.0108
32445W        W48254   3.241   2.669  15.315 -0.0175  0.0975  0.3422
32446W        W48255  15.464  10.804   5.087 -0.0666  0.1321 -0.3091
32447W        W48256  14.206  11.642   0.472 -0.0753  0.1422 -0.1278
32448W        W48257   2.205   3.644   9.898 -0.1675  0.1887 -0.1339
32449W        W48258  12.204  13.969   3.650 -0.1825 -0.2041  0.1690
32450W        W48259  16.210   6.819   4.952  0.0395  0.0764 -0.0822
32451W        W48260   0.171   6.630   5.866 -0.0117  0.0259 -0.2006
32452W        W48261   0.709  13.695   0.151  0.0373 -0.2005  0.1402
32453W        W48262  11.205   9.554  14.125  0.0561  0.0574  0.0875
32454W        W48263  10.853   8.328  14.574 -0.2108 -0.2363  0.0854
32455W        W48264  14.677   5.573   2.042 -0.2183 -0.0487  0.1178
32456W        W48265  11.366  17.707  12.728  0.2248 -0.1579  0.0210
32457W        W48266   6.845  15.905   2.387  0.1108 -0.0952 -0.1315
32458W        W48267   0.415  17.131  12.913  0.1703 -0.0661  0.0281
32459W        W48268   1.341   9.506  11.300 -0.0895 -0.2468 -0.4060
32460W        W48269  10.676   9.408  14.751  0.0424  0.1902 -0.3128
32461W        W48270  12.068   7.377   5.039  0.0041 -0.1026 -0.2668
32462W        W48271   3.945   1.450  15.410  0.2417  0.1040 -0.0373
32463W        W48272   9.352   2.871   3.264  0.0347  0.1902  0.1944
32464W        W48273  14.076   5.164   0.817 -0.1448 -0.2437  0.3351
32465W        W48274  14.757   3.548  13.308  0.0109 -0.1034  0.0699
32466W        W48275  15.224   6.591   2.704 -0.0512  0.3174 -0.0193
32467W        W48276   9.113   7.390   2.190  0.4895  0.0661  0.1017
32468W        W48277   4.222   2.297   5.172  0.0098 -0.0362  0.1453
32469W        W48278   1.761  11.665   2.203 -0.0097 -0.2450 -0.2275
32470W        W48279   6.165  14.271  11.997  0.1282  0.1525 -0.1785
32471W        W48280   7.110   7.254   3.252 -0.0098 -0.1485  0.1763
32472W        W48281  13.738  17.035  11.425  0.1284  0.0031 -0.1681
32473W        W48282  14.697  10.310   1.328 -0.0819  0.1957  0.1516
32474W        W48283  12.334  16.147   1.345  0.2407 -0.0998 -0.0867
32475W        W48284   3.224   6.423  15.668  0.1507 -0.0223  0.2594
32476W        W48285   1.538  14.410  12.763 -0.2325 -0.1825  0.3044
32477W        W48286  13.191  16.871   0.488 -0.1454 -0.1264 -0.0785
32478W        W48287  16.253   1.318  11.657  0.2336  0.2247  0.3180
32479W        W48288   7.928   5.591   0.199  0.1095  0.1889 -0.1039
32480W        W48289  15.558  17.787  15.234  0.0541 -0.1367 -0.1322
32481W        W48290   3.255   5.585  13.486  0.1803  0.1981 -0.2014
32482W        W48291   2.295   3.818  15.455  0.2931  0.0121 -0.0919
32483W        W48292  11.180  14.663   2.834  0.0286  0.1032  0.1530
32484W        W48293  10.030   2.514   2.654  0.2555  0.0273 -0.0688
32485W        W48294  11.639  17.686   0.197 -0.0590 -0.0188 -0.0461
32486W        W48295   9.072   9.795   2.934 -0.3920 -0.2845  0.0320
32487W        W48296  17.248  12.126  11.778  0.1041 -0.1229 -0.0231
32488W        W48297   9.192  16.136  14.175 -0.1301  0.0154  0.0705
32489W        W48298   8.046   5.283   4.571  0.1331 -0.0729 -0.0040
32490W        W48299   9.881   5.233   3.577  0.1953 -0.0285 -0.0147
32491W        W48300   4.705   6.384  12.562  0.2309 -0.0555  0.2893
32492W        W48301  14.197   0.731   3.058 -0.0689 -0.3531 -0.0529
32493W        W48302  14.763   0.933   1.350 -0.1159  0.1851 -0.2272
32494W        W48303  16.900   5.819  11.222 -0.3496  0.1442 -0.0701
32495W        W48304   0.919   9.713  11.606  0.0995 -0.3442  0.3350
32496W        W48305   4.621   1.363  11.426  0.2246  0.4469  0.1419
32497W        W48306  12.831   1.509   0.170 -0.0582  0.0078 -0.2142
32498W        W48307  12.966  11.220   2.268 -0.2528  0.1174 -0.1937
32499W        W48308   8.024   3.365  12.288 -0.0071 -0.0999  0.1135
32500W        W48309   6.959  17.212   1.984  0.0177  0.0601 -0.1560
32501W        W48310   2.667   4.940  11.072  0.1822 -0.1971  0.1429
32502W        W48311   5.279   6.930  12.694  0.0961 -0.0165  0.2369
32503W        W48312   8.308  12.752  14.676 -0.0907  0.3232  0.0460
32504W        W48313   5.421   1.428   5.387 -0.1297 -0.1180  0.1180
32505W        W48314   7.289  17.033   4.047 -0.1855  0.0275 -0.1391
32506W        W48315  18.350   0.760  14.508 -0.3260 -0.1496 -0.0906
32507W        W48316   0.180  15.050  11.901 -0.0784 -0.0276  0.2443
32508W        W48317  14.635   2.594  13.684  0.0159 -0.0639 -0.0562
32509W        W48318  10.868   5.342  12.751  0.2347 -0.1578 -0.1210
32510W        W48319  10.840   9.244   9.857 -0.1840 -0.1128 -0.3823
32511W        W48320   8.753  12.579  14.337 -0.0101 -0.1497 -0.0376
32512W        W48321   6.683   2.454   1.420  0.1682 -0.2157 -0.0388
32513W        W48322  10.975   9.207  14.389  0.1256  0.1910  0.0489
32514W        W48323   9.298   2.604  12.298  0.1531  0.0168  0.1292
32515W        W48324  16.433  11.856   3.645  0.0251  0.0525 -0.0105
32516W        W48325   8.345   9.390  12.379  0.1658  0.2789  0.0511
32517W        W48326  11.432  11.777   5.635 -0.1935 -0.1099 -0.0530
32518W        W48327  10.508  11.978   0.847  0.3192 -0.2306 -0.0626
32519W        W48328  18.218   9.906   0.029  0.1153  0.3312 -0.0453
32520W        W48329   3.495   4.307  14.449  0.1106 -0.0461  0.1198
32521W        W48330   9.281  13.488   0.866 -0.1234 -0.2193 -0.0099
32522W        W48331   0.435  12.077   0.973 -0.0592  0.1430  0.3034
32523W        W48332  10.142   3.181   5.425 -0.1605  0.2462  0.4051
32524W        W48333  14.052  12.800  12.660  0.1172 -0.1123 -0.0916
32525W        W48334  10.322  16.538   0.112  0.0216  0.0074 -0.1817
32526W        W48335  12.696   3.832   1.372 -0.0581 -0.1948 -0.2559
32527W        W48336   7.899   2.137  15.853  0.1067 -0.0648 -0.0760
32528W        W48337   9.675   4.053  11.834  0.0530  0.1986  0.0208
32529W        W48338  16.395   6.211   0.139  0.0487 -0.2133 -0.1847
32530W        W48339   0.171   8.515  15.055  0.1039  0.2137  0.1578
32531W        W48340  12.949  16.056  14.202  0.0836  0.0173 -0.2564
32532W        W48341   1.446   3.151   0.955 -0.0795 -0.2877  0.0772
32533W        W48342   0.290  10.069  15.559  0.1171  0.0665  0.0724
32534W        W48343   8.066   8.973  15.685 -0.0628 -0.1416  0.0166
32535W        W48344  12.686  16.614  13.371 -0.4022  0.0191  0.1185
32536W        W48345   3.773   0.510   1.429  0.1752 -0.1277 -0.0919
32537W        W48346   2.110  17.646   1.025 -0.0989 -0.1592 -0.0247
32538W        W48347  14.069  15.136  11.683 -0.1017  0.2488 -0.1042
32539W        W48348  18.463   8.463  14.477  0.1265 -0.2251 -0.0934
32540W        W48349  16.838   4.954   1.248 -0.3044 -0.1338  0.0688
32541W        W48350   3.408  16.239  11.226  0.2346  0.0272  0.1511
32542W        W48351   7.462  15.381  12.835 -0.0470 -0.3446  0.0486
32543W        W48352   1.686  16.011   3.863  0.0808 -0.1674 -0.1375
32544W        W48353  17.922   2.308  11.688  0.0442 -0.1926 -0.0756
32545W        W48354  10.717   4.943  14.901  0.2134  0.0868 -0.0122
32546W        W48355  14.930   5.444  11.959  0.0351 -0.0375  0.3918
32547W        W48356   7.278  12.619  13.890 -0.0623  0.2389  0.1856
32548W        W48357  16.757  14.798  11.387  0.2028  0.0738  0.5256
32549W        W48358   8.012  12.085   0.899 -0.1108  0.0657  0.2947
32550W        W48359   7.595   4.084   2.176 -0.0728 -0.3981 -0.1578
32551W        W48360   5.639  14.290   3.182 -0.0505  0.0571 -0.2222
32552W        W48361  11.459   8.948  13.464  0.1325  0.3173 -0.0572
32553W        W48362   4.380   8.782   0.152 -0.3169 -0.1342 -0.2640
32554W        W48363   5.158   5.548   9.265  0.3231  0.2633 -0.0680
32555W        W48364   8.376   5.279  11.110 -0.0801 -0.0728 -0.1553
32556W        W48365   9.088   8.968  13.805 -0.0339  0.3823 -0.0820
32557W        W48366  16.600   1.838  14.681 -0.0622 -0.1751 -0.0438
32558W        W48367  17.504   2.568   4.914 -0.2827  0.0933 -0.0467
32559W        W48368   6.988   0.186  12.382  0.1329  0.0715 -0.0334
32560W        W48369  13.023   7.594  12.479 -0.1094 -0.4356  0.1442
32561W        W48370   5.119   0.935  12.395 -0.1625  0.2338 -0.0008
32562W        W48371  17.170  17.163  12.549 -0.0241  0.0086  0.1608
32563W        W48372  14.070  12.355  12.895  0.1863  0.1145  0.0911
32564W        W48373   2.754   6.096  11.531 -0.2308  0.2263 -0.2315
32565W        W48374  13.573  14.399  15.238  0.1230 -0.2175  0.0010
32566W        W48375   5.444  10.553   3.906 -0.3675 -0.3757  0.1689
32567W        W48376  15.550  18.354  10.715  0.1599  0.0797  0.1040
32568W        W48377   2.198  14.052  13.138  0.2486 -0.0577 -0.1029
32569W        W48378  11.233   4.101  10.936 -0.1053 -0.2637  0.1550
32570W        W48379  12.471   6.395  12.220 -0.2997 -0.1201 -0.1355
32571W        W48380  17.280  16.792   4.826 -0.0488  0.4455 -0.2435
32572W        W48381  15.498   1.272  13.253  0.0203  0.1427  0.3080
32573W        W48382  18.313   2.696   0.060  0.0074  0.3367 -0.2076
32574W        W48383   0.264  13.230   1.070 -0.0513 -0.2731 -0.1434
32575W        W48384  16.450   4.790  10.406  0.2549  0.2077  0.1589
32576W        W48385  11.065   1.121  12.247 -0.0914  0.0856  0.3053
32577W        W48386  13.003   4.693  15.447 -0.1140  0.0238 -0.0035
32578W        W48387  14.408   8.918   3.198 -0.1930 -0.2860  0.0652
32579W        W48388   1.948  12.507   2.806  0.2978  0.2763 -0.1945
32580W        W48389  17.242   0.906   3.406 -0.0353 -0.1469 -0.0421
32581W        W48390   2.835   7.817   3.869 -0.0207 -0.0742 -0.1584
32582W        W48391  17.648  14.206   2.481  0.3436  0.1224 -0.1025
32583W        W48392   4.685   7.699   2.228 -0.0072  0.0782  0.1544
32584W        W48393  13.881   8.307  14.047  0.1860  0.0115  0.0106
32585W        W48394   3.308  11.324   1.253  0.1643 -0.0609 -0.0252
32586W        W48395   8.210   1.974  12.403  0.0395 -0.0280 -0.1333
32587W        W48396  16.414  16.036   1.306  0.1536 -0.0594  0.1717
32588W        W48397   4.917  13.484  10.586  0.4277  0.0075  0.1548
32589W        W48398  17.713  14.463   2.960  0.0928  0.2246 -0.2019
32590W        W48399  14.369  16.116   0.087 -0.0174  0.2731 -0.4889
32591W        W48400   5.539   8.980   2.749 -0.2724  0.0726  0.2748
32592W        W48401  17.203   4.339   5.119 -0.0908  0.0083  0.0689
32593W        W48402  13.675   3.081   3.267  0.0760 -0.3498 -0.1399
32594W        W48403   3.161   9.435  13.952 -0.0143 -0.1595  0.1682
32595W        W48404   3.170   5.234  13.079  0.1875 -0.0593 -0.1161
32596W        W48405   4.025   0.464   4.260  0.0016  0.0677 -0.0712
32597W        W48406  14.068   6.680   5.259 -0.0332  0.2326  0.0010
32598W        W48407   8.910  11.445  14.730 -0.0053  0.0656  0.1225
32599W        W48408   2.636  16.975  15.787  0.4681  0.0799 -0.2606
32600W        W48409   0.782   8.390   3.207 -0.1447  0.0140 -0.1200
32601W        W48410   0.473   3.667  15.707  0.2971 -0.1462 -0.0349
32602W        W48411   9.375  14.286   3.841 -0.0649  0.0222  0.3061
32603W        W48412  13.394  12.787  13.500 -0.2936 -0.1553  0.1088
32604W        W48413  11.382  18.415   2.855  0.2778  0.0078  0.1713
32605W        W48414   0.004  13.881  12.729 -0.1244  0.0195  0.4122
32606W        W48415   5.196  10.933   5.244  0.0675  0.1798  0.2363
32607W        W48416  12.754  16.876  14.540 -0.1435 -0.3567 -0.2932
32608W        W48417   9.187   9.816  12.905  0.0120  0.4248 -0.3357
32609W        W48418  18.298   6.121  13.119  0.2070 -0.2064  0.0594
32610W        W48419  10.879   5.341  15.238  0.2719  0.0510  0.0429
32611W        W48420   2.304   8.798  12.765  0.0409  0.1262 -0.2508
32612W        W48421  14.088  17.370  12.878 -0.1300  0.1571  0.0649
32613W        W48422   5.830  17.447  14.409 -0.0543 -0.0245  0.1887
32614W        W48423   4.783   3.404   4.723 -0.1549  0.0720 -0.2534
32615W        W48424   9.753  11.943  10.838  0.0585 -0.2245 -0.0217
32616W        W48425   5.319   0.010  11.810 -0.3460  0.1937 -0.1340
32617W        W48426   9.481  18.211   2.689  0.2189 -0.0224  0.0211
32618W        W48427  13.233  15.873   3.880  0.3583 -0.0857 -0.1749
32619W        W48428   6.512  10.412   2.986 -0.1450  0.1598  0.3304
32620W        W48429   5.553  10.885  12.896  0.0004  0.2191 -0.0356
32621W        W48430   5.730   0.057   3.291  0.0107  0.2628 -0.1124
32622W        W48431   2.576   1.562   1.839 -0.1232  0.3492 -0.1756
32623W        W48432   7.179   4.286   3.843 -0.0372  0.2082 -0.1232
32624W        W48433  11.056  15.276   3.702  0.2888  0.0509  0.0373
32625W        W48434  11.641   9.001   5.166 -0.0862 -0.3008  0.0150
32626W        W48435  15.249   7.177   3.356  0.0401  0.0889  0.1588
32627W        W48436  18.271  13.588  15.183 -0.1527  0.1942 -0.0141
32628W        W48437   7.301  12.393   3.398 -0.1555 -0.0053  0.1381
32629W        W48438   9.959   8.815   5.486 -0.1756 -0.3050 -0.1846
32630W        W48439  17.282   9.293  13.115 -0.0331  0.0526  0.0257
32631W        W48440  13.858   0.789   5.047 -0.0133 -0.2371  0.0264
32632W        W48441  16.006  17.735  15.418 -0.0807  0.1334 -0.0700
32633W        W48442   8.836   6.883   0.634  0.1794 -0.3389 -0.0838
32634W        W48443   2.381   6.975  14.466  0.1642  0.0125  0.0271
32635W        W48444   7.164  13.769   5.624 -0.2089 -0.1468 -0.2932
32636W        W48445  13.058  17.307   5.560 -0.2165  0.1723  0.2263
32637W        W48446  15.179  15.407  12.101  0.0725  0.0662 -0.0948
32638W        W48447   9.059  13.897  14.116  0.0055 -0.0374  0.2661
32639W        W48448   9.359  16.283   2.159  0.0319 -0.2891  0.0383
32640W        W48449  10.716  11.040  12.544  0.3463  0.0675  0.0405
32641W        W48450   5.968   6.133   1.889  0.0976  0.0559  0.0344
32642W        W48451   0.482  16.029   0.967 -0.3121  0.0090  0.0768
32643W        W48452   5.332  13.626   2.579 -0.1630  0.0097  0.0115
32644W        W48453  15.227   0.327  11.973  0.0568 -0.2378 -0.3282
32645W        W48454   6.502   1.966  14.196 -0.3242 -0.2501  0.1820
32646W        W48455   8.527   8.812   3.026 -0.0805  0.1144  0.0934
32647W        W48456  10.349  14.318  12.777  0.4819  0.0828 -0.2001
32648W        W48457   4.974  18.215  15.622  0.1544 -0.1281 -0.3331
32649W        W48458   2.111  10.480  14.233  0.3341 -0.3026 -0.2855
32650W        W48459  12.742  17.012   5.273 -0.0134  0.2042 -0.3875
32651W        W48460   5.870  11.731  13.129 -0.1315 -0.0942  0.2303
32652W        W48461   4.272   4.342   3.824  0.1007  0.0084 -0.2044
32653W        W48462  10.035  11.007  15.377  0.0406  0.2212 -0.0563
32654W        W48463   6.335   8.003  15.776 -0.0823  0.1057  0.0302
32655W        W48464  11.225   8.594  12.384  0.3799 -0.0184 -0.0733
32656W        W48465  12.556   3.700  10.119  0.0568 -0.0148 -0.2130
32657W        W48466   8.235  12.764   3.323 -0.0967 -0.0364 -0.0180
32658W        W48467   0.534  14.094  12.537  0.1174 -0.1040 -0.3420
32659ION     NA48468  10.506   4.267   2.926  0.2864  0.0209 -0.0151
32660ION     NA48469   8.285  15.840  15.134  0.1940 -0.0588  0.1414
32661ION     NA48470  16.459   5.538   5.890  0.1960 -0.3595 -0.1097
32662ION     NA48471   3.643  10.639   5.542 -0.0070 -0.1039 -0.3206
32663ION     NA48472   5.124   6.530   1.267  0.0719 -0.0833 -0.1990
32664ION     NA48473   5.132   4.228   9.625  0.1737 -0.3099 -0.0877
32665ION     NA48474  10.595  14.789  15.112  0.0041  0.2827  0.0903
32666ION     NA48475  16.601   9.145  12.859 -0.4724 -0.2526 -0.1445
32667ION     NA48476   1.548   3.164  11.865  0.1009  0.1712  0.2713
32668ION     NA48477   8.100   7.899  10.203 -0.0531 -0.0427  0.1708
32669ION     NA48478  18.301  10.505   1.295  0.2035  0.0217  0.1076
32670ION     NA48479   2.072  17.800  10.279 -0.0075 -0.3763 -0.0075
32671ION     NA48480   8.139   6.070   9.989  0.0831  0.1710 -0.4260
32672ION     NA48481   3.079  16.691   5.638  0.1751  0.1261  0.1859
32673ION     NA48482   4.481   8.500   1.572 -0.0531 -0.0587 -0.3801
32674ION     NA48483  17.207   7.619  10.272 -0.2701 -0.1526  0.0552
32675ION     NA48484  17.662   3.531  10.149 -0.2443  0.0222 -0.2408
32676ION     NA48485  16.914  13.497   5.765  0.0568 -0.1390 -0.2121
32677ION     NA48486  12.807  14.091   4.600  0.1341 -0.3733  0.1481
32678ION     NA48487   4.936   5.156   5.408 -0.1244 -0.1976 -0.1659
32679ION     NA48488   6.977   1.973   1.940  0.1094 -0.0385 -0.1613
32680ION     NA48489   9.706  11.287   1.154  0.2096  0.2047 -0.2235
32681ION     NA48490   9.455  10.940   5.732 -0.1507 -0.3002 -0.4788
32682ION     NA48491   7.633  10.843   6.281 -0.0337 -0.2898  0.0592
32683ION     NA48492   3.031   7.393  11.447  0.0012  0.0912 -0.0463
32684ION     NA48493   9.782  14.194   9.885 -0.1536 -0.1668 -0.0478
32685ION     NA48494   5.805  14.240   3.671  0.0608 -0.1767  0.2158
32686ION     NA48495   1.419  15.578  15.799  0.0234  0.4454  0.2093
32687ION     NA48496   8.559   0.051   0.912  0.3446  0.1082  0.0674
32688ION     NA48497  13.993  16.192   5.658 -0.4468  0.1319 -0.0681
32689ION     NA48498   6.802   2.373  10.064  0.2713 -0.0068  0.1821
32690ION     NA48499   2.386   7.260  14.880 -0.0786 -0.2765 -0.1738
32691ION     NA48500   4.354   2.774   9.992 -0.0458 -0.1692 -0.2087
32692ION     NA48501   7.033   2.205   0.475 -0.1122  0.1292 -0.1134
32693ION     NA48502   3.823  17.566   3.953 -0.0469  0.0030 -0.1536
32694ION     NA48503  16.675   2.555   0.464 -0.1075  0.1396 -0.3142
32695ION     NA48504  15.110   1.371  10.317  0.1280  0.2575  0.2193
32696ION     NA48505  12.110   1.364   4.500 -0.0707 -0.0861  0.2811
32697ION     NA48506   7.570   7.519  15.238 -0.1972  0.1763  0.2259
32698ION     NA48507   0.787   0.874  15.247 -0.2864 -0.0297  0.0730
32699ION     NA48508  13.190  18.322  13.714  0.2660 -0.0794  0.3574
32700ION     NA48509   6.456  14.561  10.220 -0.1075  0.0812  0.0799
32701ION     NA48510   1.679  13.344   4.668  0.0645 -0.0573 -0.1378
32702ION     NA48511   6.739  15.417  10.167 -0.2716  0.1275  0.0855
32703ION     NA48512  10.788  17.514   5.794  0.2075  0.1829 -0.1790
32704ION     NA48513   1.423  10.540  12.525  0.1329  0.0726  0.3897
32705ION     NA48514   7.132   7.864   5.564 -0.0221  0.2597 -0.0729
32706ION     NA48515  18.219   1.486  14.329  0.0515 -0.0228  0.1017
32707ION     NA48516   3.863  15.225  11.727 -0.3526 -0.1642 -0.0735
32708ION     NA48517  12.462   9.494   3.149 -0.2131 -0.1963  0.0989
32709ION     NA48518   2.359   0.735   5.526 -0.0073  0.2510 -0.4169
32710ION     NA48519  18.082  13.613   0.962 -0.1056  0.1333 -0.0351
32711ION     NA48520   8.224   1.049   5.359  0.2462  0.0429  0.0534
32712ION     NA48521   1.832  15.677   9.975 -0.0926 -0.1449 -0.1573
32713ION     NA48522   1.201   7.430   6.239 -0.0404 -0.0952  0.0054
32714ION     NA48523  16.295   6.473  10.188  0.0651 -0.2739 -0.0757
32715ION     NA48524   2.453   5.535   2.131 -0.2035  0.0120 -0.0681
32716ION     NA48525  16.560  10.950  13.361 -0.1818 -0.0786 -0.1324
32717ION     NA48526   8.984  13.527  14.790 -0.0804 -0.0140  0.0789
32718ION     NA48527   2.951   2.135   3.391  0.1038  0.1161 -0.2899
32719ION     NA48528   7.223  15.806  13.557 -0.4858  0.1240 -0.0502
32720ION     NA48529   0.335  15.939   1.955 -0.0413 -0.1201  0.1632
32721ION     NA48530   2.188  14.530   4.522 -0.0748 -0.0017  0.4347
32722ION     NA48531   0.250   2.560   4.210 -0.1637  0.1781  0.1513
32723ION     NA48532   5.041  13.665  11.377  0.0591  0.1381 -0.0273
32724ION     NA48533   7.720  16.677  10.259  0.1185  0.1317  0.0861
32725ION     NA48534  12.491  11.503   0.423  0.0157  0.1076 -0.0516
32726ION     NA48535   0.226   4.838  12.418 -0.3492 -0.2105 -0.5905
32727ION     NA48536  14.065  10.790  14.462 -0.3749  0.1269 -0.7090
32728ION     NA48537  17.099   9.721   5.805 -0.1000 -0.0379 -0.1094
32729ION     NA48538   3.861  11.421   1.382 -0.0933 -0.0414 -0.0315
32730ION     NA48539  17.784   8.562   6.327  0.0174 -0.0881 -0.1105
32731ION     NA48540  11.578   3.461  10.055 -0.0434 -0.0332 -0.0345
32732ION     NA48541   0.419  14.046   5.630  0.3382  0.1618 -0.0365
32733ION     NA48542  14.674   9.267  14.911  0.1663  0.0149  0.2217
32734ION     NA48543  11.636   1.337  10.302  0.1986 -0.0513 -0.2520
32735ION     NA48544  17.572   5.340  10.601  0.0322  0.1936 -0.0013
32736ION     NA48545  10.704   1.840   2.357 -0.2154 -0.1170 -0.1695
32737ION     NA48546   8.957   3.361  10.128  0.1267  0.0277 -0.0276
32738ION     NA48547   5.581   4.982   1.533 -0.1847  0.0909  0.0577
32739ION     NA48548  11.840  14.001  15.594 -0.2529  0.0081 -0.1030
32740ION     NA48549  15.377  16.942  15.210 -0.3388 -0.1569  0.1153
32741ION     NA48550  17.318   4.822   1.531 -0.1483 -0.0994 -0.4697
32742ION     NA48551  18.305   0.010  15.633 -0.4151 -0.0551  0.1560
32743ION     NA48552   5.868   2.445   5.671  0.0714 -0.1617 -0.1368
32744ION     NA48553  10.831  12.098  10.111 -0.1498 -0.4263 -0.2835
32745ION     NA48554  14.321   7.142  10.127 -0.2125 -0.0203 -0.1411
32746ION     NA48555   4.176   6.086   9.975 -0.0533 -0.5649 -0.2483
32747ION     NA48556  11.320  18.035  10.610 -0.2628  0.1046  0.0135
32748ION     NA48557  14.281  15.596   4.866 -0.0327 -0.2056  0.2319
32749ION     NA48558   3.406  13.789   0.773  0.0644 -0.0044  0.3579
32750ION     NA48559  16.395  16.708   3.414 -0.0804 -0.2198  0.3619
32751ION     NA48560  14.800   3.799  10.081 -0.0268  0.1172 -0.1369
32752ION     NA48561  10.874   2.213  13.242  0.1305 -0.2604  0.0684
32753ION     NA48562   4.206  14.322   5.933 -0.0193 -0.1111  0.0313
32754ION     NA48563   4.071  15.195   0.755 -0.0344  0.1588 -0.1448
32755ION     NA48564  10.979   2.963  12.022  0.0782 -0.0511  0.2172
32756ION     NA48565  10.381   4.924  14.199  0.2396  0.0321  0.1999
32757ION     NA48566  10.866   0.925  10.343  0.1814  0.0176 -0.1963
32758ION     NA48567   8.355   4.756   4.741  0.1506  0.1362 -0.1437
32759ION     NA48568   2.718  10.067  10.208  0.0610 -0.1062 -0.0512
32760ION     NA48569  14.332   0.039  11.933  0.2947 -0.1230 -0.0770
32761ION     NA48570   1.597   7.217  10.452 -0.1319  0.1216 -0.0637
32762ION     NA48571   3.699  11.631   4.968 -0.1459  0.0816  0.0409
32763ION     NA48572  13.502   0.694   3.194 -0.1551  0.0843  0.0237
32764ION     NA48573  10.286  13.109  14.283 -0.1121  0.1417 -0.1219
32765ION     NA48574   8.884   6.531   9.856 -0.1446 -0.3203  0.1340
32766ION     NA48575   4.051   0.671  10.289  0.1252 -0.2373 -0.1475
32767ION     NA48576   9.292   5.796   9.685 -0.4788  0.2100 -0.0018
32768ION     NA48577   9.707   3.674   4.829  0.0339 -0.1854 -0.0865
32769ION     NA48578  15.237   7.581  13.795  0.0610 -0.1201 -0.1760
32770ION     NA48579   0.562   1.915  14.282 -0.2765  0.4588 -0.0050
32771ION     NA48580   0.494   8.916   1.068  0.3402 -0.4129  0.0924
32772ION     NA48581   5.675   1.789   5.110  0.0393  0.0143 -0.1176
32773ION     NA48582  14.289   8.589  12.068  0.0243  0.1838 -0.2332
32774ION     NA48583   5.568  11.612  13.960 -0.7404 -0.1340  0.0700
32775ION     NA48584   8.807  10.930  10.351  0.1511  0.1079  0.0462
32776ION     NA48585   8.369   4.485   1.520 -0.0771  0.2697  0.0689
32777ION     NA48586   8.576   3.858   3.427 -0.0753  0.0519  0.0803
32778ION     NA48587   3.630  16.485   5.776 -0.0411 -0.1987 -0.0718
32779ION     NA48588  13.211   0.666  12.213  0.0197  0.2164  0.1324
32780ION     NA48589   1.448  14.326   5.537 -0.1545 -0.1701 -0.1515
32781ION     NA48590  17.067   5.598  10.360 -0.0323  0.1931  0.2594
32782ION     NA48591   8.420  18.215  14.647  0.0644 -0.1924  0.1092
32783ION     NA48592  17.751  18.030  10.232 -0.0852  0.0107  0.0991
32784ION     NA48593   9.292  14.902   5.649  0.2418 -0.0578  0.0121
32785ION     NA48594   2.113  16.206  10.844  0.0607 -0.0998 -0.1948
32786ION     NA48595  16.234  12.966   4.215 -0.0670  0.1904 -0.0537
32787ION     NA48596  14.047  13.876   3.991  0.4340  0.1363  0.4054
32788ION     NA48597  12.194   6.726   5.792  0.3632  0.2211 -0.0606
32789ION     NA48598  18.085  14.419  11.842 -0.0017 -0.1794  0.1253
32790ION     NA48599   9.018   4.159   9.769  0.0986 -0.0709 -0.0723
32791ION     NA48600  14.362   8.844   0.668 -0.1451 -0.1730  0.2001
32792ION     NA48601  15.660   9.069   5.778  0.1040 -0.3734  0.4798
32793ION     NA48602   1.444  13.418  10.231  0.1427 -0.3287  0.0916
32794ION     NA48603  10.737   2.025  15.002 -0.1079  0.2411  0.0643
32795ION     NA48604   1.571   1.060   9.733 -0.2806 -0.0905 -0.0889
32796ION     NA48605  15.412  16.680   5.384 -0.2018  0.1251 -0.1728
32797ION     NA48606   5.870   8.328   1.537  0.0755 -0.0916  0.1151
32798ION     NA48607   0.117  11.554   0.016 -0.1888  0.3373 -0.0563
32799ION     NA48608   0.230   7.808  12.508 -0.2137 -0.1017  0.1142
32800ION     NA48609  12.463   8.061  14.709 -0.0868 -0.1695 -0.4233
32801ION     NA48610   2.713  10.988   1.806 -0.0638 -0.0071 -0.0496
32802ION     NA48611  17.130   0.183  12.953 -0.1574 -0.0080 -0.0667
32803ION     NA48612   0.352  18.320   5.626 -0.0489 -0.2564 -0.0316
32804ION     NA48613   9.615  14.798   3.120 -0.0119 -0.1547  0.1128
32805ION     NA48614   4.230  17.524  14.317 -0.2761  0.0507  0.0084
32806ION     NA48615  10.641   1.577  10.061 -0.0197  0.0872 -0.1120
32807ION     NA48616   6.665  12.638  10.060 -0.0259 -0.0682  0.0018
32808ION     NA48617   1.548   3.896  14.283  0.2244 -0.1510 -0.0798
32809ION     NA48618   5.047   8.131   5.644 -0.2768  0.2135 -0.0511
32810ION     NA48619   2.278  14.734   2.838 -0.1936  0.0177 -0.1148
32811ION     NA48620   7.564   1.409   1.673  0.0081  0.3017  0.1393
32812ION     NA48621   9.932   7.355   5.704 -0.0631  0.1282  0.0025
32813ION     NA48622   5.832   7.082  10.105  0.0753 -0.2295 -0.0429
32814ION     NA48623   3.884   8.782   3.514 -0.0323  0.0498 -0.0360
32815ION     NA48624  12.087   0.074   5.782 -0.1884 -0.1843 -0.4150
32816ION     NA48625   2.144  18.353   2.369 -0.0713 -0.0969 -0.4766
32817ION     NA48626   5.464   9.793   3.749  0.0094 -0.1041 -0.1129
32818ION     NA48627   5.668   2.427   9.977  0.1167  0.2867 -0.0992
32819ION     NA48628  16.433  15.108  11.597  0.1082  0.1115 -0.0921
32820ION     NA48629   2.769   1.217   5.780  0.1785  0.0220 -0.0034
32821ION     NA48630   0.853   3.771  13.946 -0.1224  0.1382  0.0241
32822ION     NA48631  11.251  12.327  14.795  0.0078 -0.1750 -0.0264
32823ION     NA48632  11.305   2.939  13.669 -0.1104  0.0243  0.0371
32824ION     NA48633  10.002   0.779  10.019 -0.1067  0.0146 -0.0883
32825ION     NA48634   4.249  12.781  10.489 -0.2180 -0.3015 -0.0200
32826ION     NA48635   6.521   1.704   5.310  0.1865  0.2761  0.0663
32827ION     NA48636   3.812  17.526   2.451 -0.1886  0.3573 -0.2238
32828ION     NA48637   4.190   6.973  10.139  0.1511 -0.3349 -0.0062
32829ION     NA48638  12.561  11.082   1.253 -0.2414 -0.1450  0.1248
32830ION     NA48639  12.102   2.132   5.672 -0.1679  0.0576 -0.0691
32831ION     NA48640  11.227  13.824   4.566 -0.1032 -0.1062 -0.0939
32832ION     NA48641   8.626  15.767   6.062 -0.0198 -0.1856  0.2423
32833ION     NA48642  13.881  17.787   9.974  0.1115 -0.0858 -0.0235
32834ION     NA48643  16.603  16.455  11.418 -0.2005 -0.1207  0.0340
32835ION     NA48644  12.179  12.918  14.769  0.0697  0.1298 -0.0520
32836ION     NA48645  12.886  13.951   2.962  0.2226 -0.0931  0.0433
32837ION     NA48646   2.490   0.939   0.714  0.0686  0.0685  0.3026
32838ION     NA48647  13.655  16.880  14.962  0.0545 -0.1983 -0.1519
32839ION     NA48648  10.205  14.918   5.863  0.0178  0.2738 -0.0571
32840ION     NA48649  15.584   4.272   4.096  0.0024  0.2486 -0.0421
32841ION     NA48650  12.589   8.238  10.062  0.2599  0.2843  0.2904
32842ION     NA48651  16.156   8.877   5.078  0.4032 -0.2062  0.0446
32843ION     NA48652   5.651   9.449   5.798 -0.2455 -0.1730  0.1510
32844ION     NA48653   8.663  16.402   0.087 -0.1643  0.2090 -0.2266
32845ION     NA48654   4.485  11.480  11.542 -0.0950  0.0704 -0.0397
32846ION     NA48655   6.171   2.867   5.038 -0.1118 -0.2556  0.2680
32847ION     NA48656   7.861   2.985   5.425  0.0247 -0.1126 -0.1177
32848ION     NA48657  14.603  16.333  15.490  0.1135 -0.2380  0.1917
32849ION     NA48658  15.616   3.690  12.110  0.1033  0.2471 -0.1896
32850ION     NA48659   2.799   4.815   0.248 -0.0007  0.1811  0.3233
32851ION     NA48660  13.966   0.194  15.318 -0.1607  0.0495  0.0121
32852ION     NA48661  11.357  13.895   5.079  0.3777 -0.0285  0.2272
32853ION     NA48662  14.178   6.225  15.444  0.3914  0.0967 -0.1729
32854ION     NA48663   5.445   2.139  14.933 -0.3139  0.1583  0.0881
32855ION     NA48664   8.754  16.188   2.836  0.0760 -0.0279 -0.0518
32856ION     NA48665  14.025  12.034   4.778 -0.1540 -0.0195  0.0126
32857ION     NA48666  17.023   7.413   2.410 -0.3362 -0.1434  0.1311
32858ION     NA48667  17.616   7.181  10.354 -0.0378 -0.0635 -0.2387
32859ION     NA48668   5.182  12.091  10.220  0.0041  0.1392  0.1602
32860ION     NA48669  13.793  13.469  14.623  0.1002 -0.0646 -0.1157
32861ION     NA48670   9.821   0.411   0.205  0.2478 -0.1695  0.2975
32862ION     NA48671   2.288   2.314  15.807  0.1632 -0.3302 -0.2201
32863ION     NA48672   1.108  14.704   4.659  0.2489  0.0774 -0.2457
32864ION     NA48673   2.495  16.461   1.521 -0.1243  0.1964 -0.0052
32865ION     NA48674  18.343  17.321  10.030  0.0776 -0.1144  0.0580
32866ION     NA48675  18.146  10.463   5.887 -0.2746 -0.0277  0.3971
32867ION     NA48676  16.519   3.521   2.213  0.4072 -0.0106 -0.0088
32868ION     NA48677   6.520   6.126  15.507  0.1035 -0.3410 -0.0994
32869ION     NA48678  13.563  12.048   1.695  0.2461  0.0242 -0.2198
32870ION     NA48679  17.338  16.780   5.501 -0.2151 -0.1138  0.0652
32871ION     NA48680   9.876   1.688   0.978  0.5029 -0.2299  0.2797
32872ION     NA48681  14.087   9.647   5.623  0.0351 -0.1671  0.2534
32873ION     NA48682  16.318   4.585   3.518 -0.0160 -0.0322  0.0232
32874ION     NA48683   6.803  16.048   0.413  0.2090 -0.0607 -0.3636
32875ION     NA48684   7.363  15.897   5.754  0.0320 -0.0608 -0.3943
32876ION     NA48685   3.998   4.648   2.867 -0.0581  0.0302  0.4073
32877ION     NA48686   7.338  12.029  13.872  0.0736 -0.2485  0.5169
32878ION     NA48687   0.975   2.405   1.955 -0.2326 -0.0132  0.1116
32879ION     NA48688  18.194   9.172   5.839  0.0699 -0.2430  0.1800
32880ION     NA48689   3.790  12.579   0.624 -0.0555  0.1871  0.1480
32881ION     NA48690  12.828  11.757   5.760 -0.0469  0.2207 -0.1279
32882ION     NA48691   2.120  12.583  10.328 -0.0762  0.1180 -0.1629
32883ION     NA48692  10.206   4.773   3.780 -0.0263  0.1561 -0.0403
32884ION     NA48693   5.305   4.849  14.746 -0.0480 -0.2829 -0.0619
32885ION     NA48694   5.216  13.017  10.521 -0.1079  0.2774 -0.1931
32886ION     NA48695  17.761  11.847  10.163  0.0102  0.1267 -0.1071
32887ION     NA48696  16.337   4.544  13.464  0.3264 -0.3599  0.2490
32888ION     NA48697   9.615  17.369  10.317 -0.2974 -0.0523  0.4606
32889ION     NA48698   8.733   0.034  15.719  0.1353  0.0264  0.0019
32890ION     NA48699  12.429  14.514   5.919  0.2081  0.1664  0.0892
32891ION     NA48700  17.337  10.478  10.625 -0.1029 -0.2477  0.0427
32892ION     NA48701  16.244  12.246   0.583  0.2939 -0.1787 -0.3014
32893ION     NA48702   8.786   6.301   5.513 -0.1109 -0.2585  0.1446
32894ION     NA48703  15.223   2.878   0.996 -0.1646  0.2697 -0.0573
32895ION     NA48704   7.878   0.667   0.151  0.3047  0.1950 -0.1559
32896ION     NA48705  11.464  16.727   2.973 -0.2119 -0.0499  0.1385
32897ION     NA48706  18.344   0.621   5.733 -0.0150 -0.1925 -0.0478
32898ION     NA48707   0.927   3.961  10.182 -0.0485  0.0961 -0.2073
32899ION     NA48708   5.019   3.850   2.238 -0.0023 -0.0493  0.1448
32900ION     NA48709  10.306   9.069  10.117 -0.0296 -0.2386  0.2527
32901ION     NA48710  12.883   6.080  13.203 -0.0920  0.0693 -0.0425
32902ION     NA48711  13.115   9.544   3.809  0.0312 -0.0293  0.0080
32903ION     NA48712  13.875   0.682   1.785 -0.0002  0.1510  0.1907
32904ION     NA48713  17.698   5.572  12.054  0.2521 -0.2370  0.0824
32905ION     NA48714   3.722  13.171  15.737 -0.2191  0.0765  0.1034
32906ION     NA48715  14.916   8.643   5.274 -0.0308 -0.0958 -0.1503
32907ION     NA48716   2.819   5.869   5.795  0.3662  0.2035  0.3076
32908ION     NA48717  16.356  15.185   9.782 -0.1529  0.3045 -0.2435
32909ION     NA48718  10.387  10.853  10.380  0.0056  0.0452  0.0610
32910ION     NA48719  17.126  15.710   0.853  0.1447 -0.0652 -0.3597
32911ION     NA48720   7.415  18.033   4.079  0.0918  0.2705 -0.0007
32912ION     NA48721  16.956   5.917   3.514 -0.1375 -0.4196  0.1045
32913ION     NA48722  17.489   1.612   1.886 -0.1251 -0.1850  0.0002
32914ION     NA48723   9.585   2.820   0.291 -0.1536 -0.0122 -0.3161
32915ION     NA48724   3.690   0.831   3.963  0.2874  0.2637 -0.1747
32916ION     NA48725  10.175  17.089  13.574 -0.1362 -0.0412  0.0597
32917ION     NA48726   4.271   7.214   0.433  0.0952  0.2874 -0.2469
32918ION     NA48727  18.393   5.222   2.586 -0.0979 -0.2038 -0.1549
32919ION     NA48728   8.835   6.312  15.592 -0.2196  0.0842  0.0509
32920ION     NA48729   3.402  16.016   4.334  0.1020 -0.2018  0.2554
32921ION     NA48730   1.867   2.154   2.998 -0.0590 -0.0104 -0.1018
32922ION     NA48731   5.499   7.724  14.388  0.1423  0.2345 -0.1934
32923ION     NA48732   0.144   5.987   6.282 -0.0732  0.2743  0.1269
32924ION     NA48733  10.116   1.645   5.561  0.0588 -0.1087  0.1667
32925ION     NA48734  12.472  11.203  12.914  0.0169 -0.1419 -0.2363
32926ION     NA48735  12.132  14.156   5.474  0.0549 -0.0593  0.2345
32927ION     NA48736  15.786   5.772   2.286  0.2313 -0.0529 -0.0050
32928ION     NA48737  15.679   5.905   0.898  0.2333  0.0647 -0.2748
32929ION     NA48738  16.088  14.153   5.803 -0.0749  0.1432 -0.0256
32930ION     NA48739  14.470   7.561   3.430  0.0771 -0.1868  0.0512
32931ION     NA48740  11.824   1.429  13.925  0.1361 -0.1336 -0.2004
32932ION     NA48741   0.582   6.668  14.503 -0.0497 -0.0678 -0.3676
32933ION     NA48742  16.186   1.852   5.821  0.2352 -0.1474  0.0129
32934ION     NA48743   2.418   7.647  10.465  0.0670 -0.0805 -0.1417
32935ION     NA48744   7.996   3.846   2.700  0.0338 -0.2506  0.0988
32936ION     NA48745   4.298   5.161   5.629  0.0781  0.1288 -0.3815
32937ION     NA48746   4.254   7.670   2.423 -0.1812 -0.1300 -0.1617
32938ION     NA48747   7.133  16.859   5.763 -0.2457 -0.0472 -0.2852
32939ION     NA48748   2.736  17.753  12.897  0.0212  0.0324  0.6300
32940ION     NA48749  16.234   9.695   0.535  0.0484  0.0892  0.1044
32941ION     NA48750  15.036   9.808   5.658  0.0579  0.1103 -0.0399
32942ION     NA48751   6.651   4.720   5.027 -0.3466  0.2841  0.0571
32943ION     NA48752  12.081   1.170   5.555 -0.2243  0.1175  0.0398
32944ION     NA48753  13.080   3.645  10.278  0.0278 -0.1455 -0.0868
32945ION     NA48754   0.795  10.518   0.385  0.1344  0.0689 -0.2234
32946ION     NA48755  12.042   5.556  13.577  0.0865 -0.4543 -0.1710
32947ION     NA48756   3.368  10.820   9.988  0.1288 -0.3562  0.1201
32948ION     NA48757   3.015   9.222  12.177  0.0653  0.1452 -0.3963
32949ION     NA48758  13.630   5.127   3.099  0.1736 -0.0948 -0.0471
32950ION     NA48759   3.831   8.750  10.286  0.0934  0.1979  0.0277
32951ION     NA48760  12.328  15.226   0.734  0.0102 -0.0572 -0.0073
32952ION     NA48761  16.315   2.719   2.781 -0.0152  0.1419  0.1828
32953ION     NA48762  15.291  10.774  15.783  0.1786 -0.0446  0.1081
32954ION     NA48763  17.034  16.306   9.910  0.0669  0.1720 -0.2317
32955ION     NA48764  17.380   5.551  13.977  0.0863  0.0329  0.0540
32956ION     NA48765  16.520  15.407   0.259  0.0674 -0.1276 -0.0952
32957ION     NA48766   4.224   3.727   9.805  0.4958 -0.0173  0.0277
32958ION     NA48767   4.153   5.932   2.511 -0.1262 -0.0441  0.2820
32959ION     NA48768   0.170  10.635   3.303 -0.2926  0.2888 -0.5104
32960ION     NA48769   2.213   0.098   4.299 -0.3173 -0.2322 -0.2419
32961ION     NA48770  13.402  16.297  15.813 -0.1541  0.6016  0.0859
32962ION     NA48771   7.949  16.701  15.391 -0.0605  0.1717  0.0515
32963ION     NA48772  18.390   6.894  11.011 -0.1915 -0.0831 -0.1676
32964ION     NA48773   2.675  12.790   5.795 -0.2738  0.2874 -0.2073
32965ION     NA48774  11.720  14.790  15.594  0.1043 -0.1017  0.1385
32966ION     NA48775  11.845  10.687  14.732  0.2911 -0.1228 -0.0172
32967ION     NA48776  11.896   7.056  13.093 -0.2623  0.0329  0.0734
32968ION     NA48777   0.308  10.687   1.027 -0.2530  0.0048  0.2003
32969ION     NA48778  12.948  15.419   3.116 -0.1512  0.0033 -0.1497
32970ION     NA48779  12.895   3.276   5.915 -0.3381  0.1164  0.0063
32971ION     NA48780  14.832   5.700  10.961  0.1744  0.2244  0.3005
32972ION     NA48781  13.185  16.929  10.196  0.2388  0.2239  0.0611
32973ION     NA48782  16.969  17.960  13.933 -0.2259 -0.3157  0.1013
32974ION     NA48783   3.175  15.808  15.758 -0.1675  0.0361 -0.1290
32975ION     NA48784  15.609   1.859   0.738  0.1397 -0.1977 -0.2278
32976ION     NA48785   1.664   4.995   5.378 -0.0263 -0.5187  0.2496
32977ION     NA48786  13.311  11.160   5.642  0.0206  0.1138  0.1596
32978ION     NA48787  16.543   8.217   3.029 -0.0257 -0.2447  0.2708
32979ION     NA48788   2.391   6.649   0.677 -0.1000  0.3272  0.1907
32980ION     NA48789   6.116  14.859   6.049 -0.0010 -0.1435  0.1453
32981ION     NA48790   5.244  16.748  11.916 -0.1461 -0.0210  0.0998
32982ION     NA48791  15.167   7.009  14.773  0.4130 -0.0478 -0.2627
32983ION     NA48792  11.035   8.058   9.997 -0.0726 -0.4299  0.0827
32984ION     NA48793   6.679   5.107   9.577 -0.1216 -0.0781 -0.1041
32985ION     NA48794   3.724  17.520   5.622 -0.0527  0.2916 -0.2268
32986ION     NA48795  11.756   8.548  13.170  0.1139 -0.2265 -0.0517
32987ION     NA48796  15.471  14.985  15.137  0.1757  0.1700 -0.0146
32988ION     NA48797   2.402  10.619   4.101 -0.0958  0.0801 -0.1041
32989ION     NA48798   5.664   7.128  15.750  0.2148  0.1928  0.0369
32990ION     NA48799  16.406  10.433  10.445 -0.1374 -0.1149 -0.0361
32991ION     NA48800  13.541  13.968  13.867  0.0698  0.3228  0.0998
32992ION     NA48801  13.671   2.955   5.640 -0.2634  0.3145 -0.1319
32993ION     NA48802   1.332  18.310  10.197  0.1183 -0.0263 -0.1542
32994ION     NA48803  15.613  14.515  14.107 -0.0991 -0.2048  0.0113
32995ION     NA48804   3.884   0.580   4.875  0.1945  0.1660 -0.1474
32996ION     NA48805  10.120  12.636   4.667  0.1855 -0.0573  0.0600
32997ION     NA48806  13.121   3.076  13.282 -0.1283  0.0039  0.0977
32998ION     NA48807   4.085  10.478  14.700  0.2775  0.2495 -0.0265
32999ION     NA48808  10.511   7.520   1.047 -0.0249 -0.1670 -0.2499
33000ION     NA48809   7.470  14.483  15.840 -0.1383  0.0861  0.2774
33001ION     NA48810   5.996  15.458  15.100  0.1075 -0.3583 -0.0385
33002ION     NA48811  14.408   6.702  14.403 -0.0880  0.0131 -0.0548
33003ION     NA48812   7.919   5.093   9.489 -0.2332 -0.1406  0.1125
33004ION     NA48813  14.509  10.225   3.621  0.0346  0.1553  0.1818
33005ION     NA48814  10.745   1.282   0.333 -0.3148 -0.0455  0.2813
33006ION     NA48815   0.109  15.569   9.779 -0.1594 -0.1737 -0.0868
33007ION     NA48816  11.854   7.862   5.845 -0.1167  0.1787 -0.0340
33008ION     NA48817   0.881  15.943  10.189 -0.0696 -0.2669  0.0160
33009ION     NA48818  12.925   6.454   2.521 -0.2900  0.3380 -0.0288
33010ION     NA48819   0.446   2.972   1.571 -0.3093  0.0475 -0.0654
33011ION     NA48820   9.684   7.070  15.643  0.1005  0.0139 -0.0592
33012ION     NA48821  15.572   4.127  10.163  0.1202  0.0118  0.1772
33013ION     NA48822   4.741  10.709   2.289 -0.0062  0.0340 -0.0325
33014ION     NA48823   6.423  11.886   3.273  0.2545 -0.0762  0.0591
33015ION     NA48824  11.831  15.744  15.674 -0.1558 -0.4263 -0.0065
33016ION     NA48825   3.705   1.338   1.774 -0.1134 -0.0855  0.1413
33017ION     NA48826   4.927   7.191  14.997  0.0369 -0.0442 -0.0179
33018ION     NA48827  11.904  12.993  13.384 -0.0561 -0.2592  0.1996
33019ION     NA48828  10.409   3.267  10.518  0.0510  0.0691  0.1001
33020ION     NA48829   6.590   4.952  14.938  0.2086 -0.0937 -0.1417
33021ION     NA48830  17.927   4.161   0.766  0.0860  0.1940 -0.0901
33022ION     NA48831   4.827  13.679   2.386  0.2320  0.1810  0.3374
33023ION     NA48832   8.112   8.236   1.876 -0.1113  0.2784 -0.2164
33024ION     NA48833   4.969  12.554  15.422  0.1154 -0.0346 -0.4386
33025ION     NA48834   5.890   7.039   5.904 -0.2389 -0.1298 -0.4285
33026ION     NA48835   5.826  14.611  13.960  0.1048 -0.3793  0.0863
33027ION     NA48836   2.466  12.093   0.126 -0.2018 -0.0877 -0.1507
33028ION     NA48837   2.858  15.420  10.230 -0.1989  0.1496 -0.2193
33029ION     NA48838   0.126   9.468   2.428 -0.0558  0.1669 -0.0756
33030ION     NA48839  11.895   1.249  15.650 -0.1431 -0.1169 -0.1451
33031ION     NA48840   5.207   5.097   9.595 -0.0214  0.3208 -0.1504
33032ION     NA48841   1.049  12.604  15.416  0.3320  0.0794  0.3295
33033ION     NA48842   9.772   1.186   9.973 -0.0233  0.2155  0.0117
33034ION     NA48843   7.463  16.789   0.695  0.0286  0.1812 -0.1277
33035ION     NA48844  16.721  15.786  15.724 -0.0302  0.2774 -0.0821
33036ION     NA48845   8.667  16.124  14.522  0.0317  0.2970  0.0908
33037ION     NA48846   1.051   1.171   5.536  0.0801 -0.2783 -0.0885
33038ION     NA48847  15.049  15.617   9.742  0.1367  0.0850 -0.2329
33039ION     NA48848  16.231   9.614  10.150  0.0137  0.0748 -0.2192
33040ION     NA48849  15.854  13.131   0.857 -0.0091  0.2495  0.0465
33041ION     NA48850  11.280   5.039  12.566 -0.0032 -0.2262  0.0403
33042ION     NA48851   7.312   9.294   5.993 -0.2857 -0.0905  0.1034
33043ION     NA48852   6.979  15.238   4.069 -0.0835 -0.2487 -0.1648
33044ION     NA48853  15.837  14.391   3.429  0.1749 -0.4985  0.0433
33045ION     NA48854   5.103  12.133   3.484  0.1316 -0.0854 -0.4010
33046ION     NA48855  11.101  13.490  10.072  0.2199 -0.2787  0.3531
33047ION     NA48856   8.795  12.386   4.608  0.3386  0.0034 -0.1264
33048ION     NA48857   6.655   7.765   3.271 -0.0206  0.0778 -0.2054
33049ION     NA48858   4.193   1.798  10.127 -0.2468 -0.0570 -0.1370
33050ION     NA48859  14.218   8.220  10.218 -0.2326  0.1654 -0.0561
33051ION     NA48860  14.337  17.618   3.835 -0.2216  0.2773  0.0113
33052ION     NA48861   3.710   8.457   2.115 -0.3036  0.2907 -0.1083
33053ION     NA48862  11.369   4.783   0.117 -0.0673 -0.2058 -0.1339
33054ION     NA48863  16.363  15.975  15.364 -0.3387  0.0090  0.1597
33055ION     NA48864   6.078   3.958   9.457 -0.1527  0.0349 -0.2251
33056ION     NA48865  13.151   6.920   0.229 -0.1625 -0.2569  0.0831
33057ION     NA48866   7.721   8.475   3.182  0.0534  0.2570  0.0156
33058ION     NA48867   8.142   8.226   5.793 -0.0233  0.2579 -0.1110
33059ION     NA48868   6.632   2.904   1.114 -0.0213 -0.0903  0.1208
33060ION     NA48869   6.321   4.623   4.052 -0.0065 -0.0270  0.1077
33061ION     NA48870  12.191   2.031   3.150 -0.0541  0.1364  0.1899
33062ION     NA48871  14.833  10.640   1.731  0.2338 -0.0312 -0.1555
33063ION     NA48872  14.096  17.728   5.767 -0.0121 -0.1624  0.0460
33064ION     NA48873  10.387   9.743  14.515 -0.1397  0.1044  0.0782
33065ION     NA48874  12.220   9.867   2.073 -0.0966 -0.1047  0.0065
33066ION     NA48875   1.690  16.483  13.714 -0.3853 -0.0940  0.1795
33067ION     NA48876   3.282   7.316   1.490 -0.1469 -0.1442 -0.2591
33068ION     NA48877  18.265  10.832   5.029 -0.3196 -0.0661  0.2029
33069ION     NA48878  10.559  13.673   5.397  0.3058  0.0825 -0.2577
33070ION     NA48879  18.084  16.649  12.131  0.0738 -0.1620 -0.1465
33071ION     NA48880  17.654  17.054   4.050 -0.2318 -0.0433 -0.5116
33072ION     NA48881   2.126   8.452  10.278  0.0668 -0.0260 -0.2280
33073ION     NA48882  10.054  10.889   1.907  0.2431 -0.0862  0.2008
33074ION     NA48883  12.388   9.990   1.234  0.3331 -0.0476 -0.2838
33075ION     NA48884   3.685   9.240   1.972  0.0361  0.1011 -0.1755
33076ION     NA48885   5.476   7.764   3.884  0.2265  0.1012  0.2553
33077ION     NA48886   1.220   9.779   3.001 -0.0580 -0.0423  0.1018
33078ION     NA48887  14.785  14.853   1.982 -0.2289  0.2185 -0.0888
33079ION     NA48888  17.212   4.445  10.185  0.2013  0.0679 -0.1237
33080ION     NA48889  10.319  17.304   4.454 -0.1247  0.0087  0.0719
33081ION     NA48890   5.907   0.921   5.546 -0.1207  0.1545  0.3395
33082ION     NA48891   0.383  10.197   6.250  0.1673 -0.1104 -0.1272
33083ION     NA48892   8.057  18.303   5.859 -0.0967 -0.1950  0.0045
33084ION     NA48893   0.186  17.452   0.405 -0.0071 -0.1649  0.0937
33085ION     NA48894  13.347  17.716   0.889 -0.1534  0.3761 -0.1350
33086ION     NA48895  10.978   9.636   5.641  0.1566  0.0814  0.0935
33087ION     NA48896   7.946  14.111   5.422  0.2758  0.1104 -0.2724
33088ION     NA48897   4.900   2.745   4.706 -0.1607 -0.0655  0.0810
33089ION     NA48898   1.994   3.803   1.488  0.0785  0.0889  0.0835
33090ION     NA48899   3.187   3.165   4.889 -0.1887 -0.1670  0.2409
33091ION     NA48900   3.686   3.310   9.859  0.1330 -0.1099  0.5758
33092ION     NA48901  18.409  12.482   0.297 -0.2284  0.2304 -0.0370
33093ION     NA48902  10.341   4.819  15.247 -0.2070 -0.2327 -0.0659
33094ION     NA48903  17.339   1.245  10.396  0.0261  0.3055  0.0353
33095ION     NA48904  12.784  10.829   3.373 -0.1838  0.0958 -0.0031
33096ION     NA48905   8.771   0.030   9.939 -0.0162 -0.0517 -0.5304
33097ION     NA48906  13.197   7.443   1.708 -0.1483  0.1776 -0.0834
33098ION     NA48907  11.146   9.042  13.847 -0.0899 -0.2498  0.0084
33099ION     NA48908   1.385   6.991  15.712 -0.1022  0.0819 -0.3193
33100ION     NA48909   6.112  12.833   6.051  0.0024 -0.2696  0.1229
33101ION     NA48910  16.143  16.454  10.013  0.1207  0.3144 -0.2431
33102ION     NA48911  15.903   7.416  10.148  0.0827 -0.1375 -0.1754
33103ION     NA48912   7.437   3.799  13.459  0.1223  0.0763  0.0255
33104ION     NA48913  15.671   5.008   5.695  0.0041 -0.0877 -0.3683
33105ION     NA48914  17.777  15.051  14.122 -0.1950  0.4096 -0.0136
33106ION     NA48915   0.332   9.684   6.009 -0.0922 -0.1732 -0.1961
33107ION     NA48916   4.904  17.009   1.801  0.1868 -0.0465 -0.2094
33108ION     NA48917  12.558   0.489   1.200 -0.0690  0.0159 -0.0032
33109ION     NA48918  18.395   6.420   4.295  0.0799 -0.1884  0.1289
33110ION     NA48919   1.826  17.793   5.514  0.0849 -0.1182  0.1207
33111ION     NA48920  13.366   8.946  10.199  0.4495 -0.0825 -0.1976
33112ION     NA48921   4.745   4.869  13.245  0.3800  0.3256 -0.3011
33113ION     NA48922   8.720   9.251  10.259 -0.2096  0.1032 -0.2169
33114ION     NA48923   4.102  14.074  10.263 -0.0566 -0.1303 -0.0320
33115ION     NA48924   2.940   9.210   5.683  0.0439  0.1908 -0.1252
33116ION     NA48925   1.193  13.407   5.502 -0.2044 -0.0119 -0.1083
33117ION     NA48926  15.930   4.165   5.328  0.0603 -0.0740 -0.0311
33118ION     NA48927  16.546   2.799  10.178  0.2808 -0.2412  0.0164
33119ION     NA48928  17.418   8.809  13.359  0.1068 -0.0738  0.0299
33120ION     NA48929   7.911  16.238   2.826 -0.0433  0.1018  0.1657
33121ION     NA48930  14.873   5.258   4.360  0.0291  0.1430 -0.0621
33122ION     NA48931  16.558   1.392   6.063 -0.2207 -0.0497  0.2348
33123ION     NA48932   8.100  10.634   5.421 -0.3786 -0.1762  0.1001
33124ION     NA48933   9.251   6.917   5.450 -0.1410 -0.1691  0.0042
33125ION     NA48934  11.533   1.945   5.549 -0.0193  0.0486 -0.0400
33126ION     NA48935   1.448   3.171   5.604  0.2196  0.1241 -0.0375
33127ION     NA48936   8.498   8.865   4.291  0.4162  0.1994 -0.2016
33128ION     NA48937   1.245   2.240  10.175 -0.1545  0.2841  0.5890
33129ION     NA48938   2.001  11.632  14.942  0.1769  0.2022 -0.2911
33130ION     NA48939  14.158  15.961  11.373  0.3194  0.0398 -0.4560
33131ION     NA48940   8.524  13.725  10.205  0.1531 -0.0974  0.2263
33132ION     NA48941   8.287  11.499  15.295 -0.2087 -0.0486  0.2229
33133ION     NA48942   5.631   7.964  10.155 -0.0115 -0.1938 -0.0625
33134ION     NA48943   9.125  14.639  12.935 -0.0718 -0.1517  0.0529
33135ION     NA48944   3.093   3.728  15.850  0.0235  0.1928 -0.1923
33136ION     NA48945  10.997   8.309   2.083 -0.0130 -0.1069 -0.0489
33137ION     NA48946  18.253   8.449  10.517 -0.0816 -0.1065  0.1791
33138ION     NA48947   3.184  11.996   9.809  0.2469  0.0790  0.0328
33139ION     NA48948  10.373   3.868   5.266  0.0314 -0.2463  0.0815
33140ION     NA48949   6.312  17.235   1.574 -0.1293 -0.2174  0.0898
33141ION     NA48950   8.896   8.287  10.170 -0.3558 -0.1483 -0.0948
33142ION     NA48951   6.364   0.117   5.625 -0.2928  0.2992  0.2733
33143ION     NA48952   7.995   0.054   5.344  0.2999 -0.1982 -0.0913
33144ION     NA48953  14.923  13.338   1.173  0.0660  0.2591 -0.2566
33145ION     NA48954  16.365  14.203  10.075  0.2739  0.1395 -0.0579
33146ION     NA48955   1.032   8.153   5.115 -0.3743 -0.0600 -0.0200
33147ION     NA48956   0.800   0.067   1.944  0.0122  0.1650  0.0553
33148ION     NA48957   5.877   9.821   1.946 -0.2812  0.0626 -0.0692
33149ION     NA48958   5.190   3.453   5.638  0.2214  0.0502 -0.1747
33150ION     NA48959  12.039  13.824  12.894  0.1248 -0.0279  0.1340
33151ION     NA48960   4.163  11.453   5.469  0.1259  0.2520  0.0017
33152ION     NA48961   7.068   6.422  12.561  0.0634 -0.0806 -0.2706
33153ION     NA48962  17.301   5.533  15.573 -0.1050 -0.2247 -0.1801
33154ION     NA48963  18.346  12.953   3.724  0.1645 -0.3669 -0.2047
33155ION     NA48964  15.199  16.117   5.260 -0.3598  0.1560  0.1917
33156ION     NA48965  14.948   3.521   5.220  0.1159 -0.1196 -0.0275
33157ION     NA48966  11.929   2.951   5.799 -0.0442  0.2671 -0.0460
33158ION     NA48967   1.091  15.980   5.627  0.0402 -0.2117  0.1722
33159ION     NA48968  14.319   1.506  10.084  0.0013 -0.2778  0.1144
33160ION     NA48969   7.681  15.896  15.081  0.1551  0.1559 -0.1592
33161ION     NA48970  15.953  11.180   5.404  0.1837 -0.0600  0.0897
33162ION     NA48971  15.324   0.299  10.118  0.1913 -0.0711 -0.0298
33163ION     NA48972   5.599  15.559  12.506  0.0986  0.0094  0.1220
33164ION     NA48973   5.512   3.728   0.907  0.2468 -0.0444  0.1462
33165ION     NA48974  11.823  16.321   2.114  0.0474 -0.1008  0.2292
33166ION     NA48975  17.663   5.847   6.046 -0.2809  0.1072  0.0112
33167ION     NA48976  14.379  13.847  10.167  0.2238  0.0157 -0.0030
33168ION     NA48977   4.351   3.224   5.380  0.1309 -0.0554 -0.0624
33169ION     NA48978  11.751   7.602  10.226  0.0016 -0.1846  0.0736
33170ION     NA48979  17.149  18.268   5.741 -0.3594 -0.3083  0.0895
33171ION     NA48980   2.578  10.272   0.093 -0.1384 -0.0737 -0.1580
33172ION     NA48981   0.581  12.074   5.964  0.1414  0.3075 -0.0104
33173ION     NA48982   4.985  17.750  10.178  0.0824 -0.2665  0.1503
33174ION     NA48983   0.847  17.698  14.537 -0.1740  0.0086 -0.0449
33175ION     NA48984  12.174   7.132   3.605  0.3245  0.2091 -0.0878
33176ION     NA48985   4.034   9.090  15.118 -0.2265  0.1926  0.1196
33177ION     NA48986   0.270  11.053   5.972  0.1887  0.2778  0.0819
33178ION     NA48987  14.524  12.648   3.238 -0.3355 -0.1778 -0.1559
33179ION     NA48988  18.443   8.781   4.017 -0.0320 -0.3382 -0.0656
33180ION     NA48989   8.894  15.126   4.154  0.2979  0.2129 -0.0422
33181ION     NA48990  15.415  12.889   2.761 -0.3188 -0.1183  0.3191
33182ION     NA48991   2.485  15.934  11.914  0.1414 -0.0936 -0.2648
33183ION     NA48992   1.443   3.042  14.212 -0.2279  0.1284  0.1030
33184ION     NA48993  13.163   9.329  14.943 -0.1531  0.1997  0.1238
33185ION     NA48994   2.430   6.760   5.771  0.1516 -0.4183 -0.0096
33186ION     NA48995   3.465  16.794  10.169 -0.0218 -0.1258  0.1706
33187ION     NA48996   1.954  18.130  13.195 -0.0454  0.2224  0.1701
33188ION     NA48997   5.349   3.092  15.394  0.1674  0.2860  0.1479
33189ION     NA48998  13.026  12.396  14.303  0.0908 -0.0987  0.1562
33190ION     NA48999   8.307   8.860   2.601  0.3461 -0.2232 -0.0134
33191ION     NA49000   0.178   3.623   1.125 -0.0288  0.1526  0.3134
33192ION     NA49001  11.793   2.235  10.075  0.1535 -0.1464 -0.0377
33193ION     NA49002   2.410  18.146   5.079  0.2707  0.0526 -0.1668
33194ION     NA49003  16.813  13.038   5.247 -0.1796  0.0293  0.1082
33195ION     NA49004  16.224   4.222  10.389 -0.0878 -0.2433  0.0980
33196ION     NA49005  11.361   7.417   0.398 -0.1746 -0.0922 -0.2324
33197ION     NA49006   0.487  17.871  10.143 -0.2585 -0.0582  0.1429
33198ION     NA49007  15.543   1.114   5.583  0.0182 -0.0055  0.0773
33199ION     NA49008  17.070  17.701   5.718  0.1512  0.0271 -0.0883
33200ION     NA49009   5.993  12.278  13.371 -0.2782 -0.1793  0.2214
33201ION     NA49010   6.541  17.647   9.906  0.0556  0.1398 -0.1278
33202ION     NA49011  10.995   3.020   5.855  0.1050 -0.0763  0.2660
33203ION     NA49012   6.433   4.419   0.749 -0.1020 -0.2114  0.2070
33204ION     NA49013   8.486  12.391   5.625 -0.2425  0.0150  0.0828
33205ION     NA49014   8.036  17.403   5.665  0.1361  0.2503 -0.1040
33206ION     NA49015  11.678   9.867  12.454 -0.1441 -0.0991 -0.1757
33207ION     NA49016   4.677   2.532   5.163 -0.3555  0.0707  0.2803
33208ION     NA49017  13.579   6.627  12.054 -0.2275  0.0434  0.0723
33209ION     NA49018   5.626   0.092  12.603  0.1799  0.1676  0.0032
33210ION     NA49019  18.381  11.182   1.714  0.2696  0.1114 -0.1426
33211ION     NA49020  16.089  13.349  15.541 -0.3348 -0.0578  0.2925
33212ION     NA49021  17.837   4.798  11.524  0.2742  0.0858 -0.1616
33213ION     NA49022   1.155  14.314   0.422 -0.4518 -0.2363 -0.1352
33214ION     NA49023  13.241   3.811   1.371  0.2388 -0.1565 -0.1380
33215ION     NA49024   7.877   3.235   9.823  0.4098 -0.2551 -0.1285
33216ION     NA49025   4.760   3.160   0.278  0.1879  0.0514 -0.2379
33217ION     NA49026  10.926   9.949   0.313 -0.0093 -0.0498 -0.0515
33218ION     NA49027  11.544  12.770  10.110  0.0456  0.1337  0.2448
33219ION     NA49028   5.505  14.662  10.442 -0.0300  0.0167  0.3278
33220ION     NA49029  15.686  14.210   2.171 -0.0340  0.1049  0.1786
33221ION     NA49030   4.931  14.568  12.697 -0.5858 -0.0361 -0.2973
33222ION     NA49031  18.294   0.246  10.094  0.1790 -0.3308 -0.0843
33223ION     NA49032   3.409   4.587  10.073 -0.1404  0.1067 -0.2373
33224ION     NA49033   1.620  11.929   5.432  0.1773  0.0682  0.1458
33225ION     NA49034   1.418   1.054  11.482 -0.1163  0.0584  0.1972
33226ION     NA49035   6.233   0.073  10.274 -0.2505  0.0175 -0.0554
33227ION     NA49036  14.052   8.751   5.643 -0.0056 -0.0580  0.1026
33228ION     NA49037   2.334   5.256  14.357  0.0608 -0.0213 -0.2525
33229ION     NA49038  10.628   2.039   5.557 -0.0793 -0.0198  0.0214
33230ION     NA49039   3.102   4.768  14.697 -0.2109 -0.0799  0.0087
33231ION     NA49040  12.023   6.851   0.682 -0.3555 -0.0058  0.1085
33232ION     NA49041   3.884  14.686   5.720  0.1063 -0.2467 -0.4373
33233ION     NA49042   2.577   1.105   2.114 -0.0402 -0.3964  0.1867
33234ION     NA49043  13.145   8.333   2.766 -0.1057  0.1848 -0.2239
33235ION     NA49044  17.952  14.195   5.610  0.3608  0.2501 -0.0662
33236ION     NA49045  17.997   8.170   6.063  0.0249 -0.2415  0.1649
33237ION     NA49046   2.539  14.113   1.683 -0.3102  0.1111 -0.0413
33238ION     NA49047   0.497   0.690   0.294  0.0690 -0.1829 -0.1094
33239ION     NA49048  14.840   7.531  10.672  0.0164 -0.0502 -0.0054
33240ION     NA49049  15.772  15.767   0.684 -0.1081  0.3494 -0.0382
33241ION     NA49050   2.272  12.064  13.384  0.0550  0.0324 -0.0995
33242ION     NA49051   6.478   5.614   0.440  0.0182  0.0652 -0.2768
33243ION     NA49052  17.022  14.729   2.367  0.4220  0.0304 -0.0918
33244ION     NA49053  15.366  15.032   0.571 -0.2163 -0.0169 -0.0967
33245ION     NA49054  13.951   3.303   1.273 -0.0840 -0.0928 -0.3235
33246ION     NA49055   6.774   5.290   2.305  0.1291 -0.4858  0.1267
33247ION     NA49056   4.030  17.394  10.031 -0.0564 -0.0273 -0.2583
33248ION     NA49057  17.612  15.676   9.820  0.2032 -0.3854  0.2210
33249ION     NA49058   6.622   7.585  12.437 -0.0301 -0.1172  0.0367
33250ION     NA49059   3.991   3.575  14.265 -0.1612  0.1187  0.1641
33251ION     NA49060   6.122  10.589  12.140 -0.1182 -0.3174  0.2855
33252ION     NA49061  11.444   5.196   4.794  0.0346 -0.0997  0.2950
33253ION     NA49062   8.658  10.270   1.028 -0.0451  0.2193 -0.0344
33254ION     NA49063  17.217   6.976   6.029  0.1200  0.0623 -0.2029
33255ION     NA49064   2.686  13.861   0.207  0.2041 -0.0964 -0.0244
33256ION     NA49065   4.353   5.874   3.522  0.0406 -0.0027  0.0555
33257ION     NA49066   0.100  16.618   1.599 -0.0198 -0.0109  0.0615
33258ION     NA49067   7.030   4.006   0.705 -0.1894 -0.1549  0.0899
33259ION     NA49068  14.617   0.371  15.701 -0.1539  0.3529  0.1646
33260ION     NA49069   1.853  10.055   1.588  0.0101 -0.3442 -0.1643
33261ION     NA49070  14.884   8.689  10.291 -0.2643 -0.0260  0.0537
33262ION     NA49071   7.512  15.898  10.481 -0.0949  0.0194 -0.2359
33263ION     NA49072   4.166   9.520  13.816  0.1194  0.1444  0.0403
33264ION     NA49073   5.687  14.201   6.009 -0.1512 -0.1235 -0.0959
33265ION     NA49074  13.483   6.243   1.078  0.0499  0.2525 -0.0404
33266ION     NA49075   1.139   8.815   3.068 -0.0505 -0.0324  0.0214
33267ION     NA49076  15.316   3.343   5.794 -0.1527 -0.0868  0.3472
33268ION     NA49077   5.491  14.124   4.135  0.1113 -0.2164  0.0278
33269ION     NA49078  10.515   8.836   5.767  0.0331  0.2564  0.5439
33270ION     NA49079  18.409   2.582  10.185 -0.0219 -0.1843  0.0410
33271ION     NA49080  16.675   4.078  12.067  0.0674  0.0468  0.2419
33272ION     NA49081   0.262  15.136  13.687  0.0082 -0.1177 -0.0539
33273ION     NA49082   3.113  18.360  10.125  0.0262 -0.1217  0.2316
33274ION     NA49083  13.050  14.933   4.227 -0.1951  0.0189 -0.1161
33275ION     NA49084   6.735  10.548   3.808 -0.3370 -0.0520  0.2454
33276ION     NA49085  13.564  11.418  13.839  0.0542  0.0996  0.1439
33277ION     NA49086   9.599  14.003   0.669 -0.0067  0.0939 -0.0433
33278ION     NA49087  16.341  18.018   5.824 -0.3274 -0.0996  0.0855
33279ION     NA49088  15.417  12.721   3.814  0.3549  0.0619  0.1288
33280ION     NA49089   0.216  10.555  13.549  0.0526 -0.1392  0.1055
33281ION     NA49090  10.611  13.897   2.143  0.0312  0.0417 -0.0771
33282ION     NA49091   4.135  13.635  12.248 -0.1705  0.1945 -0.3107
33283ION     NA49092   4.228  15.570  10.268  0.3519 -0.0283  0.0764
33284ION     NA49093   4.652  17.654  12.054 -0.3181 -0.4579 -0.1058
33285ION     NA49094   2.140  11.794  10.015  0.4598 -0.0714 -0.1711
33286ION     NA49095  11.881   5.915  10.281  0.3323 -0.0120  0.0696
33287ION     NA49096  15.042   5.164  10.178  0.1049  0.1719  0.1920
33288ION     NA49097   3.318  13.156   3.720 -0.0829 -0.1170 -0.0324
33289ION     NA49098   5.168  10.821   0.200 -0.0470 -0.0033 -0.1322
33290ION     NA49099   8.874  15.927  10.024 -0.3889  0.2490  0.0004
33291ION     NA49100   6.595   1.764  13.490  0.0806 -0.0095 -0.1949
33292ION     NA49101   2.913   6.725  10.223  0.1193 -0.0759 -0.3534
33293ION     NA49102  17.813  14.349   9.898  0.3186  0.0921 -0.2129
33294ION     NA49103  15.131  11.650   1.818 -0.1052  0.3980  0.2238
33295ION     NA49104   5.385  13.330   5.967  0.0499  0.0990 -0.0666
33296ION     NA49105  17.174  11.506   1.830 -0.1164 -0.0384 -0.0848
33297ION     NA49106   4.859  13.981  11.763  0.1934 -0.3593 -0.0092
33298ION     NA49107  16.918  14.424   5.738 -0.0082  0.0716 -0.0239
33299ION     NA49108   9.750  10.106   4.455  0.2881  0.1797  0.1858
33300ION     NA49109   0.943   0.024   4.126 -0.0163 -0.4021 -0.2763
33301ION     NA49110   6.168   3.061   9.858  0.1418 -0.0796  0.0462
33302ION     NA49111  10.276  15.395  14.754  0.2742  0.0581 -0.0260
33303ION     NA49112  16.058   1.035  10.321  0.0426 -0.1466 -0.0283
33304ION     NA49113  17.993   3.362   4.804  0.3174 -0.1936  0.1945
33305ION     NA49114   0.507  14.164   1.763  0.1338 -0.0082  0.3829
33306ION     NA49115   3.832   6.947  14.235 -0.0137  0.2168 -0.0028
33307ION     NA49116  10.307   6.116  15.767  0.0771 -0.1718 -0.0346
33308ION     NA49117   9.702  13.643   4.997 -0.2725  0.3525  0.1074
33309ION     NA49118  14.528   6.935   5.612 -0.0694 -0.0111 -0.0177
33310ION     NA49119   7.374  13.984   0.459 -0.1379 -0.0329 -0.2903
33311ION     NA49120  11.178   9.543   1.524  0.1984  0.0346 -0.0689
33312ION     NA49121  14.414  14.208  15.564  0.2159  0.1971 -0.2914
33313ION     NA49122  18.454   1.218   5.316  0.3028 -0.1421 -0.1191
33314ION     NA49123   0.674  11.657   2.467 -0.0761 -0.0545 -0.0513
33315ION     NA49124  17.394  18.259  15.709 -0.0148 -0.0987 -0.0559
33316ION     NA49125   5.514  16.033  10.396  0.4104 -0.1792 -0.2464
33317ION     NA49126  15.825   7.271   2.149  0.1685 -0.1420 -0.4281
33318ION     NA49127   0.844  12.908  10.293  0.0074  0.4029  0.0545
33319ION     NA49128  17.131   1.354   5.730  0.0915 -0.0799  0.1346
33320ION     NA49129   8.632   3.276  13.158 -0.0688  0.4445 -0.0040
33321ION     NA49130  11.951   0.105  10.232  0.2307  0.2059 -0.5236
33322ION     NA49131   3.471  16.982  11.298  0.0146 -0.1619  0.1766
33323ION     NA49132   1.147  17.208  13.460 -0.1430 -0.1280 -0.0236
33324ION     NA49133  10.778  17.008   1.372  0.0788 -0.0953  0.1069
33325ION     NA49134   9.588  16.155  10.379 -0.0687  0.1937 -0.0553
33326ION     NA49135  15.255  16.576  11.450  0.0567 -0.0214 -0.1674
33327ION     NA49136   4.968   8.008   3.163 -0.0200 -0.0226 -0.0129
33328ION     NA49137   0.094  11.508   3.528  0.0514  0.0589  0.0262
33329ION     NA49138   7.128  17.300   0.984 -0.2320 -0.3838  0.0352
33330ION     NA49139   9.275   8.543   2.741 -0.1133  0.0462 -0.0706
33331ION     NA49140   2.109   6.289  10.269  0.0430 -0.1646 -0.1145
33332ION     NA49141   9.644  17.490   2.112  0.0041 -0.1264  0.2111
33333ION     NA49142  12.320   8.921  11.576 -0.1433  0.2363 -0.1135
33334ION     NA49143  12.659  15.378  10.057 -0.0486  0.1668 -0.1389
33335ION     NA49144  11.526  12.277   3.052  0.1693  0.1277 -0.1484
33336ION     NA49145  11.079  10.743   3.006 -0.2014 -0.2550 -0.0485
33337ION     NA49146  15.752   8.840  14.364 -0.1134  0.1452 -0.0882
33338ION     NA49147  13.650  16.829  10.021 -0.2157 -0.0282 -0.1502
33339ION     NA49148  14.010   0.622  10.537  0.1918  0.3609  0.0009
33340ION     NA49149   4.575  16.230   0.960 -0.1550  0.0738  0.0846
33341ION     NA49150  17.547   4.931   5.959  0.0450  0.1138  0.0570
33342ION     NA49151   8.004   8.186   5.273  0.0380  0.3923  0.1241
33343ION     NA49152  13.682   9.475   1.214  0.1190 -0.3359 -0.0093
33344ION     NA49153   8.887  11.043   5.650 -0.4036  0.2239 -0.0478
33345ION     NA49154   8.793  12.530  13.049  0.1489  0.1765 -0.1807
33346ION     NA49155  10.862   6.926   2.505 -0.1014 -0.1868 -0.0031
33347ION     NA49156   0.863  15.093   0.774  0.1439 -0.0217 -0.1335
33348ION     NA49157  14.419  16.394   9.892 -0.0723  0.2382 -0.1304
33349ION     NA49158   8.118   6.981   9.986 -0.3089  0.0369  0.0084
33350ION     NA49159   9.580  17.795   1.249 -0.2450 -0.4146 -0.2956
33351ION     NA49160   1.503  16.812   1.923  0.0121 -0.1529 -0.0317
33352ION     NA49161   8.289   2.397   0.812  0.0352 -0.1133  0.1653
33353ION     NA49162   6.088  15.550  14.146  0.3870 -0.2289 -0.1216
33354ION     NA49163   9.114   7.077  14.417  0.0109 -0.2050  0.0095
33355ION     NA49164   3.177   0.053   3.340 -0.0397 -0.2602 -0.1098
33356ION     NA49165  11.604   5.838  12.875  0.2374 -0.1593 -0.2032
33357ION     NA49166  10.239   7.840  10.207  0.3430 -0.2283  0.1273
33358ION     NA49167  14.375  12.252  10.028  0.1302  0.0904 -0.1045
33359ION     NA49168  16.175  17.401   0.321 -0.0487  0.0516 -0.2032
33360ION     NA49169  10.859   3.412   1.473  0.0832 -0.2596 -0.0845
33361ION     NA49170  17.086  12.557   5.872 -0.0364  0.0272  0.1158
33362ION     NA49171  18.353   6.638   0.899 -0.1709  0.1390  0.2742
33363ION     NA49172   7.224  18.148   5.685  0.0054 -0.1208 -0.2771
33364ION     NA49173   6.154  14.350   2.837  0.2704  0.0678 -0.0886
33365ION     NA49174  11.754   4.444   3.109 -0.0468  0.3157 -0.1593
33366ION     NA49175  10.819   0.753  15.111 -0.0406 -0.0815 -0.0572
33367ION     NA49176   8.911  16.112   3.904 -0.2724  0.3645 -0.2149
33368ION     NA49177   2.684   2.774   5.291 -0.2225  0.0593 -0.0734
33369ION     NA49178  12.372  16.365   5.977 -0.0880  0.2379  0.3324
33370ION     NA49179   4.910  16.562   4.792  0.0577 -0.0525  0.1414
33371ION     NA49180  14.172   8.946   2.604  0.0819 -0.2435 -0.0082
33372ION     NA49181   1.257   1.313   1.414 -0.2541  0.3131 -0.2576
33373ION     NA49182  16.839   4.393   5.505  0.0792  0.0965  0.0513
33374ION     NA49183   8.724   2.773  12.039 -0.2953  0.0654  0.0162
33375ION     NA49184   9.153   4.443   2.033  0.0334  0.4369  0.2018
33376ION     NA49185  10.243   5.455   9.791  0.3453  0.2244 -0.2419
33377ION     NA49186   2.446  10.931  10.261  0.0834  0.4117 -0.0094
33378ION     NA49187  17.214  16.319  12.204  0.0538  0.1012  0.0483
33379ION     NA49188  13.516   1.839   3.882 -0.1182  0.0779  0.1372
33380ION     NA49189   1.959  16.704   9.955  0.2672 -0.0290  0.0222
33381ION     NA49190   0.253   4.925  10.234 -0.0216 -0.0273 -0.0404
33382ION     NA49191  17.242   3.184  14.261 -0.1644 -0.1046 -0.1757
33383ION     NA49192  16.288  14.350   0.858 -0.0036 -0.0403 -0.0431
33384ION     NA49193   3.438   1.030   0.760  0.0191 -0.2329  0.2115
33385ION     NA49194   7.027  13.912  10.403 -0.1719  0.0908  0.2524
33386ION     NA49195   1.999  14.994   3.724  0.0570 -0.1056  0.2920
33387ION     NA49196   6.347  16.306  10.298  0.0826 -0.0322  0.0694
33388ION     NA49197   5.831  12.529   4.449 -0.1611 -0.0804  0.0820
33389ION     NA49198   7.060   6.737   5.309 -0.0759 -0.0508  0.0676
33390ION     NA49199  18.370  17.065   0.160 -0.1633 -0.1753 -0.1846
33391ION     NA49200  14.678   2.940   1.605  0.1173  0.1186 -0.1301
33392ION     NA49201  10.600   2.526  10.335 -0.0251  0.1478 -0.0355
33393ION     NA49202   7.536   2.740  12.808  0.1979  0.0533 -0.2484
33394ION     NA49203  13.375  10.269  12.767  0.0275  0.1784  0.0087
33395ION     NA49204  12.360  16.485   3.843  0.1682  0.2570 -0.0517
33396ION     NA49205  11.201   5.332   1.960 -0.2240  0.1178  0.1576
33397ION     NA49206  16.695  11.295   6.060 -0.0205 -0.0033  0.0590
33398ION     NA49207   8.830   5.596   1.770 -0.0201 -0.0911  0.2567
  18.46354  18.46354  15.85444
