INSANE! Membrane UpperLeaflet>loPI:POPI:DPPI:PYPI:ERGO=140.0:15.0:9.0:6.0:30.0 LowerLeaflet>PSPI:POPI:POPS:YOPS:POPE:YOPE:POPC:YOPC:ERGO=6.0:14.0:21.0:9.0:9.0:21.0:12.0:48.0:60.0
49207
    1loPI    C1    1   5.975   6.845   9.756  0.2827 -0.0262 -0.3313
    1loPI    C2    2   5.858   7.038   9.425 -0.1375 -0.2239 -0.3045
    1loPI    C3    3   5.586   6.872   9.667  0.1548  0.0249  0.2122
    1loPI   PO4    4   6.139   6.671   9.675 -0.0091 -0.0050  0.1791
    1loPI   GL1    5   6.297   6.657   9.250  0.2311  0.0721 -0.1403
    1loPI   GL2    6   6.370   6.841   9.062 -0.0608 -0.2092 -0.0555
    1loPI   C1A    7   6.569   6.420   8.863  0.1302  0.0471  0.3195
    1loPI   C2A    8   6.871   6.344   8.457 -0.0967 -0.1307 -0.3008
    1loPI   C3A    9   7.036   6.566   8.096 -0.1896  0.2316 -0.2355
    1loPI   C4A   10   7.098   6.767   7.709 -0.3812 -0.2928  0.3400
    1loPI   C5A   11   7.067   7.183   7.564  0.0122 -0.1802 -0.0064
    1loPI   C6A   12   6.922   7.337   7.201  0.1189 -0.1127  0.4743
    1loPI   C1B   13   6.416   6.855   8.668 -0.0270 -0.0465  0.1939
    1loPI   C2B   14   6.485   6.806   8.224 -0.0829 -0.0128  0.2299
    1loPI   C3B   15   6.575   6.774   7.871  0.2038 -0.0467  0.0784
    1loPI   C4B   16   6.709   6.575   7.351 -0.1535 -0.0765 -0.3925
    2loPI    C1   17  18.260  10.041  10.103 -0.2336  0.0330 -0.1011
    2loPI    C2   18  18.165  10.421  10.183 -0.3075  0.0091 -0.0749
    2loPI    C3   19  17.892  10.132  10.231 -0.2171 -0.0621  0.0163
    2loPI   PO4   20  18.322  10.077   9.817 -0.1015  0.0029 -0.0648
    2loPI   GL1   21  18.210   9.812   9.501  0.1609  0.3692  0.2261
    2loPI   GL2   22  18.043  10.096   9.382  0.3108 -0.2483 -0.1865
    2loPI   C1A   23  18.408   9.941   9.010  0.3814 -0.2466 -0.1332
    2loPI   C2A   24  18.774  10.137   8.939  0.2654 -0.2010 -0.2920
    2loPI   C3A   25  18.933  10.394   8.708  0.0184  0.2015 -0.0183
    2loPI   C4A   26  19.139  10.356   8.375  0.1379  0.1974  0.1893
    2loPI   C5A   27  19.237  10.510   7.938 -0.2936 -0.1650 -0.3104
    2loPI   C6A   28  19.351  10.793   7.762 -0.3671  0.2132  0.1973
    2loPI   C1B   29  17.842   9.983   9.066 -0.2023 -0.0269  0.0818
    2loPI   C2B   30  17.956   9.882   8.717 -0.2682 -0.0240 -0.2087
    2loPI   C3B   31  17.959   9.625   8.314 -0.2494  0.0265 -0.0447
    2loPI   C4B   32  17.940   9.955   7.945 -0.1931 -0.0020 -0.0950
    3loPI    C1   33   4.466   5.498   9.725 -0.1554  0.1198 -0.0534
    3loPI    C2   34   4.076   5.576   9.762 -0.0661  0.5346  0.0596
    3loPI    C3   35   4.317   5.605  10.080  0.0084 -0.0383  0.0650
    3loPI   PO4   36   4.427   5.180   9.532 -0.0456  0.0125 -0.1222
    3loPI   GL1   37   4.531   5.024   9.064  0.0481  0.2633 -0.0755
    3loPI   GL2   38   4.875   4.894   8.934  0.0476 -0.0192 -0.1615
    3loPI   C1A   39   4.488   4.972   8.621  0.1328 -0.0601  0.2477
    3loPI   C2A   40   4.398   4.913   8.241  0.1810 -0.0069  0.1093
    3loPI   C3A   41   4.360   4.740   7.831  0.0578  0.2440 -0.0865
    3loPI   C4A   42   4.024   4.626   7.644 -0.0756  0.0612  0.1232
    3loPI   C5A   43   3.776   4.294   7.328 -0.1161  0.4257 -0.0131
    3loPI   C6A   44   3.696   4.259   6.864  0.1091 -0.7470  0.1576
    3loPI   C1B   45   5.076   4.610   8.600 -0.2249 -0.1780  0.0929
    3loPI   C2B   46   5.142   4.343   8.295  0.0897  0.0311  0.1690
    3loPI   C3B   47   5.421   4.338   7.931 -0.1153  0.1725  0.0656
    3loPI   C4B   48   5.182   4.335   7.608 -0.0616  0.0793  0.2077
    4loPI    C1   49  18.817   4.975  10.453 -0.1590  0.0036  0.0907
    4loPI    C2   50  18.921   4.765  10.778  0.2266 -0.0256 -0.0456
    4loPI    C3   51  19.168   5.044  10.633 -0.0381  0.1381 -0.1905
    4loPI   PO4   52  18.615   4.708  10.310 -0.4560  0.1736 -0.0597
    4loPI   GL1   53  18.344   4.574   9.901 -0.1637  0.2295 -0.1587
    4loPI   GL2   54  18.040   4.365  10.003  0.1936  0.2182 -0.3402
    4loPI   C1A   55  18.450   4.535   9.415  0.1082 -0.0996 -0.0301
    4loPI   C2A   56  18.439   4.516   8.957 -0.3731 -0.3917 -0.1718
    4loPI   C3A   57  18.458   4.529   8.522 -0.0389  0.2629  0.1669
    4loPI   C4A   58  18.358   4.349   8.094 -0.2836  0.4296 -0.2072
    4loPI   C5A   59  18.044   4.281   7.867 -0.0720 -0.1784  0.0276
    4loPI   C6A   60  17.544   4.344   7.818  0.0559  0.1176 -0.0450
    4loPI   C1B   61  17.905   4.208   9.619  0.2253 -0.0922  0.0131
    4loPI   C2B   62  17.693   4.326   9.333  0.5050 -0.0953 -0.1738
    4loPI   C3B   63  17.266   4.225   9.088 -0.0388 -0.0289 -0.1808
    4loPI   C4B   64  17.001   4.415   8.778  0.3063  0.1308 -0.2857
    5loPI    C1   65   6.918  11.407  10.110 -0.1455  0.0222 -0.0751
    5loPI    C2   66   6.793  11.755   9.957  0.0069  0.0965 -0.0328
    5loPI    C3   67   6.761  11.686  10.350  0.3820  0.2424  0.0270
    5loPI   PO4   68   7.094  11.267   9.953  0.1539  0.0005 -0.1123
    5loPI   GL1   69   7.087  11.131   9.588  0.2344  0.0034  0.3317
    5loPI   GL2   70   6.801  11.235   9.570  0.1731 -0.3458  0.1145
    5loPI   C1A   71   7.222  11.331   9.247 -0.3133 -0.0592 -0.1175
    5loPI   C2A   72   7.065  11.432   8.850  0.2181  0.2112 -0.1447
    5loPI   C3A   73   6.765  11.535   8.585 -0.0644  0.0243 -0.0706
    5loPI   C4A   74   6.834  11.694   8.139  0.4104 -0.1529  0.2776
    5loPI   C5A   75   6.767  11.451   7.815 -0.3931 -0.1223  0.2455
    5loPI   C6A   76   7.118  11.318   7.539 -0.2526 -0.3151 -0.2312
    5loPI   C1B   77   6.775  11.507   9.353 -0.0391 -0.1478  0.0450
    5loPI   C2B   78   6.828  11.789   9.124  0.0892 -0.1470 -0.0052
    5loPI   C3B   79   6.851  12.062   8.738 -0.3537  0.1258  0.0205
    5loPI   C4B   80   6.927  12.188   8.259  0.0983 -0.0404  0.0521
    6loPI    C1   81   1.024  10.157   9.883 -0.1154 -0.0255 -0.0428
    6loPI    C2   82   0.683   9.952   9.845 -0.0238 -0.2008  0.0684
    6loPI    C3   83   0.752  10.165  10.176  0.1210 -0.4433  0.1970
    6loPI   PO4   84   1.043  10.257   9.648 -0.2948 -0.2954  0.1243
    6loPI   GL1   85   1.164  10.203   9.234  0.0457 -0.2534  0.0219
    6loPI   GL2   86   1.395  10.009   9.054  0.2527 -0.1346 -0.0364
    6loPI   C1A   87   1.075  10.369   8.813 -0.2764 -0.0607 -0.1224
    6loPI   C2A   88   1.080  10.531   8.383 -0.3919 -0.1820  0.1296
    6loPI   C3A   89   1.100  10.596   7.943  0.1085  0.4864 -0.0422
    6loPI   C4A   90   1.014  10.484   7.618 -0.0422  0.1244 -0.2811
    6loPI   C5A   91   1.020  10.519   7.239  0.2038  0.2141 -0.1825
    6loPI   C6A   92   1.024  10.172   6.906  0.0592  0.2139 -0.0024
    6loPI   C1B   93   1.432  10.182   8.571  0.1358  0.0424  0.0958
    6loPI   C2B   94   1.556  10.297   8.047  0.2788  0.2785 -0.1311
    6loPI   C3B   95   1.409  10.194   7.750  0.4673  0.1102 -0.0964
    6loPI   C4B   96   1.431  10.228   7.303 -0.0962  0.3450 -0.1997
    7loPI    C1   97  15.668  15.708  10.618  0.1088 -0.2914  0.0512
    7loPI    C2   98  15.419  15.585  10.906 -0.0308  0.0379  0.0751
    7loPI    C3   99  15.485  15.976  10.852  0.2063 -0.0324 -0.1642
    7loPI   PO4  100  15.611  15.626  10.402  0.1915  0.0416  0.1163
    7loPI   GL1  101  15.512  15.504   9.949 -0.0367  0.2073  0.3616
    7loPI   GL2  102  15.244  15.764   9.963 -0.0122 -0.0576 -0.0140
    7loPI   C1A  103  15.621  15.708   9.459 -0.0036 -0.1757 -0.0424
    7loPI   C2A  104  15.704  15.534   9.155 -0.1554 -0.1094 -0.1550
    7loPI   C3A  105  15.661  15.189   8.865  0.3176 -0.0582 -0.2361
    7loPI   C4A  106  15.761  15.362   8.381 -0.0116  0.1152  0.0025
    7loPI   C5A  107  15.777  15.495   8.028 -0.0752 -0.4636 -0.3845
    7loPI   C6A  108  16.143  15.473   7.888  0.4443  0.0878  0.3405
    7loPI   C1B  109  15.103  15.548   9.604  0.0034  0.2338 -0.2301
    7loPI   C2B  110  15.007  15.106   9.582 -0.1967  0.0634 -0.1933
    7loPI   C3B  111  14.727  15.061   9.205  0.4119 -0.3256  0.0668
    7loPI   C4B  112  14.522  15.129   8.714  0.3380  0.1818 -0.3341
    8loPI    C1  113   9.486  18.925  10.292  0.0466 -0.2142 -0.1340
    8loPI    C2  114   9.861  18.885  10.427 -0.0500 -0.0638  0.1869
    8loPI    C3  115   9.675  19.239  10.452 -0.2415 -0.1564  0.1012
    8loPI   PO4  116   9.363  18.839  10.127 -0.3869 -0.0260 -0.0669
    8loPI   GL1  117   9.408  18.802   9.751 -0.0144  0.0585 -0.0865
    8loPI   GL2  118   9.124  18.916   9.559 -0.0122 -0.1576  0.0221
    8loPI   C1A  119   9.419  18.504   9.450 -0.3857 -0.0871  0.0840
    8loPI   C2A  120   9.584  18.483   9.022  0.1241  0.2067  0.0628
    8loPI   C3A  121   9.497  18.682   8.640 -0.0737 -0.0610  0.1987
    8loPI   C4A  122   9.632  18.788   8.168 -0.3455 -0.0286  0.0397
    8loPI   C5A  123   9.759  18.480   7.764 -0.0923  0.2798  0.2280
    8loPI   C6A  124   9.899  18.023   7.687 -0.1417  0.1285 -0.2446
    8loPI   C1B  125   9.190  18.882   9.120  0.1294 -0.0079 -0.1892
    8loPI   C2B  126   9.119  19.012   8.611  0.1196 -0.1105 -0.1699
    8loPI   C3B  127   9.356  19.192   8.322  0.1572 -0.0457  0.0881
    8loPI   C4B  128   9.500  19.175   7.813  0.0759  0.0701  0.0490
    9loPI    C1  129  14.651   7.953   9.969 -0.1427 -0.2015  0.1764
    9loPI    C2  130  14.923   7.749  10.180 -0.0995 -0.0274  0.2920
    9loPI    C3  131  14.533   7.710  10.264 -0.1110 -0.2661  0.1358
    9loPI   PO4  132  14.803   8.038   9.726  0.2271  0.0657 -0.0841
    9loPI   GL1  133  14.731   8.078   9.324  0.1422 -0.1721 -0.4239
    9loPI   GL2  134  15.006   8.237   9.152 -0.0519 -0.1716  0.1099
    9loPI   C1A  135  14.761   7.884   8.889  0.2269  0.0976  0.2772
    9loPI   C2A  136  14.935   8.213   8.493  0.0011  0.0741 -0.3259
    9loPI   C3A  137  14.771   8.509   8.128  0.1574 -0.1086 -0.0606
    9loPI   C4A  138  14.566   8.672   7.768 -0.0261  0.0431 -0.0636
    9loPI   C5A  139  14.163   8.607   7.510 -0.0755  0.2642  0.3219
    9loPI   C6A  140  13.746   8.398   7.420 -0.0605 -0.1067  0.0588
    9loPI   C1B  141  14.912   8.652   8.841  0.0746  0.2147  0.1669
    9loPI   C2B  142  14.579   8.877   8.632 -0.2059 -0.2731  0.2361
    9loPI   C3B  143  14.604   9.007   8.210 -0.0674  0.1677 -0.0899
    9loPI   C4B  144  14.635   9.216   7.822  0.3275  0.1447 -0.1563
   10loPI    C1  145  10.836   8.728   9.937  0.2134  0.0273  0.1182
   10loPI    C2  146  10.534   8.535  10.114  0.0232  0.2365  0.0275
   10loPI    C3  147  10.840   8.671  10.333  0.0688 -0.0034  0.1158
   10loPI   PO4  148  10.841   8.513   9.705 -0.0008  0.1332 -0.2779
   10loPI   GL1  149  10.768   8.315   9.352 -0.2215  0.3993 -0.0580
   10loPI   GL2  150  10.959   8.151   9.177 -0.0508 -0.0393  0.4697
   10loPI   C1A  151  10.507   8.149   8.936 -0.0239  0.0630 -0.0606
   10loPI   C2A  152  10.565   7.773   8.647  0.2184 -0.0215  0.2189
   10loPI   C3A  153  10.322   7.658   8.277 -0.1089 -0.1109 -0.0555
   10loPI   C4A  154  10.183   7.676   7.909  0.0275 -0.0766  0.3519
   10loPI   C5A  155  10.230   7.403   7.510 -0.1637 -0.1046  0.0208
   10loPI   C6A  156  10.076   7.311   7.126  0.0199 -0.1326  0.1661
   10loPI   C1B  157  10.974   8.165   8.705  0.3768  0.0428  0.0571
   10loPI   C2B  158  10.564   8.171   8.335 -0.0865  0.1802  0.2849
   10loPI   C3B  159  10.499   8.260   7.875 -0.1481  0.3983 -0.1501
   10loPI   C4B  160  10.498   8.375   7.434 -0.0335  0.0505 -0.2479
   11loPI    C1  161   7.548   9.618   9.863  0.1330 -0.1025  0.1635
   11loPI    C2  162   7.874   9.715  10.073 -0.0036 -0.1832  0.4159
   11loPI    C3  163   7.539   9.604  10.262 -0.2323  0.0655  0.1654
   11loPI   PO4  164   7.711   9.627   9.557 -0.0394  0.0538 -0.0858
   11loPI   GL1  165   7.870   9.864   9.241 -0.1482  0.2508  0.4437
   11loPI   GL2  166   8.129   9.700   9.252  0.0440 -0.4259 -0.0848
   11loPI   C1A  167   7.856  10.061   8.831 -0.0796  0.1356 -0.0641
   11loPI   C2A  168   8.133  10.291   8.590 -0.3353 -0.3256  0.1684
   11loPI   C3A  169   8.160  10.706   8.334 -0.0154  0.0943  0.0579
   11loPI   C4A  170   8.421  10.916   7.983 -0.0960 -0.3012 -0.1505
   11loPI   C5A  171   8.716  11.110   7.834  0.2027  0.0016 -0.0748
   11loPI   C6A  172   9.163  10.893   7.635  0.1001  0.0824 -0.2131
   11loPI   C1B  173   8.256   9.754   8.891  0.1656  0.0417  0.0463
   11loPI   C2B  174   8.153   9.842   8.491  0.0563 -0.0011 -0.0081
   11loPI   C3B  175   7.909  10.009   8.240  0.3816  0.0978  0.0389
   11loPI   C4B  176   7.810  10.083   7.794 -0.1457 -0.1653 -0.0294
   12loPI    C1  177   0.270  14.335   9.773 -0.1857 -0.1382 -0.0101
   12loPI    C2  178   0.497  14.598   9.971 -0.0531 -0.3034  0.0601
   12loPI    C3  179   0.260  14.347  10.173 -0.5370  0.0728 -0.0213
   12loPI   PO4  180   0.180  14.443   9.583  0.1208 -0.0268  0.1806
   12loPI   GL1  181  -0.010  14.181   9.116 -0.2925 -0.0064 -0.0342
   12loPI   GL2  182  -0.065  13.919   9.133 -0.0241  0.4550  0.0012
   12loPI   C1A  183   0.144  14.114   8.590 -0.1146 -0.2328 -0.2305
   12loPI   C2A  184  -0.006  13.939   8.193  0.1303  0.1190 -0.0683
   12loPI   C3A  185   0.006  14.055   7.701 -0.3826  0.2897 -0.3614
   12loPI   C4A  186   0.241  14.097   7.394 -0.0367  0.1371 -0.0454
   12loPI   C5A  187   0.642  14.149   7.074  0.1186  0.1943  0.1734
   12loPI   C6A  188   1.034  13.841   6.930  0.2716 -0.1278 -0.0049
   12loPI   C1B  189  -0.308  13.929   8.683 -0.3711 -0.2545 -0.1268
   12loPI   C2B  190  -0.476  13.688   8.341  0.2996 -0.2637  0.0870
   12loPI   C3B  191  -0.535  13.304   8.053  0.0876  0.2490  0.0604
   12loPI   C4B  192  -0.325  12.946   7.966  0.1397 -0.1253 -0.2213
   13loPI    C1  193   4.481  16.048   9.708 -0.0685 -0.1605 -0.1586
   13loPI    C2  194   4.863  15.927   9.702 -0.0316 -0.0738  0.1916
   13loPI    C3  195   4.673  15.973  10.051 -0.1779  0.4592  0.0511
   13loPI   PO4  196   4.511  16.191   9.439 -0.0397 -0.3491 -0.0987
   13loPI   GL1  197   4.757  16.204   9.178 -0.2335 -0.2001  0.0606
   13loPI   GL2  198   4.656  16.626   9.096 -0.5379 -0.2459 -0.3253
   13loPI   C1A  199   4.744  16.122   8.695 -0.1318  0.2189  0.0176
   13loPI   C2A  200   4.575  16.231   8.186 -0.0012 -0.1217 -0.0231
   13loPI   C3A  201   4.494  16.232   7.639  0.2911 -0.1751 -0.4076
   13loPI   C4A  202   4.546  15.934   7.310 -0.1338 -0.0842 -0.1583
   13loPI   C5A  203   4.547  15.446   7.371  0.0543  0.2092  0.1818
   13loPI   C6A  204   4.526  15.087   7.084 -0.0723  0.0929 -0.0354
   13loPI   C1B  205   4.445  16.685   8.598  0.0022  0.0829 -0.0228
   13loPI   C2B  206   4.377  16.807   8.039  0.2258  0.0903  0.3732
   13loPI   C3B  207   4.208  17.031   7.577  0.3560 -0.2097  0.0522
   13loPI   C4B  208   3.852  17.107   7.421  0.3785 -0.1256  0.0805
   14loPI    C1  209  16.047   0.169  10.101 -0.0814  0.2223  0.0477
   14loPI    C2  210  15.991   0.174  10.497  0.1750 -0.1352  0.0930
   14loPI    C3  211  15.922  -0.161  10.289  0.0800  0.0391 -0.1611
   14loPI   PO4  212  16.239   0.295  10.061  0.1736 -0.1141 -0.1831
   14loPI   GL1  213  16.413   0.400   9.640  0.5085  0.2644  0.2443
   14loPI   GL2  214  16.138   0.437   9.566  0.0783 -0.2688 -0.3590
   14loPI   C1A  215  16.509   0.715   9.223  0.1859  0.0136  0.1795
   14loPI   C2A  216  16.595   0.946   8.755  0.3289 -0.0744  0.0723
   14loPI   C3A  217  16.724   1.001   8.341  0.1081  0.0805 -0.0203
   14loPI   C4A  218  16.923   0.702   7.997 -0.0112  0.1734  0.2339
   14loPI   C5A  219  16.857   0.851   7.474  0.1545  0.0099  0.3210
   14loPI   C6A  220  16.582   1.042   7.185  0.2886  0.1017  0.1972
   14loPI   C1B  221  16.138   0.323   9.098 -0.0111  0.0597 -0.0695
   14loPI   C2B  222  16.023   0.295   8.698 -0.3671 -0.2384  0.1384
   14loPI   C3B  223  15.828   0.291   8.331  0.1118 -0.0478  0.0028
   14loPI   C4B  224  15.653   0.494   7.852 -0.0800  0.0794 -0.0551
   15loPI    C1  225   4.266   6.394   9.542  0.2895  0.0229 -0.0076
   15loPI    C2  226   4.352   6.011   9.619  0.1476  0.0179  0.1294
   15loPI    C3  227   4.166   6.109   9.279  0.0192 -0.0567  0.1772
   15loPI   PO4  228   4.453   6.519   9.543  0.0696 -0.0143  0.1806
   15loPI   GL1  229   4.571   6.625   9.137 -0.3269  0.2938  0.1338
   15loPI   GL2  230   4.269   6.635   9.089  0.0573 -0.3126  0.0855
   15loPI   C1A  231   4.665   6.562   8.646  0.1715  0.2101 -0.1879
   15loPI   C2A  232   4.563   6.677   8.193  0.0238  0.2384 -0.1384
   15loPI   C3A  233   4.576   6.592   7.607 -0.1186 -0.0602 -0.0754
   15loPI   C4A  234   4.786   6.701   7.198 -0.1034  0.0924 -0.1185
   15loPI   C5A  235   4.993   6.988   6.989  0.0791 -0.1021 -0.2309
   15loPI   C6A  236   5.497   6.965   7.040 -0.3944 -0.0202 -0.1519
   15loPI   C1B  237   4.215   6.308   8.711 -0.1108 -0.2463 -0.3183
   15loPI   C2B  238   4.175   6.384   8.222  0.0030  0.3904  0.0763
   15loPI   C3B  239   4.191   6.580   7.929 -0.0086  0.1369 -0.0585
   15loPI   C4B  240   4.070   6.607   7.575  0.0379 -0.1638 -0.0413
   16loPI    C1  241   6.188  16.700   9.554 -0.0605 -0.0719 -0.0141
   16loPI    C2  242   6.075  16.848   9.908  0.1198 -0.0827  0.0490
   16loPI    C3  243   6.322  16.534   9.892  0.2532  0.0274 -0.0857
   16loPI   PO4  244   5.981  16.637   9.406 -0.1915  0.1661 -0.2208
   16loPI   GL1  245   5.813  16.758   8.961 -0.2144 -0.0423 -0.2867
   16loPI   GL2  246   5.945  17.111   8.922  0.0858  0.0183 -0.0407
   16loPI   C1A  247   5.625  16.732   8.521  0.2417 -0.0714  0.1795
   16loPI   C2A  248   5.771  16.478   8.148  0.1661  0.1310  0.0459
   16loPI   C3A  249   6.062  16.361   7.658  0.1047  0.2503  0.0415
   16loPI   C4A  250   6.181  16.069   7.392  0.2413 -0.3327 -0.2222
   16loPI   C5A  251   6.056  15.678   7.468 -0.1450  0.3429 -0.0711
   16loPI   C6A  252   5.688  15.552   7.291  0.1393 -0.1104 -0.2158
   16loPI   C1B  253   6.160  16.812   8.654 -0.0492 -0.1018 -0.1067
   16loPI   C2B  254   6.230  16.426   8.442  0.3365  0.4473  0.2902
   16loPI   C3B  255   6.115  16.076   8.131  0.1705  0.1002 -0.2418
   16loPI   C4B  256   6.249  15.721   7.969  0.1761  0.4059 -0.0984
   17loPI    C1  257   7.059  14.177  10.009 -0.0344  0.0158  0.0686
   17loPI    C2  258   6.957  14.213   9.624 -0.0630 -0.0394  0.0710
   17loPI    C3  259   7.205  14.479   9.791 -0.0183 -0.0386  0.0037
   17loPI   PO4  260   6.881  13.979  10.119 -0.1043 -0.1984 -0.1778
   17loPI   GL1  261   6.997  13.733   9.724  0.1957  0.0454 -0.3638
   17loPI   GL2  262   7.274  13.479   9.584 -0.2468  0.1365 -0.2762
   17loPI   C1A  263   6.718  13.745   9.248 -0.1596 -0.0007 -0.1614
   17loPI   C2A  264   6.566  13.564   8.816  0.0157 -0.1321 -0.0570
   17loPI   C3A  265   6.777  13.631   8.406  0.1377 -0.0459 -0.2243
   17loPI   C4A  266   6.765  13.925   7.988 -0.0308  0.1205  0.3432
   17loPI   C5A  267   6.956  14.300   7.893  0.0699 -0.0090  0.5073
   17loPI   C6A  268   7.289  14.612   7.895  0.1535 -0.1329 -0.2126
   17loPI   C1B  269   7.239  13.881   9.352 -0.0819 -0.1761  0.1654
   17loPI   C2B  270   7.400  14.271   9.090 -0.0208 -0.0621  0.1131
   17loPI   C3B  271   7.619  14.571   8.908  0.1769 -0.0951  0.1208
   17loPI   C4B  272   8.064  14.629   8.851  0.2152 -0.0757 -0.1131
   18loPI    C1  273   8.839  18.989   9.961  0.1070 -0.1781 -0.0914
   18loPI    C2  274   8.842  18.940  10.358  0.0828 -0.2177 -0.0961
   18loPI    C3  275   8.516  18.844  10.147  0.0506 -0.0785 -0.1108
   18loPI   PO4  276   8.899  19.272   9.953  0.3079  0.1167  0.2774
   18loPI   GL1  277   8.789  19.508   9.688  0.2683  0.1877  0.1204
   18loPI   GL2  278   8.499  19.480   9.502 -0.1985 -0.4421 -0.0748
   18loPI   C1A  279   8.862  19.215   9.308  0.0630  0.0423 -0.2506
   18loPI   C2A  280   8.818  19.319   8.831  0.0698  0.0116  0.4664
   18loPI   C3A  281   8.912  19.433   8.448  0.0082  0.1366  0.1518
   18loPI   C4A  282   9.166  19.619   8.146  0.0845 -0.3096 -0.1905
   18loPI   C5A  283   9.445  19.678   7.771 -0.1775 -0.0318 -0.0392
   18loPI   C6A  284   9.338  19.954   7.353  0.1040 -0.1856 -0.1396
   18loPI   C1B  285   8.847  19.707   9.216 -0.0342 -0.0316 -0.0141
   18loPI   C2B  286   8.749  19.810   8.793 -0.0696 -0.0516  0.2954
   18loPI   C3B  287   8.763  19.939   8.337 -0.1329 -0.1975  0.1856
   18loPI   C4B  288   8.926  20.147   8.074 -0.3765 -0.2766 -0.2072
   19loPI    C1  289   9.767   9.497   9.968 -0.1686 -0.2611  0.1536
   19loPI    C2  290  10.165   9.516   9.932 -0.1801 -0.2603  0.0243
   19loPI    C3  291   9.992   9.597  10.283 -0.0995  0.2217 -0.0413
   19loPI   PO4  292   9.693   9.572   9.733 -0.2674  0.1522  0.0531
   19loPI   GL1  293   9.408   9.780   9.402 -0.0876 -0.0136  0.2922
   19loPI   GL2  294   9.579   9.713   9.180 -0.1250 -0.0622 -0.3783
   19loPI   C1A  295   9.097   9.917   9.172 -0.2710 -0.1132 -0.0321
   19loPI   C2A  296   9.205   9.967   8.812 -0.2120  0.0442 -0.0890
   19loPI   C3A  297   9.067  10.130   8.530  0.0898  0.0097  0.1924
   19loPI   C4A  298   9.163  10.294   8.199 -0.0824  0.0742  0.3708
   19loPI   C5A  299   9.252  10.366   7.755  0.0299 -0.0558 -0.3572
   19loPI   C6A  300   9.141  10.192   7.359 -0.0448  0.1583 -0.0234
   19loPI   C1B  301   9.710   9.830   8.746  0.1893  0.2811  0.1045
   19loPI   C2B  302  10.063   9.831   8.426  0.1462 -0.3226 -0.2531
   19loPI   C3B  303  10.445   9.892   8.238 -0.3086 -0.0713  0.0756
   19loPI   C4B  304  10.815   9.874   7.985 -0.3661  0.2313 -0.3764
   20loPI    C1  305   6.191   4.712   9.321  0.0483  0.1753 -0.1620
   20loPI    C2  306   6.235   4.440   9.612 -0.2720  0.1156 -0.1661
   20loPI    C3  307   6.197   4.827   9.704  0.1678  0.1622 -0.1594
   20loPI   PO4  308   6.387   4.774   9.192 -0.0578  0.1797 -0.0379
   20loPI   GL1  309   6.546   4.577   8.758 -0.2123 -0.1473 -0.0862
   20loPI   GL2  310   6.827   4.774   8.746 -0.1182 -0.0064 -0.2779
   20loPI   C1A  311   6.480   4.508   8.286 -0.1159 -0.1146  0.0807
   20loPI   C2A  312   6.479   4.681   7.850  0.1211  0.1618 -0.2079
   20loPI   C3A  313   6.607   4.858   7.526  0.1349 -0.3586 -0.2534
   20loPI   C4A  314   6.718   5.122   7.069  0.0135 -0.1188 -0.0965
   20loPI   C5A  315   7.152   5.384   6.984  0.2920  0.3062 -0.2940
   20loPI   C6A  316   7.286   5.649   6.794  0.1848 -0.2011  0.1280
   20loPI   C1B  317   6.935   4.681   8.424 -0.1154  0.3837  0.3164
   20loPI   C2B  318   7.084   4.661   8.033  0.1270 -0.0105 -0.1467
   20loPI   C3B  319   7.020   4.608   7.609 -0.0367  0.0483  0.3877
   20loPI   C4B  320   7.024   4.739   7.187 -0.1070 -0.3080 -0.0087
   21loPI    C1  321   4.372  13.044   9.790 -0.1368  0.2426  0.1101
   21loPI    C2  322   4.386  12.745  10.056 -0.2113 -0.0381 -0.1936
   21loPI    C3  323   4.153  13.063  10.124 -0.1734 -0.0713  0.1072
   21loPI   PO4  324   4.238  12.876   9.533  0.0865  0.2517  0.0889
   21loPI   GL1  325   4.429  12.537   9.327 -0.0132  0.0080 -0.1072
   21loPI   GL2  326   4.590  12.183   9.242 -0.3028 -0.1531 -0.1184
   21loPI   C1A  327   4.445  12.609   8.869 -0.0113  0.1652  0.1371
   21loPI   C2A  328   4.747  12.719   8.538 -0.1602  0.0819  0.1910
   21loPI   C3A  329   4.942  12.965   8.255  0.1469  0.3163  0.1121
   21loPI   C4A  330   5.040  13.093   7.917  0.4357 -0.0697  0.0075
   21loPI   C5A  331   4.941  13.113   7.439  0.0040 -0.1500  0.0806
   21loPI   C6A  332   4.611  13.231   7.167  0.0127  0.1881 -0.2085
   21loPI   C1B  333   4.827  12.294   8.844  0.1892 -0.0138  0.0840
   21loPI   C2B  334   4.504  12.301   8.518  0.0897 -0.4166  0.1574
   21loPI   C3B  335   4.372  12.539   8.220  0.0631 -0.3360  0.3379
   21loPI   C4B  336   4.046  12.736   8.171 -0.1312 -0.1673  0.3410
   22loPI    C1  337  19.116   0.851  10.113 -0.0592 -0.0294 -0.0092
   22loPI    C2  338  19.112   0.551  10.377  0.3803 -0.1264 -0.1060
   22loPI    C3  339  19.243   0.912  10.487 -0.0242  0.0009 -0.0260
   22loPI   PO4  340  19.199   0.824   9.962  0.0025 -0.2143  0.2192
   22loPI   GL1  341  19.079   0.794   9.507  0.4481  0.3947  0.3521
   22loPI   GL2  342  18.906   0.520   9.348  0.5391 -0.0906 -0.2145
   22loPI   C1A  343  19.182   1.006   9.133  0.1612 -0.2605  0.0092
   22loPI   C2A  344  19.184   1.164   8.737  0.1522 -0.1243 -0.0532
   22loPI   C3A  345  19.024   1.245   8.316 -0.0302  0.0175  0.2833
   22loPI   C4A  346  18.793   1.286   8.009  0.3529  0.1937 -0.0384
   22loPI   C5A  347  18.971   1.668   7.813 -0.0330 -0.2637  0.0853
   22loPI   C6A  348  18.974   2.189   7.618  0.0988 -0.0975 -0.0712
   22loPI   C1B  349  19.072   0.462   9.013 -0.0890  0.2882 -0.1128
   22loPI   C2B  350  18.963   0.448   8.613  0.0902 -0.4308 -0.2335
   22loPI   C3B  351  18.883   0.311   8.167  0.0770 -0.1189  0.0275
   22loPI   C4B  352  18.907   0.355   7.730  0.0537 -0.1552 -0.0724
   23loPI    C1  353   6.119  17.363   9.769 -0.1103 -0.1942 -0.1286
   23loPI    C2  354   5.788  17.423   9.986  0.1085  0.2359  0.0985
   23loPI    C3  355   6.106  17.245  10.151 -0.0458 -0.2982 -0.1580
   23loPI   PO4  356   6.160  17.602   9.610  0.1592  0.0417 -0.0285
   23loPI   GL1  357   6.089  17.515   9.178  0.1087 -0.0056 -0.1607
   23loPI   GL2  358   5.824  17.610   9.032 -0.2377  0.0336 -0.2994
   23loPI   C1A  359   6.456  17.771   8.882  0.1965  0.0309 -0.0366
   23loPI   C2A  360   6.723  17.598   8.651  0.2340 -0.3059 -0.1455
   23loPI   C3A  361   6.824  17.319   8.265 -0.0104  0.2330  0.0450
   23loPI   C4A  362   7.121  17.425   7.953  0.0622 -0.3177  0.1106
   23loPI   C5A  363   7.260  17.132   7.599 -0.0915 -0.1624 -0.0726
   23loPI   C6A  364   7.535  16.793   7.789  0.3973 -0.2664  0.1498
   23loPI   C1B  365   5.940  17.784   8.630 -0.1275  0.0070  0.0607
   23loPI   C2B  366   6.129  18.051   8.363 -0.2976  0.0740  0.0002
   23loPI   C3B  367   6.296  18.414   8.160 -0.2404 -0.0293 -0.0704
   23loPI   C4B  368   6.336  18.641   7.812 -0.2545  0.0838 -0.2723
   24loPI    C1  369  18.606  10.178   9.395 -0.2689 -0.0230  0.0172
   24loPI    C2  370  18.869  10.136   9.694  0.0486  0.2136 -0.2218
   24loPI    C3  371  18.814   9.838   9.433 -0.0870  0.0801 -0.0430
   24loPI   PO4  372  18.628  10.530   9.392  0.1834 -0.1367  0.2136
   24loPI   GL1  373  18.341  10.666   9.055  0.2754  0.2798  0.2233
   24loPI   GL2  374  18.025  10.512   9.071 -0.3014  0.0823  0.2746
   24loPI   C1A  375  18.556  10.712   8.678  0.1221  0.1868  0.1944
   24loPI   C2A  376  18.670  10.514   8.280 -0.0371  0.1147 -0.2647
   24loPI   C3A  377  18.709  10.027   8.312 -0.1255 -0.0516  0.0965
   24loPI   C4A  378  19.032  10.024   8.052  0.1817 -0.1987  0.1375
   24loPI   C5A  379  19.378  10.083   7.700 -0.2324  0.2941 -0.1300
   24loPI   C6A  380  19.477   9.794   7.322 -0.0320  0.2093 -0.0342
   24loPI   C1B  381  18.003  10.404   8.681 -0.2598 -0.1723 -0.0048
   24loPI   C2B  382  18.209  10.312   8.251  0.1283  0.0108 -0.1430
   24loPI   C3B  383  18.362  10.261   7.876 -0.1162 -0.0326  0.4307
   24loPI   C4B  384  18.715  10.369   7.726  0.4654  0.2771 -0.0068
   25loPI    C1  385   7.104   6.850   9.695  0.1656 -0.0646 -0.1718
   25loPI    C2  386   6.817   6.995   9.457  0.0574 -0.0127 -0.0111
   25loPI    C3  387   6.735   6.696   9.710  0.2311 -0.2267 -0.2037
   25loPI   PO4  388   7.352   6.830   9.590 -0.4126  0.2241  0.1951
   25loPI   GL1  389   7.475   6.932   9.237 -0.2345  0.0393 -0.0847
   25loPI   GL2  390   7.450   7.275   9.100  0.3535  0.1383  0.0386
   25loPI   C1A  391   7.502   6.920   8.752 -0.2926 -0.3645 -0.0627
   25loPI   C2A  392   7.418   6.811   8.366  0.2099  0.1409  0.0231
   25loPI   C3A  393   7.456   6.977   8.036  0.1242  0.0014  0.0066
   25loPI   C4A  394   7.567   7.017   7.628  0.0397  0.0844  0.1045
   25loPI   C5A  395   7.418   7.460   7.379 -0.4654  0.4123  0.0027
   25loPI   C6A  396   7.194   7.813   7.042 -0.0145  0.1408 -0.4586
   25loPI   C1B  397   7.552   7.473   8.712 -0.4477  0.0101 -0.2592
   25loPI   C2B  398   7.422   7.478   8.248 -0.0175 -0.2098  0.0859
   25loPI   C3B  399   7.276   7.622   7.807 -0.1133  0.1020 -0.3113
   25loPI   C4B  400   6.940   7.706   7.539  0.0337 -0.1034 -0.0450
   26loPI    C1  401   4.325   0.455   9.551  0.1153  0.2770 -0.1115
   26loPI    C2  402   4.655   0.525   9.765 -0.0494 -0.1391  0.2955
   26loPI    C3  403   4.295   0.588   9.927 -0.1775  0.1575 -0.0902
   26loPI   PO4  404   4.437   0.541   9.298 -0.2594 -0.0974 -0.1232
   26loPI   GL1  405   4.396   0.531   8.881  0.1839 -0.3502 -0.0153
   26loPI   GL2  406   4.411   0.763   8.668  0.2759  0.1369 -0.2158
   26loPI   C1A  407   4.090   0.319   8.673  0.0050 -0.0623 -0.1791
   26loPI   C2A  408   4.047   0.154   8.170 -0.1648 -0.1767  0.0739
   26loPI   C3A  409   3.844   0.190   7.703 -0.1907 -0.0985  0.1366
   26loPI   C4A  410   3.987   0.169   7.279  0.0927  0.1811 -0.0789
   26loPI   C5A  411   3.902   0.004   6.915  0.0923  0.0629 -0.4053
   26loPI   C6A  412   3.761  -0.409   6.745 -0.0046  0.1771  0.0428
   26loPI   C1B  413   4.217   0.705   8.185  0.2082  0.0400 -0.4031
   26loPI   C2B  414   4.198   0.592   7.761 -0.2036  0.1117 -0.3335
   26loPI   C3B  415   4.284   0.705   7.241  0.1062 -0.0041 -0.0054
   26loPI   C4B  416   4.288   0.882   6.821  0.1485 -0.0948 -0.2055
   27loPI    C1  417  15.929   2.179  10.518  0.0086 -0.1136  0.0009
   27loPI    C2  418  15.670   1.884  10.596  0.0420 -0.1272  0.0604
   27loPI    C3  419  15.908   2.023  10.886 -0.0108 -0.0057  0.0460
   27loPI   PO4  420  15.848   2.124  10.214 -0.3196 -0.1935  0.4360
   27loPI   GL1  421  15.951   2.169   9.781  0.1981  0.1261 -0.1431
   27loPI   GL2  422  16.304   2.216   9.766  0.0165  0.1149 -0.1861
   27loPI   C1A  423  15.848   2.330   9.436 -0.0403  0.2087  0.3155
   27loPI   C2A  424  15.993   2.365   9.012  0.2425 -0.1072  0.0372
   27loPI   C3A  425  16.266   2.634   8.707 -0.0039 -0.1174 -0.0309
   27loPI   C4A  426  16.191   3.026   8.417  0.2741 -0.1234 -0.2510
   27loPI   C5A  427  16.449   3.314   8.111  0.1527 -0.1681  0.1115
   27loPI   C6A  428  16.281   3.516   7.748  0.2944  0.4020  0.0931
   27loPI   C1B  429  16.291   2.037   9.310 -0.1214  0.2529  0.3241
   27loPI   C2B  430  15.971   1.875   8.993  0.0232  0.0037  0.0274
   27loPI   C3B  431  15.621   1.783   8.642  0.0763 -0.0298 -0.1149
   27loPI   C4B  432  15.567   1.825   8.265  0.3612 -0.0262  0.0050
   28loPI    C1  433   1.064  17.914   9.562 -0.1742 -0.2843 -0.0636
   28loPI    C2  434   1.376  17.868   9.808 -0.1116  0.0178 -0.0825
   28loPI    C3  435   1.009  17.922   9.958 -0.0605  0.2907 -0.0512
   28loPI   PO4  436   1.130  18.124   9.346 -0.2292  0.2251 -0.0639
   28loPI   GL1  437   1.228  18.192   8.948 -0.0856 -0.2529  0.1704
   28loPI   GL2  438   1.015  18.487   9.072  0.0539  0.0153 -0.1679
   28loPI   C1A  439   1.289  18.331   8.613 -0.0736 -0.0297  0.3030
   28loPI   C2A  440   1.326  18.382   8.217  0.3406  0.1127 -0.0187
   28loPI   C3A  441   1.217  18.174   7.860 -0.3269  0.0798  0.1465
   28loPI   C4A  442   1.096  18.077   7.444 -0.2634 -0.0104 -0.0938
   28loPI   C5A  443   1.264  18.059   6.930  0.0989 -0.1356 -0.0719
   28loPI   C6A  444   1.108  17.874   6.549 -0.1392 -0.0409  0.1382
   28loPI   C1B  445   0.838  18.521   8.693  0.2321  0.1040 -0.6083
   28loPI   C2B  446   0.846  18.483   8.288  0.1973  0.2071  0.1373
   28loPI   C3B  447   0.908  18.601   7.760 -0.2192 -0.2688 -0.0413
   28loPI   C4B  448   0.669  18.737   7.403 -0.0365  0.2867 -0.0952
   29loPI    C1  449   5.884   8.325   9.631  0.0965  0.0385 -0.2197
   29loPI    C2  450   6.108   8.427   9.946 -0.1562  0.0045 -0.0255
   29loPI    C3  451   5.938   8.711   9.722  0.1043  0.0314 -0.1940
   29loPI   PO4  452   5.988   8.160   9.416 -0.3355 -0.0603 -0.0061
   29loPI   GL1  453   6.086   8.149   8.968  0.1013  0.3025 -0.0864
   29loPI   GL2  454   6.175   7.919   8.693 -0.0856  0.1327 -0.1661
   29loPI   C1A  455   6.184   8.364   8.512 -0.0967 -0.0146  0.0113
   29loPI   C2A  456   6.246   8.266   8.041 -0.6022  0.0969  0.1235
   29loPI   C3A  457   6.171   8.096   7.659  0.4661  0.0117 -0.3725
   29loPI   C4A  458   6.375   7.803   7.328 -0.1577  0.0078  0.0491
   29loPI   C5A  459   6.622   7.731   7.140 -0.3046  0.1333  0.3371
   29loPI   C6A  460   6.587   7.899   6.722  0.0922  0.0050 -0.0502
   29loPI   C1B  461   6.256   7.742   8.237 -0.0667 -0.2044  0.0311
   29loPI   C2B  462   6.111   7.620   7.768  0.2303  0.0980 -0.0643
   29loPI   C3B  463   6.089   7.249   7.559  0.1197 -0.1664  0.2924
   29loPI   C4B  464   5.985   7.056   7.247 -0.0781 -0.0475  0.2204
   30loPI    C1  465   3.913  11.127  10.230 -0.1888 -0.1078 -0.1264
   30loPI    C2  466   3.581  11.134  10.454 -0.1160 -0.0538 -0.0191
   30loPI    C3  467   3.857  10.851  10.515  0.0237  0.1131  0.1350
   30loPI   PO4  468   3.920  11.201   9.934 -0.3447  0.0095  0.4204
   30loPI   GL1  469   3.981  11.340   9.496  0.1260  0.2659 -0.0915
   30loPI   GL2  470   4.240  11.474   9.633 -0.5439 -0.0687  0.3075
   30loPI   C1A  471   3.951  11.262   9.036  0.2740  0.0428 -0.1683
   30loPI   C2A  472   3.944  11.249   8.553  0.0995 -0.3851 -0.2082
   30loPI   C3A  473   4.157  11.295   8.199 -0.3141  0.1784  0.1611
   30loPI   C4A  474   4.204  11.675   7.940  0.2054 -0.1589 -0.0471
   30loPI   C5A  475   4.382  11.773   7.767 -0.2619 -0.1046  0.0838
   30loPI   C6A  476   4.437  11.944   7.371 -0.0096  0.0643  0.1898
   30loPI   C1B  477   4.504  11.646   9.193 -0.1321  0.1787 -0.0618
   30loPI   C2B  478   4.520  11.925   8.867 -0.0085 -0.1235 -0.1653
   30loPI   C3B  479   4.121  12.132   8.780 -0.0821  0.1772 -0.0902
   30loPI   C4B  480   3.976  12.547   8.698  0.1793 -0.0591  0.1636
   31loPI    C1  481   0.962   1.600   9.854 -0.0790  0.0882 -0.0031
   31loPI    C2  482   1.103   1.974   9.856 -0.1378  0.1122  0.3871
   31loPI    C3  483   1.093   1.762  10.195  0.1403 -0.3389  0.1235
   31loPI   PO4  484   0.690   1.712   9.691 -0.0335  0.1269  0.0553
   31loPI   GL1  485   0.276   1.688   9.409  0.0143  0.3113  0.0250
   31loPI   GL2  486  -0.013   1.854   9.446 -0.0603  0.1922 -0.1289
   31loPI   C1A  487   0.298   1.476   9.008 -0.1955 -0.2393 -0.2900
   31loPI   C2A  488   0.240   1.569   8.561 -0.2648 -0.0495 -0.2119
   31loPI   C3A  489   0.219   1.751   8.171  0.1135 -0.0006 -0.0579
   31loPI   C4A  490   0.235   2.106   7.843  0.1219  0.1983 -0.2931
   31loPI   C5A  491   0.239   2.193   7.388 -0.1261 -0.4852 -0.0169
   31loPI   C6A  492   0.054   2.655   7.521 -0.1959  0.1115 -0.0273
   31loPI   C1B  493  -0.153   2.100   9.091  0.3355  0.2665  0.1415
   31loPI   C2B  494  -0.457   2.263   8.696 -0.0111  0.2316  0.0790
   31loPI   C3B  495  -0.287   2.631   8.445 -0.2890  0.1130  0.3383
   31loPI   C4B  496  -0.215   3.012   8.390  0.1504 -0.0019 -0.2707
   32loPI    C1  497   2.165   8.041   9.398  0.0617 -0.1384 -0.0566
   32loPI    C2  498   1.803   8.205   9.439  0.1593  0.1347 -0.2600
   32loPI    C3  499   2.024   8.127   9.763 -0.1183 -0.1266 -0.1276
   32loPI   PO4  500   2.228   8.209   9.214 -0.0981 -0.1189 -0.0501
   32loPI   GL1  501   2.039   8.492   9.006 -0.1544 -0.1385 -0.3027
   32loPI   GL2  502   1.748   8.180   8.967  0.1197 -0.2818  0.3412
   32loPI   C1A  503   1.934   8.694   8.677  0.4233 -0.3202 -0.2398
   32loPI   C2A  504   2.046   8.677   8.253  0.0346 -0.3544 -0.0050
   32loPI   C3A  505   2.298   8.601   7.868  0.0942  0.0417  0.4453
   32loPI   C4A  506   2.494   8.311   7.561 -0.3074  0.0576  0.0692
   32loPI   C5A  507   2.363   7.993   7.411 -0.1123 -0.5699  0.1577
   32loPI   C6A  508   2.417   7.573   7.013 -0.2260  0.2388  0.0799
   32loPI   C1B  509   1.651   8.283   8.528  0.1100 -0.0375 -0.0105
   32loPI   C2B  510   1.471   8.170   8.185 -0.2682  0.0626  0.2370
   32loPI   C3B  511   1.650   8.457   7.935  0.0701  0.1840  0.0849
   32loPI   C4B  512   1.479   8.520   7.513 -0.2804  0.1597 -0.0175
   33loPI    C1  513   8.632   0.997  10.338  0.1277  0.2346 -0.0451
   33loPI    C2  514   8.791   1.352  10.431  0.3360  0.1260  0.0181
   33loPI    C3  515   8.978   1.015  10.538  0.0835 -0.0041  0.0558
   33loPI   PO4  516   8.576   1.056  10.085 -0.0239 -0.1370  0.1748
   33loPI   GL1  517   8.635   1.308   9.783  0.2102  0.1447  0.3017
   33loPI   GL2  518   8.264   1.305   9.681 -0.0103 -0.0334 -0.0031
   33loPI   C1A  519   8.827   1.580   9.473 -0.2764 -0.1713  0.1644
   33loPI   C2A  520   9.250   1.700   9.245 -0.0996 -0.3472 -0.2718
   33loPI   C3A  521   9.679   1.689   9.110 -0.0401  0.2525 -0.0795
   33loPI   C4A  522  10.052   1.798   9.256 -0.0684  0.1111  0.3376
   33loPI   C5A  523  10.300   2.202   9.170 -0.2256 -0.0302  0.0956
   33loPI   C6A  524  10.124   2.305   8.724 -0.2319 -0.3668  0.2652
   33loPI   C1B  525   8.393   1.380   9.322  0.4123  0.0181  0.0277
   33loPI   C2B  526   8.596   1.618   9.001 -0.0755  0.1408 -0.2105
   33loPI   C3B  527   8.782   1.775   8.657  0.0629  0.1580  0.4411
   33loPI   C4B  528   8.995   1.863   8.241 -0.1540  0.0414 -0.0173
   34loPI    C1  529   8.242   6.144   9.943 -0.0025 -0.0942  0.0033
   34loPI    C2  530   8.061   6.287  10.269  0.0374  0.0609 -0.0419
   34loPI    C3  531   8.375   6.480  10.113 -0.0142  0.0164 -0.2026
   34loPI   PO4  532   7.972   6.024   9.768 -0.0294 -0.2249  0.0487
   34loPI   GL1  533   8.011   6.077   9.408  0.0718 -0.2713  0.0190
   34loPI   GL2  534   7.778   5.992   9.167 -0.1792 -0.4234 -0.0541
   34loPI   C1A  535   8.060   6.388   8.960  0.0156 -0.0951  0.1434
   34loPI   C2A  536   7.942   6.633   8.591  0.2469  0.0218 -0.1038
   34loPI   C3A  537   7.980   6.788   8.126  0.5439  0.6672  0.1347
   34loPI   C4A  538   8.008   6.962   7.803 -0.2128  0.1645  0.1233
   34loPI   C5A  539   8.037   7.244   7.455 -0.0816  0.1309 -0.3262
   34loPI   C6A  540   8.000   7.718   7.290 -0.3497  0.2325  0.1886
   34loPI   C1B  541   7.503   6.380   8.941 -0.0393  0.3162  0.1634
   34loPI   C2B  542   7.375   6.318   8.357 -0.3292 -0.1724 -0.2754
   34loPI   C3B  543   7.538   6.468   8.006 -0.0277  0.0006 -0.0924
   34loPI   C4B  544   7.541   6.481   7.562  0.3308 -0.0703 -0.0755
   35loPI    C1  545  16.748   8.178  10.160 -0.0005 -0.0829  0.2435
   35loPI    C2  546  16.814   7.830   9.974  0.3297 -0.0125  0.2229
   35loPI    C3  547  16.567   7.845  10.289 -0.1280 -0.1582 -0.1173
   35loPI   PO4  548  16.707   8.334   9.946 -0.0989  0.0918  0.0634
   35loPI   GL1  549  16.885   8.055   9.556  0.2518  0.1966  0.0256
   35loPI   GL2  550  16.606   8.200   9.308 -0.1038 -0.0339 -0.0497
   35loPI   C1A  551  16.878   7.807   9.108  0.0411  0.2066  0.0347
   35loPI   C2A  552  16.981   7.803   8.635 -0.1042  0.3429  0.3130
   35loPI   C3A  553  17.064   7.446   8.381 -0.1593  0.1148  0.1237
   35loPI   C4A  554  17.240   7.342   8.063  0.0111  0.1871 -0.1155
   35loPI   C5A  555  17.233   7.214   7.681  0.0570  0.2205 -0.0963
   35loPI   C6A  556  17.517   7.084   7.383 -0.1533 -0.0543  0.2110
   35loPI   C1B  557  16.485   8.000   8.903 -0.4281 -0.0758  0.1801
   35loPI   C2B  558  16.498   8.186   8.565  0.1155  0.0322 -0.2966
   35loPI   C3B  559  16.518   8.482   8.164 -0.0828 -0.0488 -0.0157
   35loPI   C4B  560  16.305   8.665   7.753 -0.0477  0.1191  0.1314
   36loPI    C1  561  12.264   3.112   9.666  0.0602 -0.0328 -0.1434
   36loPI    C2  562  12.394   3.392   9.921  0.3575 -0.0340 -0.2899
   36loPI    C3  563  12.319   3.021  10.052 -0.2981  0.1732 -0.0394
   36loPI   PO4  564  12.145   3.236   9.487 -0.0359  0.2087  0.0158
   36loPI   GL1  565  12.254   3.442   9.095  0.0387  0.0256  0.0191
   36loPI   GL2  566  12.511   3.592   9.012 -0.3508  0.1448 -0.1281
   36loPI   C1A  567  12.018   3.468   8.772 -0.1953 -0.3460 -0.2758
   36loPI   C2A  568  11.970   3.223   8.363  0.2162  0.1052 -0.2017
   36loPI   C3A  569  11.820   3.045   7.935 -0.0633 -0.2668  0.0992
   36loPI   C4A  570  11.832   3.282   7.513  0.1268 -0.0586  0.0884
   36loPI   C5A  571  11.886   3.436   7.136  0.2556  0.2628  0.0801
   36loPI   C6A  572  11.637   3.499   6.838 -0.1025  0.2817 -0.1461
   36loPI   C1B  573  12.651   3.842   8.698 -0.2156  0.1306  0.0419
   36loPI   C2B  574  12.397   4.028   8.466  0.0042  0.0852  0.2419
   36loPI   C3B  575  12.108   4.085   8.043 -0.0310  0.0102 -0.1341
   36loPI   C4B  576  11.744   4.068   7.997 -0.0225  0.1467 -0.0110
   37loPI    C1  577   8.537  15.571  10.115 -0.1612  0.0702 -0.1228
   37loPI    C2  578   8.789  15.716   9.841 -0.0947 -0.0745 -0.1393
   37loPI    C3  579   8.737  15.909  10.188 -0.0614  0.0259 -0.1897
   37loPI   PO4  580   8.339  15.478   9.938  0.0791 -0.0274  0.1076
   37loPI   GL1  581   8.262  15.530   9.593  0.2011  0.1988  0.1098
   37loPI   GL2  582   8.440  15.740   9.362 -0.5258  0.1719 -0.0882
   37loPI   C1A  583   8.056  15.467   9.130  0.0089 -0.0921  0.0273
   37loPI   C2A  584   8.019  15.389   8.640  0.3044  0.1699  0.1982
   37loPI   C3A  585   8.417  15.341   8.274  0.3167  0.0527 -0.0891
   37loPI   C4A  586   8.718  15.430   7.924  0.1286 -0.2217 -0.0456
   37loPI   C5A  587   9.046  15.532   7.551 -0.0088  0.1728 -0.0089
   37loPI   C6A  588   9.324  15.386   7.397 -0.4423  0.1449  0.0358
   37loPI   C1B  589   8.506  15.562   8.894 -0.3076 -0.2746  0.1744
   37loPI   C2B  590   8.595  15.685   8.582  0.1469 -0.2921  0.2191
   37loPI   C3B  591   8.703  15.926   8.172  0.3474  0.4079 -0.2935
   37loPI   C4B  592   9.009  15.811   7.960 -0.0130  0.0309 -0.1007
   38loPI    C1  593  10.781  18.354  10.137 -0.1119  0.2811 -0.0485
   38loPI    C2  594  11.088  18.548  10.305 -0.1564  0.2987  0.0133
   38loPI    C3  595  10.730  18.724  10.282 -0.2012  0.2174  0.0848
   38loPI   PO4  596  10.853  18.255   9.925  0.2410 -0.0968 -0.3506
   38loPI   GL1  597  10.695  18.259   9.598 -0.1858 -0.0107 -0.1614
   38loPI   GL2  598  10.994  18.249   9.447  0.1371  0.0997 -0.0613
   38loPI   C1A  599  10.539  18.224   9.223 -0.1945 -0.0700 -0.0661
   38loPI   C2A  600  10.551  18.152   8.750 -0.3448  0.0946  0.2053
   38loPI   C3A  601  10.809  17.740   8.367  0.0054 -0.2222  0.0299
   38loPI   C4A  602  10.721  17.718   7.971 -0.0707 -0.0931  0.4058
   38loPI   C5A  603  11.085  17.930   7.721  0.0732  0.3332 -0.0626
   38loPI   C6A  604  11.552  17.995   7.918 -0.1381 -0.0068  0.2942
   38loPI   C1B  605  11.012  18.252   8.941 -0.0827 -0.0145  0.0385
   38loPI   C2B  606  10.978  18.244   8.441 -0.1536  0.2001  0.0991
   38loPI   C3B  607  10.591  18.227   8.234  0.2919  0.2181  0.0546
   38loPI   C4B  608  10.214  18.334   7.960  0.3513  0.1464  0.4178
   39loPI    C1  609  10.977   1.513  10.144 -0.0386 -0.1541 -0.0495
   39loPI    C2  610  11.185   1.351  10.445 -0.1682 -0.0260  0.1106
   39loPI    C3  611  10.786   1.319  10.438 -0.1518 -0.2001 -0.1526
   39loPI   PO4  612  11.071   1.501   9.828  0.0361  0.3085 -0.2590
   39loPI   GL1  613  11.275   1.758   9.648 -0.1271 -0.0510  0.1103
   39loPI   GL2  614  11.537   1.900   9.512  0.0156 -0.2329  0.0118
   39loPI   C1A  615  11.128   1.647   9.197 -0.3838  0.3127  0.0932
   39loPI   C2A  616  10.944   1.566   8.868 -0.1769 -0.1532 -0.0490
   39loPI   C3A  617  10.780   1.772   8.547  0.0058  0.0411 -0.0163
   39loPI   C4A  618  10.832   1.803   8.187 -0.1032 -0.1721 -0.2725
   39loPI   C5A  619  10.520   1.801   7.963  0.3823  0.0009 -0.1633
   39loPI   C6A  620  10.245   1.913   7.697 -0.1084  0.2423  0.1226
   39loPI   C1B  621  11.928   1.863   9.326 -0.0572  0.1291 -0.0724
   39loPI   C2B  622  12.258   1.919   9.007 -0.0102  0.2471 -0.3447
   39loPI   C3B  623  12.302   1.956   8.606 -0.1783  0.0324 -0.0656
   39loPI   C4B  624  12.085   1.855   8.243  0.4948  0.0252  0.0192
   40loPI    C1  625  17.977   1.896  10.268 -0.0753 -0.1068 -0.0708
   40loPI    C2  626  18.119   2.074   9.939 -0.0561 -0.0370 -0.0250
   40loPI    C3  627  18.077   2.284  10.277 -0.1259 -0.0953  0.0026
   40loPI   PO4  628  17.962   1.623  10.136 -0.0227 -0.0430  0.2445
   40loPI   GL1  629  17.769   1.546   9.715 -0.0874  0.0689 -0.2578
   40loPI   GL2  630  17.667   1.885   9.787 -0.0268  0.0774 -0.0428
   40loPI   C1A  631  17.635   1.418   9.236  0.2446 -0.2388 -0.2954
   40loPI   C2A  632  17.463   1.278   8.888 -0.3561 -0.2103 -0.0233
   40loPI   C3A  633  17.309   1.286   8.438  0.0179 -0.0460  0.0426
   40loPI   C4A  634  17.252   1.063   7.985 -0.1384 -0.0638 -0.1124
   40loPI   C5A  635  17.304   0.689   7.696  0.1098  0.2433 -0.1588
   40loPI   C6A  636  17.329   0.432   7.357 -0.0687 -0.0650 -0.1605
   40loPI   C1B  637  17.699   2.136   9.515 -0.1574 -0.1951  0.0164
   40loPI   C2B  638  17.788   2.427   9.139  0.1677 -0.0210 -0.0825
   40loPI   C3B  639  17.889   2.703   8.833 -0.0637  0.2062  0.0412
   40loPI   C4B  640  18.275   2.741   8.759 -0.1250 -0.0823 -0.0413
   41loPI    C1  641  14.673   3.133  10.062 -0.0615  0.1306 -0.0452
   41loPI    C2  642  14.589   3.496  10.208 -0.0177  0.0279  0.2425
   41loPI    C3  643  14.669   3.194  10.458  0.0053 -0.1665  0.0036
   41loPI   PO4  644  14.544   3.120   9.912  0.1274  0.3271 -0.0625
   41loPI   GL1  645  14.226   3.189   9.624  0.2129  0.2912 -0.0161
   41loPI   GL2  646  13.932   3.030   9.429 -0.0161  0.1091  0.1393
   41loPI   C1A  647  14.327   3.422   9.162  0.4212 -0.2977  0.0232
   41loPI   C2A  648  14.598   3.408   8.709 -0.2386  0.2638 -0.2463
   41loPI   C3A  649  14.614   3.570   8.316  0.3804 -0.2402 -0.2545
   41loPI   C4A  650  14.634   3.470   7.948  0.0795  0.1838 -0.1624
   41loPI   C5A  651  14.544   3.526   7.524 -0.4018  0.0018  0.0452
   41loPI   C6A  652  14.462   3.590   7.130 -0.4168 -0.2959 -0.1360
   41loPI   C1B  653  13.928   3.013   9.013 -0.1120  0.1062  0.4072
   41loPI   C2B  654  14.021   2.887   8.669  0.2147 -0.4752 -0.1193
   41loPI   C3B  655  13.801   2.609   8.358 -0.3019 -0.0170 -0.4306
   41loPI   C4B  656  13.979   2.291   8.080 -0.2536  0.1133 -0.0554
   42loPI    C1  657   5.364   8.952   9.513  0.3284  0.1183 -0.0399
   42loPI    C2  658   5.473   8.962   9.898  0.3188 -0.2175 -0.0247
   42loPI    C3  659   5.174   8.724   9.782  0.2130  0.0044 -0.2163
   42loPI   PO4  660   5.567   8.822   9.364  0.1841 -0.1834  0.0690
   42loPI   GL1  661   5.699   8.517   8.956 -0.1055  0.0307  0.0122
   42loPI   GL2  662   5.985   8.724   9.174  0.2404 -0.1393  0.2080
   42loPI   C1A  663   5.712   8.823   8.625  0.1375 -0.1644  0.2345
   42loPI   C2A  664   5.849   9.051   8.233  0.1440 -0.0613 -0.2355
   42loPI   C3A  665   5.887   8.924   7.741 -0.0366 -0.1640 -0.0336
   42loPI   C4A  666   6.146   9.010   7.386 -0.1262 -0.1496 -0.0043
   42loPI   C5A  667   5.839   8.894   7.183  0.0389  0.1952 -0.0580
   42loPI   C6A  668   5.692   9.154   6.829 -0.1085 -0.0833 -0.3207
   42loPI   C1B  669   5.959   9.183   8.950 -0.0694 -0.0612 -0.1004
   42loPI   C2B  670   6.045   9.443   8.490 -0.4025  0.1062 -0.0025
   42loPI   C3B  671   5.990   9.609   8.070  0.1247 -0.1434  0.2739
   42loPI   C4B  672   5.810   9.751   7.629  0.0877  0.0334  0.1498
   43loPI    C1  673   3.823   9.244   9.687 -0.1630  0.0069  0.1784
   43loPI    C2  674   3.925   9.004   9.383 -0.1878  0.2891 -0.0572
   43loPI    C3  675   3.984   8.885   9.761 -0.1831 -0.0772 -0.1699
   43loPI   PO4  676   3.878   9.461   9.575  0.0842  0.1603  0.2602
   43loPI   GL1  677   3.602   9.490   9.195  0.0380 -0.0667 -0.0471
   43loPI   GL2  678   3.507   9.749   9.426  0.1895 -0.0512  0.0640
   43loPI   C1A  679   3.658   9.515   8.743 -0.1693  0.1399 -0.0666
   43loPI   C2A  680   3.848   9.493   8.277 -0.3096  0.1545  0.1075
   43loPI   C3A  681   3.733   9.609   7.831  0.3668  0.0898  0.1055
   43loPI   C4A  682   3.617   9.807   7.469 -0.0638 -0.0025  0.1513
   43loPI   C5A  683   3.568   9.878   7.039 -0.2515 -0.1078 -0.1916
   43loPI   C6A  684   3.437   9.896   6.570 -0.1328  0.1849 -0.1396
   43loPI   C1B  685   3.334   9.827   8.951 -0.1058 -0.0071  0.0810
   43loPI   C2B  686   3.382   9.999   8.623  0.0608  0.0868 -0.0415
   43loPI   C3B  687   3.401   9.931   8.171  0.1831 -0.0100  0.1878
   43loPI   C4B  688   3.428  10.171   7.763  0.0645  0.0603 -0.3536
   44loPI    C1  689  17.530  19.072  10.067  0.0054  0.2705  0.0715
   44loPI    C2  690  17.522  18.910  10.433 -0.0604  0.2816  0.0752
   44loPI    C3  691  17.608  19.298  10.388 -0.0954  0.2902  0.0824
   44loPI   PO4  692  17.438  18.957   9.905 -0.3599  0.1581 -0.1640
   44loPI   GL1  693  17.460  18.953   9.432 -0.0982  0.1500 -0.1774
   44loPI   GL2  694  17.757  18.970   9.405 -0.1494  0.1566  0.1013
   44loPI   C1A  695  17.435  18.848   8.993  0.1502 -0.0777 -0.1578
   44loPI   C2A  696  17.633  19.014   8.643 -0.3803  0.1330  0.1005
   44loPI   C3A  697  17.855  19.233   8.322  0.1607  0.0130 -0.0064
   44loPI   C4A  698  18.143  19.203   7.985  0.2158 -0.5320 -0.1274
   44loPI   C5A  699  18.433  19.147   7.638  0.0724 -0.2560  0.2123
   44loPI   C6A  700  18.719  19.120   7.344 -0.2485  0.0098  0.1598
   44loPI   C1B  701  17.900  19.259   9.216 -0.1580  0.2256 -0.0633
   44loPI   C2B  702  18.016  19.512   8.959  0.5486 -0.0967  0.1098
   44loPI   C3B  703  17.898  19.626   8.617  0.1058  0.1635 -0.1810
   44loPI   C4B  704  18.100  20.027   8.606  0.4167 -0.1846  0.0979
   45loPI    C1  705  10.709  13.619  10.606  0.2803  0.2251  0.1864
   45loPI    C2  706  10.765  13.602  11.002  0.0173  0.0514  0.2192
   45loPI    C3  707  10.400  13.670  10.854  0.0731 -0.1034  0.0039
   45loPI   PO4  708  10.980  13.471  10.516  0.1018 -0.0674  0.1771
   45loPI   GL1  709  11.197  13.380  10.085 -0.0413 -0.1190 -0.1706
   45loPI   GL2  710  11.535  13.447  10.227 -0.0719  0.1171  0.0310
   45loPI   C1A  711  11.210  13.335   9.656 -0.1310 -0.0717  0.0919
   45loPI   C2A  712  11.682  13.136   9.337  0.0517 -0.0663 -0.1705
   45loPI   C3A  713  11.719  13.054   8.924 -0.0027  0.3530  0.2787
   45loPI   C4A  714  11.893  12.859   8.553 -0.1299 -0.0156  0.1124
   45loPI   C5A  715  11.826  12.480   8.430 -0.0529 -0.1037 -0.2849
   45loPI   C6A  716  11.659  12.163   8.177 -0.2250  0.1188  0.0808
   45loPI   C1B  717  11.728  13.445   9.801 -0.3901  0.0380  0.1780
   45loPI   C2B  718  11.945  13.573   9.437  0.0205  0.0672 -0.0648
   45loPI   C3B  719  12.054  13.438   9.065 -0.0711  0.0628  0.2216
   45loPI   C4B  720  11.964  13.389   8.623  0.0355 -0.4226 -0.1613
   46loPI    C1  721   5.965  14.782  10.023  0.2942 -0.2390 -0.0505
   46loPI    C2  722   6.006  15.151   9.875  0.0585 -0.1463  0.1082
   46loPI    C3  723   5.972  15.097  10.269 -0.2839 -0.3013  0.0611
   46loPI   PO4  724   6.160  14.634   9.741  0.0773 -0.3468 -0.3233
   46loPI   GL1  725   6.247  14.526   9.302  0.3369 -0.2935  0.0575
   46loPI   GL2  726   5.869  14.564   9.240 -0.0558 -0.0058 -0.1600
   46loPI   C1A  727   6.405  14.330   8.911  0.1050 -0.3075  0.1556
   46loPI   C2A  728   6.483  14.058   8.617 -0.0290 -0.1338 -0.2466
   46loPI   C3A  729   6.339  14.117   8.288 -0.5452 -0.0555 -0.0014
   46loPI   C4A  730   6.439  14.313   7.863 -0.2183  0.0723  0.0222
   46loPI   C5A  731   6.728  14.678   7.752 -0.0562 -0.2053 -0.1957
   46loPI   C6A  732   7.006  14.678   7.449 -0.2039  0.0722 -0.2966
   46loPI   C1B  733   5.837  14.253   8.943 -0.1137  0.1828 -0.0385
   46loPI   C2B  734   5.852  14.249   8.481  0.0678  0.2587 -0.0955
   46loPI   C3B  735   5.782  14.187   8.002 -0.0872  0.2792 -0.1229
   46loPI   C4B  736   5.875  14.220   7.584  0.0536 -0.2199 -0.0844
   47loPI    C1  737  16.402  10.763  10.155 -0.2291  0.0896  0.1819
   47loPI    C2  738  16.532  10.406  10.277 -0.2704  0.0798  0.1974
   47loPI    C3  739  16.429  10.684  10.546 -0.3562  0.0602  0.1852
   47loPI   PO4  740  16.210  10.671   9.865  0.3113 -0.1743  0.1858
   47loPI   GL1  741  16.155  10.812   9.551  0.3280 -0.0206 -0.0267
   47loPI   GL2  742  16.329  10.655   9.282 -0.0214 -0.0090  0.2187
   47loPI   C1A  743  16.221  11.149   9.189  0.0546 -0.1246  0.0676
   47loPI   C2A  744  16.176  11.452   8.875  0.1616 -0.1891  0.1969
   47loPI   C3A  745  15.987  11.368   8.504  0.1602 -0.0401 -0.1248
   47loPI   C4A  746  15.779  11.352   8.159 -0.1268 -0.2872 -0.0605
   47loPI   C5A  747  15.826  11.380   7.743 -0.0057  0.2699  0.2323
   47loPI   C6A  748  16.029  11.483   7.286  0.2388  0.1316 -0.2430
   47loPI   C1B  749  16.493  10.747   8.974 -0.3756  0.0281 -0.0845
   47loPI   C2B  750  16.646  11.102   8.741  0.4598 -0.2774 -0.1040
   47loPI   C3B  751  16.447  11.318   8.394 -0.2375 -0.1533 -0.4529
   47loPI   C4B  752  16.284  11.487   8.020 -0.0940 -0.0433 -0.1132
   48loPI    C1  753   0.799  10.836   9.796 -0.0145  0.2784  0.1319
   48loPI    C2  754   1.185  10.881   9.893 -0.0223  0.0325  0.2860
   48loPI    C3  755   0.963  10.605  10.079 -0.2352  0.0708  0.0934
   48loPI   PO4  756   0.779  10.707   9.439 -0.1188  0.2464  0.0663
   48loPI   GL1  757   0.951  10.919   9.110  0.3718 -0.1398  0.3700
   48loPI   GL2  758   1.135  10.937   8.963 -0.0535  0.0261 -0.1682
   48loPI   C1A  759   0.617  11.124   8.839  0.0309  0.1565  0.0069
   48loPI   C2A  760   0.676  11.439   8.449 -0.1485 -0.0101 -0.2452
   48loPI   C3A  761   0.654  11.504   8.096  0.2411 -0.3296 -0.0401
   48loPI   C4A  762   0.784  11.584   7.733 -0.1666  0.2450  0.0612
   48loPI   C5A  763   0.713  11.390   7.294 -0.3696 -0.4942  0.3035
   48loPI   C6A  764   1.040  11.048   7.125 -0.1346  0.1251 -0.0809
   48loPI   C1B  765   1.086  11.074   8.498  0.0733  0.1409 -0.3295
   48loPI   C2B  766   1.165  11.080   8.021  0.0895 -0.1276  0.0202
   48loPI   C3B  767   1.304  11.342   7.669 -0.2284  0.1456 -0.1062
   48loPI   C4B  768   1.204  11.452   7.288 -0.0229  0.1919  0.2400
   49loPI    C1  769   6.906   3.802   9.451 -0.0491  0.0786 -0.2417
   49loPI    C2  770   7.012   3.521   9.715 -0.1101  0.0468 -0.2508
   49loPI    C3  771   6.960   3.899   9.835 -0.2586  0.0087 -0.1933
   49loPI   PO4  772   7.012   3.929   9.281  0.1625  0.1767  0.1665
   49loPI   GL1  773   6.803   4.226   9.079 -0.3071  0.0847  0.4413
   49loPI   GL2  774   7.112   4.340   8.991  0.2154  0.2118 -0.0166
   49loPI   C1A  775   6.599   4.094   8.610  0.1450 -0.3107 -0.0523
   49loPI   C2A  776   6.842   4.048   8.202 -0.0997 -0.2154  0.2005
   49loPI   C3A  777   7.010   4.098   7.830  0.0470 -0.1398  0.1594
   49loPI   C4A  778   6.950   3.885   7.413 -0.0762  0.1965 -0.0779
   49loPI   C5A  779   6.865   3.615   6.934 -0.2719 -0.0487 -0.0159
   49loPI   C6A  780   6.874   3.415   6.515 -0.0522 -0.0773 -0.2353
   49loPI   C1B  781   7.110   4.214   8.612  0.1034  0.2039 -0.0656
   49loPI   C2B  782   7.286   4.287   8.211 -0.1024  0.1082  0.0046
   49loPI   C3B  783   7.388   4.364   7.724  0.0772  0.3832  0.1420
   49loPI   C4B  784   7.504   4.568   7.298 -0.2847 -0.2269  0.2300
   50loPI    C1  785   4.865   2.590   9.931  0.0222 -0.0756 -0.2315
   50loPI    C2  786   5.098   2.273   9.858  0.1898 -0.0226  0.0590
   50loPI    C3  787   4.741   2.224  10.032  0.0985 -0.0765 -0.1405
   50loPI   PO4  788   4.895   2.728   9.702 -0.2060 -0.2162  0.1893
   50loPI   GL1  789   5.002   2.582   9.285 -0.1460  0.1071  0.3337
   50loPI   GL2  790   5.235   2.317   9.377  0.0651  0.0691  0.0821
   50loPI   C1A  791   5.045   2.652   8.814 -0.2012 -0.0510 -0.4714
   50loPI   C2A  792   5.055   2.639   8.406  0.0025  0.0127  0.1800
   50loPI   C3A  793   4.957   2.755   8.057  0.0040  0.0654 -0.0390
   50loPI   C4A  794   4.650   3.110   7.843  0.4196  0.0640  0.3834
   50loPI   C5A  795   4.786   3.264   7.424 -0.1569  0.1774  0.0128
   50loPI   C6A  796   5.038   3.575   7.234  0.0039  0.1397 -0.2251
   50loPI   C1B  797   5.341   2.224   8.879  0.1590 -0.3619 -0.2485
   50loPI   C2B  798   5.238   2.180   8.476 -0.1573  0.1221 -0.2607
   50loPI   C3B  799   5.201   2.158   8.058  0.2429 -0.4199 -0.1671
   50loPI   C4B  800   5.100   2.218   7.666 -0.1906 -0.0368 -0.0334
   51loPI    C1  801   5.268   4.974   9.337  0.1090 -0.0241 -0.1517
   51loPI    C2  802   5.466   4.684   9.145  0.4706 -0.0322  0.2169
   51loPI    C3  803   5.226   4.593   9.452 -0.0796 -0.0165 -0.1924
   51loPI   PO4  804   5.250   5.158   9.087  0.1183 -0.0261  0.2337
   51loPI   GL1  805   5.415   4.978   8.678 -0.3752  0.1026 -0.2100
   51loPI   GL2  806   5.574   4.680   8.590  0.3976 -0.3151 -0.0180
   51loPI   C1A  807   5.076   5.157   8.371  0.1221 -0.1433  0.1890
   51loPI   C2A  808   4.896   5.084   8.016  0.1167 -0.1358 -0.1557
   51loPI   C3A  809   4.676   5.059   7.689 -0.2203  0.1596 -0.0072
   51loPI   C4A  810   4.652   4.948   7.294 -0.0427 -0.1135 -0.1876
   51loPI   C5A  811   4.306   4.796   7.129 -0.1465 -0.0533 -0.0803
   51loPI   C6A  812   3.940   4.708   6.809  0.1054  0.0376  0.2590
   51loPI   C1B  813   5.391   4.736   8.235 -0.1348 -0.2309  0.0388
   51loPI   C2B  814   5.232   4.805   7.815 -0.1299 -0.0689  0.2618
   51loPI   C3B  815   5.202   4.791   7.350  0.0469 -0.1744 -0.0714
   51loPI   C4B  816   5.032   5.218   7.143  0.0683 -0.0607 -0.1781
   52loPI    C1  817   1.409   9.293   9.476 -0.1129  0.1597 -0.2469
   52loPI    C2  818   1.300   8.926   9.591 -0.0918  0.0794 -0.4771
   52loPI    C3  819   1.027   9.218   9.569 -0.0499  0.1644  0.0219
   52loPI   PO4  820   1.531   9.336   9.325  0.1691 -0.2437 -0.2713
   52loPI   GL1  821   1.625   9.359   8.970  0.4329 -0.3057  0.3547
   52loPI   GL2  822   1.565   9.061   8.854 -0.0721  0.1387 -0.2169
   52loPI   C1A  823   1.692   9.449   8.546 -0.0227 -0.0489  0.1573
   52loPI   C2A  824   1.879   9.371   8.060 -0.0535  0.1559  0.1520
   52loPI   C3A  825   1.878   9.490   7.622 -0.3003  0.1250 -0.0304
   52loPI   C4A  826   1.832   9.345   7.204  0.0719  0.3853 -0.2091
   52loPI   C5A  827   1.543   9.354   6.879  0.0092  0.1449  0.0787
   52loPI   C6A  828   1.278   9.323   6.488 -0.4102  0.1364  0.2005
   52loPI   C1B  829   1.272   9.219   8.648 -0.0232  0.1700 -0.2278
   52loPI   C2B  830   1.229   9.311   8.248  0.3327 -0.0793  0.2903
   52loPI   C3B  831   1.050   9.637   8.034  0.2617 -0.2339 -0.0397
   52loPI   C4B  832   0.704   9.572   7.674  0.1071 -0.0428  0.4419
   53loPI    C1  833   2.936   5.232   9.340  0.1406 -0.1047 -0.0407
   53loPI    C2  834   2.574   5.294   9.498  0.1467  0.2352 -0.1531
   53loPI    C3  835   2.853   5.097   9.707 -0.1103 -0.0565 -0.0782
   53loPI   PO4  836   2.912   5.334   9.120  0.0047  0.0526  0.0459
   53loPI   GL1  837   2.784   5.274   8.660  0.3739  0.6304  0.0984
   53loPI   GL2  838   2.609   5.366   8.387  0.0843 -0.1579  0.0234
   53loPI   C1A  839   2.960   4.918   8.538  0.1153  0.0381 -0.2452
   53loPI   C2A  840   2.998   4.706   8.172  0.2634 -0.1866  0.0303
   53loPI   C3A  841   2.870   4.633   7.866 -0.1029 -0.2252  0.0749
   53loPI   C4A  842   2.548   4.558   7.568 -0.1672  0.3779  0.4023
   53loPI   C5A  843   2.176   4.436   7.560 -0.0707  0.2152  0.3670
   53loPI   C6A  844   1.808   4.440   7.290  0.0487 -0.1318  0.1558
   53loPI   C1B  845   2.889   5.550   8.084  0.1477 -0.0170  0.0378
   53loPI   C2B  846   3.213   5.566   7.750 -0.4792 -0.0748 -0.1571
   53loPI   C3B  847   3.575   5.595   7.306  0.2035 -0.0066  0.5332
   53loPI   C4B  848   3.765   5.613   6.879 -0.0740  0.3628  0.2724
   54loPI    C1  849  15.068   7.060   9.760 -0.0015 -0.0160 -0.1808
   54loPI    C2  850  15.455   6.985   9.695  0.0526  0.3969 -0.3662
   54loPI    C3  851  15.175   6.754   9.526  0.2119 -0.1055  0.0300
   54loPI   PO4  852  15.024   7.300   9.660 -0.0279  0.1083 -0.0427
   54loPI   GL1  853  15.373   7.369   9.313 -0.1508  0.2310  0.0585
   54loPI   GL2  854  15.046   7.204   9.219  0.0487  0.1127 -0.1935
   54loPI   C1A  855  15.713   7.542   9.112 -0.0448 -0.1426  0.1682
   54loPI   C2A  856  16.035   7.606   8.797  0.1201  0.1024  0.0722
   54loPI   C3A  857  16.159   7.700   8.424  0.2140  0.1162 -0.2059
   54loPI   C4A  858  16.361   7.732   8.075 -0.1199 -0.2221 -0.0397
   54loPI   C5A  859  16.825   7.873   8.128  0.0199  0.1439 -0.1731
   54loPI   C6A  860  16.955   8.193   8.315  0.1612  0.1251 -0.2747
   54loPI   C1B  861  15.067   7.404   8.799 -0.2375 -0.2126  0.0878
   54loPI   C2B  862  14.732   7.419   8.454  0.0003  0.2513 -0.1229
   54loPI   C3B  863  14.732   7.448   8.062  0.2731  0.1455  0.1228
   54loPI   C4B  864  14.666   7.618   7.586  0.0443 -0.2354 -0.0634
   55loPI    C1  865  12.985   8.723   9.936  0.2387 -0.0967 -0.1041
   55loPI    C2  866  13.237   9.030   9.986  0.4331 -0.2553 -0.0962
   55loPI    C3  867  13.158   8.784  10.291 -0.1165  0.0771  0.0445
   55loPI   PO4  868  13.010   8.649   9.612  0.2453 -0.1687  0.1105
   55loPI   GL1  869  12.621   8.624   9.267  0.3426  0.2108 -0.0591
   55loPI   GL2  870  12.850   8.923   9.188 -0.2986  0.2208 -0.4659
   55loPI   C1A  871  12.625   8.504   8.806  0.1330  0.1509  0.2661
   55loPI   C2A  872  12.867   8.622   8.378 -0.2540  0.2488  0.0509
   55loPI   C3A  873  13.001   8.670   8.019  0.1115 -0.0085  0.1238
   55loPI   C4A  874  12.838   8.871   7.615 -0.0481  0.2307  0.1501
   55loPI   C5A  875  12.563   9.085   7.370 -0.1778 -0.1607  0.2894
   55loPI   C6A  876  12.386   9.414   7.316 -0.2041  0.1872 -0.2709
   55loPI   C1B  877  12.947   8.881   8.804  0.0133  0.1409  0.1089
   55loPI   C2B  878  13.118   9.049   8.411  0.2252  0.0979  0.2977
   55loPI   C3B  879  12.917   9.155   7.987  0.1400  0.1776 -0.3120
   55loPI   C4B  880  12.738   9.424   7.798 -0.0484  0.0545  0.0738
   56loPI    C1  881  17.650  16.631  10.113  0.0468 -0.0536  0.0605
   56loPI    C2  882  17.496  16.973   9.975  0.3095  0.0511  0.0215
   56loPI    C3  883  17.397  16.842  10.339 -0.1063 -0.0412 -0.1196
   56loPI   PO4  884  17.549  16.422   9.976  0.1824  0.1959  0.3180
   56loPI   GL1  885  17.528  16.672   9.527 -0.0324  0.1615  0.1258
   56loPI   GL2  886  17.418  16.416   9.457  0.1126  0.0035  0.3971
   56loPI   C1A  887  17.878  16.728   9.253 -0.2978  0.0824 -0.0300
   56loPI   C2A  888  17.949  16.786   8.849  0.3882 -0.1241  0.0940
   56loPI   C3A  889  17.820  16.585   8.515  0.1560 -0.3183  0.1026
   56loPI   C4A  890  17.627  16.693   8.186 -0.1019  0.4118 -0.2425
   56loPI   C5A  891  17.498  16.922   7.839  0.0788  0.3149  0.0546
   56loPI   C6A  892  17.408  16.795   7.328  0.2951  0.2092 -0.2199
   56loPI   C1B  893  17.325  16.616   9.044 -0.2246  0.1822 -0.0455
   56loPI   C2B  894  17.030  16.658   8.683  0.1356 -0.1146 -0.3189
   56loPI   C3B  895  16.775  16.546   8.319 -0.2829 -0.1367 -0.0127
   56loPI   C4B  896  16.712  16.190   8.006  0.2530 -0.2156  0.1170
   57loPI    C1  897  15.317   4.396  10.264 -0.0926 -0.1677 -0.0541
   57loPI    C2  898  15.083   4.712  10.195 -0.2402 -0.3634 -0.4822
   57loPI    C3  899  14.982   4.447  10.476 -0.0112  0.0653  0.0219
   57loPI   PO4  900  15.551   4.486  10.097 -0.0178  0.1630 -0.3233
   57loPI   GL1  901  15.623   4.423   9.671  0.3500 -0.0210  0.2308
   57loPI   GL2  902  15.643   4.763   9.728  0.0070  0.1359 -0.0043
   57loPI   C1A  903  15.539   4.227   9.304 -0.0176  0.0529 -0.1340
   57loPI   C2A  904  15.218   3.982   9.177 -0.0868  0.0551  0.0480
   57loPI   C3A  905  15.314   3.620   9.060  0.1897 -0.0744 -0.2887
   57loPI   C4A  906  15.376   3.813   8.609  0.0461 -0.0926  0.5137
   57loPI   C5A  907  15.114   3.816   8.278 -0.2688  0.2597 -0.1268
   57loPI   C6A  908  15.223   3.818   7.822  0.1003 -0.2383  0.0941
   57loPI   C1B  909  15.884   4.737   9.356  0.1619  0.3461 -0.0774
   57loPI   C2B  910  15.909   4.517   9.037  0.1092 -0.1753 -0.1520
   57loPI   C3B  911  15.963   4.569   8.536 -0.0085  0.2404 -0.1037
   57loPI   C4B  912  16.183   4.423   8.179 -0.0230  0.1254 -0.1984
   58loPI    C1  913  14.578   4.630   9.836  0.0958 -0.1036 -0.0277
   58loPI    C2  914  14.822   4.371  10.018  0.1588 -0.0444 -0.0277
   58loPI    C3  915  14.645   4.270   9.674  0.0916 -0.1314  0.0322
   58loPI   PO4  916  14.678   4.800   9.746 -0.0720 -0.3840  0.1128
   58loPI   GL1  917  14.778   4.897   9.385  0.1622  0.1112  0.2887
   58loPI   GL2  918  14.713   5.147   9.161  0.1345 -0.2803 -0.3104
   58loPI   C1A  919  15.043   4.968   8.834  0.0261 -0.3519 -0.1295
   58loPI   C2A  920  15.359   4.772   8.595 -0.0546  0.0649 -0.1023
   58loPI   C3A  921  15.637   4.782   8.198  0.0929 -0.1853  0.1604
   58loPI   C4A  922  16.050   4.954   8.170  0.3240  0.0958 -0.3131
   58loPI   C5A  923  16.356   5.012   8.526 -0.1042  0.1950  0.1253
   58loPI   C6A  924  16.243   4.814   8.838  0.2128  0.0523  0.1428
   58loPI   C1B  925  14.518   4.976   8.801  0.1534  0.2229  0.0511
   58loPI   C2B  926  14.280   4.835   8.454 -0.4069 -0.0822 -0.0872
   58loPI   C3B  927  14.414   4.609   8.144  0.0295  0.2500 -0.0739
   58loPI   C4B  928  14.448   4.628   7.755  0.0823 -0.2532 -0.1195
   59loPI    C1  929   0.342   5.840   9.975 -0.0784 -0.0850 -0.3213
   59loPI    C2  930   0.419   6.188   9.795  0.3513 -0.0713 -0.1251
   59loPI    C3  931   0.306   6.182  10.178 -0.0905 -0.1280 -0.2506
   59loPI   PO4  932   0.321   5.730   9.703  0.1363 -0.1815 -0.0230
   59loPI   GL1  933   0.276   6.019   9.314 -0.0234 -0.0291 -0.1650
   59loPI   GL2  934   0.408   5.682   9.146 -0.0254 -0.1434 -0.0681
   59loPI   C1A  935  -0.033   5.769   8.947  0.1636 -0.2822 -0.0684
   59loPI   C2A  936  -0.102   5.720   8.467 -0.1369  0.0681 -0.4814
   59loPI   C3A  937  -0.036   5.607   8.101  0.2849  0.0770  0.1080
   59loPI   C4A  938  -0.144   5.521   7.730 -0.1493  0.1518  0.0273
   59loPI   C5A  939   0.005   5.372   7.283 -0.0572  0.0916  0.0206
   59loPI   C6A  940   0.058   5.152   6.920  0.0136 -0.1988  0.1621
   59loPI   C1B  941   0.479   5.330   8.967 -0.3895 -0.0993 -0.1113
   59loPI   C2B  942   0.176   5.283   8.686  0.0292  0.0819 -0.0245
   59loPI   C3B  943   0.205   5.210   8.301  0.2137 -0.1590  0.1240
   59loPI   C4B  944   0.270   5.251   7.895  0.0025 -0.1047  0.3630
   60loPI    C1  945   6.002  11.388   9.684  0.1265 -0.0672  0.0627
   60loPI    C2  946   5.983  11.468  10.075  0.1628 -0.0531  0.0616
   60loPI    C3  947   5.936  11.762   9.808 -0.1775 -0.1145  0.0496
   60loPI   PO4  948   5.854  11.136   9.677 -0.2479 -0.0503  0.0894
   60loPI   GL1  949   5.855  10.894   9.280  0.3394  0.1957  0.0583
   60loPI   GL2  950   5.893  10.529   9.209  0.2613  0.0437 -0.0254
   60loPI   C1A  951   6.024  11.077   9.044  0.3217 -0.0383 -0.0951
   60loPI   C2A  952   5.944  11.048   8.616  0.2873 -0.1105 -0.2160
   60loPI   C3A  953   5.971  11.208   8.162  0.0676  0.0234 -0.0794
   60loPI   C4A  954   6.224  11.167   7.862  0.0280  0.0149 -0.0719
   60loPI   C5A  955   6.342  11.446   7.577 -0.0927  0.0982 -0.0091
   60loPI   C6A  956   6.358  11.637   7.242  0.1035 -0.3097  0.1733
   60loPI   C1B  957   5.778  10.571   8.802  0.2183  0.0906 -0.0241
   60loPI   C2B  958   5.957  10.534   8.449 -0.1074 -0.2055 -0.0363
   60loPI   C3B  959   6.038  10.700   7.928 -0.3525  0.2441  0.0663
   60loPI   C4B  960   6.477  10.704   7.789 -0.1185  0.1643 -0.1761
   61loPI    C1  961  17.108  19.076  10.362  0.1184  0.1213 -0.0041
   61loPI    C2  962  16.786  19.217  10.554  0.0412 -0.2348  0.1354
   61loPI    C3  963  17.150  19.261  10.714  0.0540  0.0769  0.0271
   61loPI   PO4  964  16.999  19.115  10.061 -0.0995 -0.0420  0.1961
   61loPI   GL1  965  16.671  19.128   9.765  0.1028  0.3659 -0.4176
   61loPI   GL2  966  16.904  18.921   9.599 -0.1784 -0.1419  0.3252
   61loPI   C1A  967  16.620  19.232   9.328  0.0449  0.0708  0.0598
   61loPI   C2A  968  16.451  19.204   8.864 -0.1300 -0.2215  0.0515
   61loPI   C3A  969  16.346  19.163   8.465  0.3843 -0.2120 -0.2475
   61loPI   C4A  970  16.188  18.844   8.053 -0.0799 -0.2469 -0.0255
   61loPI   C5A  971  16.459  18.735   7.664 -0.3473 -0.2888  0.0695
   61loPI   C6A  972  16.629  18.908   7.333  0.3735  0.0098  0.1608
   61loPI   C1B  973  16.679  18.778   9.260  0.3588 -0.0497 -0.2514
   61loPI   C2B  974  16.556  18.687   8.880  0.1659 -0.1302 -0.3703
   61loPI   C3B  975  16.407  18.683   8.460 -0.3209  0.0118  0.0692
   61loPI   C4B  976  16.303  18.421   8.160  0.1113  0.0561  0.2779
   62loPI    C1  977  17.729  14.823  10.194  0.1971  0.1262  0.0253
   62loPI    C2  978  17.757  14.557  10.491 -0.2404  0.1194  0.0674
   62loPI    C3  979  17.840  14.942  10.559  0.1197  0.0445  0.0758
   62loPI   PO4  980  17.419  14.655  10.111 -0.0179 -0.2434 -0.1868
   62loPI   GL1  981  17.481  14.669   9.680 -0.0327  0.0995  0.1069
   62loPI   GL2  982  17.421  15.011   9.598  0.2277  0.1467  0.0134
   62loPI   C1A  983  17.584  14.347   9.395  0.3152  0.3269  0.4986
   62loPI   C2A  984  17.702  14.289   8.945 -0.0095 -0.2297  0.1652
   62loPI   C3A  985  17.659  14.298   8.562  0.0394  0.1363 -0.0752
   62loPI   C4A  986  17.675  14.289   8.155  0.1419 -0.0120 -0.1942
   62loPI   C5A  987  17.763  14.375   7.794 -0.1335 -0.1346 -0.0595
   62loPI   C6A  988  17.907  14.633   7.508 -0.0356  0.4801  0.0833
   62loPI   C1B  989  17.676  14.842   9.205  0.0970 -0.0044  0.0075
   62loPI   C2B  990  17.771  14.787   8.831 -0.2388  0.2023 -0.2430
   62loPI   C3B  991  17.705  14.757   8.360  0.2459 -0.3855 -0.1708
   62loPI   C4B  992  17.416  14.764   7.920 -0.1808  0.1430  0.0679
   63loPI    C1  993  13.398   7.834   9.778 -0.0213 -0.1825  0.0894
   63loPI    C2  994  13.637   7.681  10.060  0.1179  0.2118  0.1913
   63loPI    C3  995  13.310   7.886  10.165 -0.1603 -0.1506  0.0539
   63loPI   PO4  996  13.399   7.553   9.580  0.0508  0.0847 -0.0991
   63loPI   GL1  997  13.227   7.432   9.282  0.0519 -0.2135  0.0123
   63loPI   GL2  998  13.090   7.163   9.239 -0.2883  0.1761  0.2303
   63loPI   C1A  999  13.319   7.334   8.754  0.0728  0.3165 -0.0689
   63loPI   C2A 1000  13.421   7.228   8.287  0.0508  0.3316 -0.0663
   63loPI   C3A 1001  13.561   7.437   7.885 -0.1590  0.0467 -0.1294
   63loPI   C4A 1002  13.493   7.296   7.529  0.2100  0.1330 -0.1815
   63loPI   C5A 1003  13.079   7.210   7.539  0.0705 -0.0564 -0.0470
   63loPI   C6A 1004  12.703   7.364   7.681 -0.0775  0.0754 -0.0431
   63loPI   C1B 1005  12.987   6.966   8.806 -0.2104 -0.0367  0.1369
   63loPI   C2B 1006  12.863   7.031   8.334 -0.1116  0.1726 -0.3259
   63loPI   C3B 1007  13.053   7.011   7.968 -0.0026  0.3070 -0.0419
   63loPI   C4B 1008  13.156   6.714   7.658  0.0457 -0.0186 -0.3538
   64loPI    C1 1009   5.301   5.807   9.262 -0.0372 -0.0830 -0.0324
   64loPI    C2 1010   5.334   6.198   9.339 -0.0373 -0.0875 -0.0096
   64loPI    C3 1011   5.530   5.932   9.565  0.0733 -0.0932 -0.1108
   64loPI   PO4 1012   5.148   5.695   9.123 -0.3613 -0.1459 -0.0059
   64loPI   GL1 1013   5.023   5.888   8.753  0.0690  0.0034 -0.0590
   64loPI   GL2 1014   4.691   5.948   8.768 -0.0739 -0.4925  0.2609
   64loPI   C1A 1015   5.099   5.951   8.392 -0.4539  0.3707  0.4297
   64loPI   C2A 1016   5.140   5.813   8.038  0.1821  0.2529 -0.1664
   64loPI   C3A 1017   5.126   5.458   7.787 -0.0097  0.0355  0.2067
   64loPI   C4A 1018   5.357   5.253   7.542  0.3439 -0.0023  0.0590
   64loPI   C5A 1019   5.764   5.339   7.340  0.1682  0.2156 -0.3327
   64loPI   C6A 1020   6.108   5.138   7.204  0.3169  0.1957  0.3168
   64loPI   C1B 1021   4.563   6.101   8.361  0.1035 -0.0842  0.0515
   64loPI   C2B 1022   4.848   6.297   8.074  0.0403 -0.0562  0.0592
   64loPI   C3B 1023   5.034   6.224   7.711  0.1535  0.2610  0.2099
   64loPI   C4B 1024   5.056   6.250   7.302 -0.2108  0.0054  0.1844
   65loPI    C1 1025  16.607   1.615  10.374 -0.0937  0.2866  0.0975
   65loPI    C2 1026  16.920   1.636  10.126 -0.2955  0.1869 -0.1709
   65loPI    C3 1027  16.851   1.932  10.387  0.1315  0.1178  0.0288
   65loPI   PO4 1028  16.471   1.457  10.197 -0.0074 -0.1391  0.1152
   65loPI   GL1 1029  16.387   1.254   9.786  0.0558  0.2519  0.0217
   65loPI   GL2 1030  16.516   1.639   9.751 -0.0187  0.1366  0.2847
   65loPI   C1A 1031  16.182   0.943   9.512 -0.2020 -0.0322 -0.0335
   65loPI   C2A 1032  16.003   0.802   9.135 -0.0307 -0.3186  0.2403
   65loPI   C3A 1033  16.092   0.834   8.748  0.0630  0.2072  0.0858
   65loPI   C4A 1034  16.248   0.849   8.319  0.1826 -0.2164 -0.1689
   65loPI   C5A 1035  16.320   1.137   8.010 -0.1257 -0.3516 -0.3057
   65loPI   C6A 1036  16.352   1.166   7.644 -0.0942  0.1290  0.3453
   65loPI   C1B 1037  16.234   1.548   9.363 -0.1366  0.1528  0.1569
   65loPI   C2B 1038  16.274   1.298   9.010 -0.2431  0.3697  0.0441
   65loPI   C3B 1039  16.299   1.337   8.638 -0.0426  0.2842 -0.0406
   65loPI   C4B 1040  16.387   1.503   8.331  0.1321 -0.3199  0.0972
   66loPI    C1 1041  17.875  17.992   9.907 -0.1338  0.0488  0.0009
   66loPI    C2 1042  17.697  17.831  10.227 -0.0523  0.3275  0.1901
   66loPI    C3 1043  17.976  18.114  10.274  0.2896  0.0503 -0.1113
   66loPI   PO4 1044  17.717  18.161   9.814 -0.2444 -0.3624  0.2924
   66loPI   GL1 1045  17.630  18.488   9.465  0.0230 -0.3864  0.3179
   66loPI   GL2 1046  17.298  18.542   9.701 -0.2564  0.0753  0.0268
   66loPI   C1A 1047  17.557  18.347   9.070 -0.0678 -0.0428  0.1109
   66loPI   C2A 1048  17.411  18.470   8.634  0.2897  0.2098  0.4814
   66loPI   C3A 1049  17.234  18.440   8.238 -0.2492 -0.2150  0.2482
   66loPI   C4A 1050  17.307  18.594   7.867 -0.3607 -0.0537 -0.1351
   66loPI   C5A 1051  17.136  18.976   7.657  0.0399  0.2480 -0.2662
   66loPI   C6A 1052  16.944  19.422   7.625  0.0208  0.2237 -0.0427
   66loPI   C1B 1053  17.105  18.591   9.340 -0.1305 -0.0162 -0.0319
   66loPI   C2B 1054  17.028  18.559   8.939 -0.1304  0.1451 -0.2498
   66loPI   C3B 1055  16.896  18.589   8.565 -0.2545 -0.0154  0.3453
   66loPI   C4B 1056  16.817  18.657   8.083  0.1536 -0.0854  0.2553
   67loPI    C1 1057  16.550   9.106   9.663  0.1705  0.1860 -0.2542
   67loPI    C2 1058  16.285   9.382   9.547  0.1393  0.1198 -0.3417
   67loPI    C3 1059  16.197   8.993   9.513  0.0269  0.0963  0.1393
   67loPI   PO4 1060  16.776   9.229   9.511  0.2049  0.2542 -0.1170
   67loPI   GL1 1061  17.146   9.099   9.296  0.2959 -0.1949 -0.0602
   67loPI   GL2 1062  17.347   9.309   9.386  0.1320  0.2685 -0.3695
   67loPI   C1A 1063  17.315   8.918   8.849 -0.2749 -0.0400  0.0917
   67loPI   C2A 1064  17.628   8.727   8.456 -0.1240 -0.0879 -0.1898
   67loPI   C3A 1065  17.617   8.828   8.042  0.1686 -0.0777  0.0475
   67loPI   C4A 1066  17.946   8.845   7.726 -0.2724  0.1916 -0.1111
   67loPI   C5A 1067  18.459   8.797   7.856 -0.1705  0.0627  0.1767
   67loPI   C6A 1068  18.799   8.451   7.983  0.0262  0.0065  0.1783
   67loPI   C1B 1069  17.568   9.736   9.373 -0.1835 -0.0452 -0.1204
   67loPI   C2B 1070  17.358   9.852   9.045  0.2215 -0.0006  0.1813
   67loPI   C3B 1071  17.086   9.936   8.779 -0.1435  0.1361  0.0608
   67loPI   C4B 1072  17.140  10.215   8.351  0.3161  0.0230  0.1905
   68loPI    C1 1073   0.321   2.053   9.835 -0.1995  0.1746 -0.1417
   68loPI    C2 1074  -0.035   2.100  10.010  0.0281  0.0409  0.3748
   68loPI    C3 1075   0.121   1.734   9.970 -0.0566  0.0587 -0.2009
   68loPI   PO4 1076   0.308   2.257   9.695 -0.0008  0.0762  0.0572
   68loPI   GL1 1077   0.364   2.296   9.276 -0.1598  0.1066 -0.0998
   68loPI   GL2 1078   0.612   2.021   9.143 -0.2573  0.3065  0.2003
   68loPI   C1A 1079   0.165   2.547   8.981 -0.2138 -0.1834  0.0368
   68loPI   C2A 1080   0.198   2.776   8.610 -0.1081  0.0204 -0.3423
   68loPI   C3A 1081   0.317   2.909   8.231 -0.1078  0.0158 -0.3255
   68loPI   C4A 1082   0.161   3.023   7.876  0.2469  0.1706  0.0194
   68loPI   C5A 1083   0.326   3.219   7.584  0.1294  0.1744  0.3608
   68loPI   C6A 1084   0.554   3.415   7.288 -0.2191 -0.1287  0.2314
   68loPI   C1B 1085   0.335   2.019   8.864 -0.2051  0.0616 -0.0979
   68loPI   C2B 1086   0.050   2.074   8.567 -0.1003 -0.3363  0.0585
   68loPI   C3B 1087  -0.163   2.170   8.218  0.2864  0.2522  0.2417
   68loPI   C4B 1088  -0.034   2.548   8.030 -0.3774  0.3854 -0.4807
   69loPI    C1 1089   2.332   7.142   9.343  0.0364 -0.1644 -0.0365
   69loPI    C2 1090   2.201   7.037   8.979  0.1142 -0.1973 -0.0551
   69loPI    C3 1091   1.946   7.050   9.287 -0.0090  0.0953 -0.1661
   69loPI   PO4 1092   2.628   7.132   9.213  0.1173  0.2172 -0.3275
   69loPI   GL1 1093   2.788   6.961   8.844  0.4328  0.1155  0.2899
   69loPI   GL2 1094   2.987   6.836   8.876 -0.3188  0.0776  0.1187
   69loPI   C1A 1095   2.693   6.726   8.491 -0.0334  0.1199  0.2531
   69loPI   C2A 1096   2.770   6.866   8.089 -0.0778  0.0918 -0.0370
   69loPI   C3A 1097   2.707   6.980   7.677  0.0923  0.1624 -0.0267
   69loPI   C4A 1098   2.751   7.017   7.330 -0.0623 -0.0727 -0.0023
   69loPI   C5A 1099   2.784   7.177   6.887  0.1152 -0.1024  0.1285
   69loPI   C6A 1100   2.920   7.112   6.399 -0.0208  0.0199 -0.2109
   69loPI   C1B 1101   3.258   6.944   8.561  0.1603 -0.0376 -0.3465
   69loPI   C2B 1102   3.268   7.034   8.142 -0.2264 -0.1242  0.0440
   69loPI   C3B 1103   3.219   7.201   7.806 -0.1878 -0.0278  0.0597
   69loPI   C4B 1104   3.278   7.155   7.315 -0.0662 -0.1059 -0.0635
   70loPI    C1 1105  12.505   8.600   9.729 -0.1746  0.0652  0.1394
   70loPI    C2 1106  12.152   8.456   9.852 -0.1430  0.0731  0.2399
   70loPI    C3 1107  12.492   8.286   9.978 -0.1136 -0.0601 -0.0139
   70loPI   PO4 1108  12.472   8.856   9.759 -0.0990 -0.3560  0.0729
   70loPI   GL1 1109  12.362   9.062   9.415 -0.7066 -0.2228  0.2565
   70loPI   GL2 1110  12.021   9.048   9.563 -0.1567  0.2024  0.1613
   70loPI   C1A 1111  12.300   8.823   8.957 -0.3905 -0.5164  0.1250
   70loPI   C2A 1112  12.017   8.745   8.593  0.1362  0.1747  0.1238
   70loPI   C3A 1113  12.030   8.415   8.242 -0.1730  0.0119  0.0488
   70loPI   C4A 1114  11.629   8.384   7.926  0.0853  0.0272 -0.1041
   70loPI   C5A 1115  11.582   8.025   7.678 -0.2586 -0.0840  0.4721
   70loPI   C6A 1116  11.491   7.986   7.288  0.0995  0.0285 -0.2132
   70loPI   C1B 1117  12.117   9.473   9.437  0.1315 -0.2573  0.1646
   70loPI   C2B 1118  12.259   9.599   9.067 -0.0801  0.1387 -0.0322
   70loPI   C3B 1119  12.398   9.730   8.630  0.0627 -0.0528  0.1208
   70loPI   C4B 1120  12.332  10.038   8.431 -0.1887 -0.2662  0.4066
   71loPI    C1 1121   6.236   0.874   9.947 -0.1117 -0.0241  0.0847
   71loPI    C2 1122   6.312   1.079  10.281  0.0094  0.0528  0.0109
   71loPI    C3 1123   5.982   1.158  10.069 -0.0284  0.0570  0.0709
   71loPI   PO4 1124   6.402   0.926   9.744 -0.2547  0.4599  0.1302
   71loPI   GL1 1125   6.308   1.117   9.393  0.0227  0.0573 -0.0893
   71loPI   GL2 1126   6.147   1.441   9.363 -0.3165 -0.1480  0.5787
   71loPI   C1A 1127   6.430   1.108   9.069 -0.0139 -0.1571  0.0214
   71loPI   C2A 1128   6.434   1.289   8.696 -0.1195 -0.3262 -0.0156
   71loPI   C3A 1129   6.299   1.100   8.285 -0.2597  0.0678  0.3478
   71loPI   C4A 1130   6.196   1.325   7.817 -0.1817  0.2450  0.2310
   71loPI   C5A 1131   6.457   1.471   7.404 -0.0194 -0.1780 -0.2418
   71loPI   C6A 1132   6.823   1.636   7.083 -0.0254  0.0244  0.0552
   71loPI   C1B 1133   6.010   1.358   8.996  0.2335 -0.0078 -0.0487
   71loPI   C2B 1134   5.932   1.439   8.603  0.0009  0.1685  0.3149
   71loPI   C3B 1135   6.096   1.594   8.224  0.0831 -0.1860 -0.0207
   71loPI   C4B 1136   6.133   1.849   7.806  0.1993  0.0276  0.1183
   72loPI    C1 1137   2.028   5.007   9.624 -0.1131 -0.0684 -0.1260
   72loPI    C2 1138   1.631   4.971   9.586 -0.1211 -0.0784 -0.0357
   72loPI    C3 1139   1.819   4.795   9.892 -0.0072 -0.3279 -0.2456
   72loPI   PO4 1140   2.136   5.099   9.347 -0.3435 -0.1643  0.2695
   72loPI   GL1 1141   2.210   4.703   9.032 -0.1247  0.0252 -0.0591
   72loPI   GL2 1142   2.135   4.932   8.815 -0.2418  0.0460 -0.0720
   72loPI   C1A 1143   2.410   4.537   8.673  0.0130  0.3571  0.3961
   72loPI   C2A 1144   2.621   4.231   8.376 -0.0336 -0.1817  0.1371
   72loPI   C3A 1145   2.711   4.152   7.960  0.1802  0.1470 -0.3000
   72loPI   C4A 1146   2.573   4.039   7.485  0.2172 -0.1660 -0.2286
   72loPI   C5A 1147   2.703   4.287   7.165  0.2665 -0.0895  0.2600
   72loPI   C6A 1148   2.954   4.657   6.845  0.0637 -0.0421 -0.1531
   72loPI   C1B 1149   2.218   4.960   8.478  0.3823 -0.0349 -0.1245
   72loPI   C2B 1150   2.062   5.201   8.088 -0.3644 -0.1047  0.0870
   72loPI   C3B 1151   1.855   5.296   7.706  0.2558 -0.1005 -0.0201
   72loPI   C4B 1152   1.801   5.524   7.299 -0.0621  0.0661  0.0333
   73loPI    C1 1153   1.184   9.723   9.615 -0.1461  0.0321 -0.0842
   73loPI    C2 1154   1.548   9.792   9.464 -0.1292  0.3346  0.0876
   73loPI    C3 1155   1.509   9.653   9.837 -0.1853  0.0928 -0.0070
   73loPI   PO4 1156   1.046   9.708   9.339  0.0737 -0.1909 -0.1281
   73loPI   GL1 1157   0.991   9.562   8.984  0.3206 -0.1767 -0.0876
   73loPI   GL2 1158   0.864   9.907   8.909 -0.2699  0.0802  0.1597
   73loPI   C1A 1159   1.240   9.693   8.619  0.2345  0.1979  0.1361
   73loPI   C2A 1160   1.493   9.790   8.227 -0.0513  0.0891  0.4172
   73loPI   C3A 1161   1.501   9.699   7.814  0.1332  0.1618  0.1453
   73loPI   C4A 1162   1.219   9.422   7.625  0.2724 -0.0606  0.1523
   73loPI   C5A 1163   1.122   9.370   7.188  0.2031 -0.0089 -0.3132
   73loPI   C6A 1164   0.879   9.253   6.748  0.0078  0.4277  0.2743
   73loPI   C1B 1165   0.927  10.072   8.456  0.3878  0.1403  0.2421
   73loPI   C2B 1166   1.034  10.109   8.128  0.1620 -0.3244  0.1255
   73loPI   C3B 1167   0.830  10.041   7.784 -0.4868 -0.3233 -0.1660
   73loPI   C4B 1168   0.885   9.894   7.325  0.0825 -0.0125  0.0241
   74loPI    C1 1169   9.823  15.715  10.130  0.1609  0.1701  0.1778
   74loPI    C2 1170  10.032  16.056  10.140  0.0113  0.2748 -0.1451
   74loPI    C3 1171   9.679  16.033  10.325  0.0377  0.2835 -0.0936
   74loPI   PO4 1172   9.825  15.628   9.902  0.0962  0.1382 -0.2394
   74loPI   GL1 1173   9.883  15.559   9.512 -0.0635 -0.0007 -0.1031
   74loPI   GL2 1174   9.764  15.302   9.339 -0.1144 -0.0177 -0.0500
   74loPI   C1A 1175  10.145  15.535   9.158 -0.2682  0.0060  0.0986
   74loPI   C2A 1176  10.562  15.548   8.879 -0.2139 -0.1491 -0.0824
   74loPI   C3A 1177  10.743  15.252   8.651  0.1071 -0.2948  0.0458
   74loPI   C4A 1178  11.099  15.021   8.403 -0.3462  0.0192  0.1949
   74loPI   C5A 1179  11.242  14.721   8.302 -0.0378 -0.0928  0.1263
   74loPI   C6A 1180  11.253  14.327   7.982 -0.0118  0.0807  0.0589
   74loPI   C1B 1181   9.762  15.358   8.898 -0.0516 -0.0313  0.1681
   74loPI   C2B 1182   9.707  15.256   8.438  0.1248 -0.1299 -0.0738
   74loPI   C3B 1183   9.778  15.377   8.042 -0.2222  0.1616 -0.1373
   74loPI   C4B 1184   9.769  15.297   7.598  0.0957  0.1949  0.2885
   75loPI    C1 1185   4.392  11.204  10.091  0.1602  0.0738 -0.0856
   75loPI    C2 1186   4.293  10.835  10.209 -0.2052  0.0700 -0.3853
   75loPI    C3 1187   4.309  11.133  10.476 -0.0179 -0.1365 -0.1610
   75loPI   PO4 1188   4.580  11.192   9.887  0.1566 -0.1978  0.1387
   75loPI   GL1 1189   4.835  11.027   9.532  0.0124 -0.0227 -0.1613
   75loPI   GL2 1190   4.931  11.342   9.300 -0.1180 -0.2380 -0.5093
   75loPI   C1A 1191   4.975  10.824   9.183  0.2114  0.1664 -0.0126
   75loPI   C2A 1192   4.947  10.938   8.664 -0.0401  0.0028  0.1467
   75loPI   C3A 1193   5.016  11.166   8.255 -0.1363  0.1762 -0.0999
   75loPI   C4A 1194   5.118  11.106   7.789  0.2227  0.0413  0.0771
   75loPI   C5A 1195   5.026  10.994   7.326  0.0461  0.2942  0.2524
   75loPI   C6A 1196   4.845  10.752   6.936 -0.2412 -0.0092 -0.0184
   75loPI   C1B 1197   5.061  11.253   8.972  0.2886  0.2863 -0.0528
   75loPI   C2B 1198   5.234  11.339   8.646  0.4782  0.1639  0.2863
   75loPI   C3B 1199   5.305  11.594   8.390 -0.1766  0.2783 -0.0715
   75loPI   C4B 1200   5.696  11.634   8.065  0.3823  0.0624 -0.0076
   76loPI    C1 1201   4.889  14.351   9.563 -0.0448  0.0017 -0.0197
   76loPI    C2 1202   4.662  14.126   9.803 -0.0997 -0.0461 -0.1158
   76loPI    C3 1203   4.885  14.420   9.957  0.1792 -0.3367  0.0457
   76loPI   PO4 1204   4.940  14.133   9.397 -0.2522  0.1689  0.0164
   76loPI   GL1 1205   4.989  14.297   8.934 -0.2480 -0.0638 -0.0102
   76loPI   GL2 1206   4.807  13.975   8.944  0.4071 -0.0899 -0.1887
   76loPI   C1A 1207   4.996  14.090   8.507 -0.1271  0.3199 -0.1014
   76loPI   C2A 1208   5.107  14.001   8.096 -0.1953  0.0329 -0.1967
   76loPI   C3A 1209   5.332  14.021   7.775 -0.2443  0.2038  0.3761
   76loPI   C4A 1210   5.443  14.063   7.287 -0.0180 -0.1608 -0.2550
   76loPI   C5A 1211   5.260  14.073   6.970  0.2717 -0.1631  0.0334
   76loPI   C6A 1212   4.778  14.336   6.969 -0.2352 -0.0148  0.0567
   76loPI   C1B 1213   4.470  14.053   8.684  0.0391  0.2752 -0.0695
   76loPI   C2B 1214   4.550  14.092   8.232  0.1849  0.1310 -0.0045
   76loPI   C3B 1215   4.776  13.947   7.792  0.1820 -0.0964  0.0310
   76loPI   C4B 1216   4.958  14.154   7.396  0.0566 -0.1432  0.2804
   77loPI    C1 1217   0.204  10.862   9.816  0.1245 -0.1641  0.0298
   77loPI    C2 1218  -0.144  10.784   9.634  0.0981  0.0040  0.0074
   77loPI    C3 1219   0.043  10.496   9.838  0.0673 -0.1537 -0.1838
   77loPI   PO4 1220   0.333  11.012   9.724 -0.2142  0.0839 -0.1124
   77loPI   GL1 1221   0.250  11.066   9.318 -0.0494  0.1277  0.4284
   77loPI   GL2 1222   0.605  11.222   9.390  0.0933  0.1513  0.1488
   77loPI   C1A 1223   0.191  10.781   8.920  0.2157  0.0358 -0.1236
   77loPI   C2A 1224  -0.071  10.914   8.459 -0.2270 -0.1329 -0.0859
   77loPI   C3A 1225  -0.253  10.915   8.046  0.0293  0.0348 -0.2994
   77loPI   C4A 1226  -0.227  10.781   7.557  0.3149  0.1385  0.1577
   77loPI   C5A 1227  -0.038  10.391   7.440  0.0923  0.0604  0.0533
   77loPI   C6A 1228   0.076  10.139   7.098  0.2146 -0.0218 -0.0257
   77loPI   C1B 1229   0.398  11.537   9.182 -0.0408  0.1118 -0.1007
   77loPI   C2B 1230   0.459  11.816   8.741 -0.0446  0.0260  0.2222
   77loPI   C3B 1231   0.331  11.831   8.364  0.1871 -0.0978  0.2153
   77loPI   C4B 1232   0.085  11.683   7.998  0.0465 -0.1856 -0.2245
   78loPI    C1 1233   1.683  19.066   9.518 -0.0372  0.0090 -0.0760
   78loPI    C2 1234   1.856  18.777   9.303  0.0280  0.1687 -0.2403
   78loPI    C3 1235   1.901  18.784   9.700 -0.1330 -0.1553 -0.2134
   78loPI   PO4 1236   1.776  19.297   9.302 -0.1007 -0.0078 -0.1714
   78loPI   GL1 1237   1.898  19.734   9.092  0.4278  0.0998 -0.0125
   78loPI   GL2 1238   1.579  19.785   9.081  0.0101 -0.1467  0.0655
   78loPI   C1A 1239   2.205  19.852   8.730  0.1959  0.2125 -0.4336
   78loPI   C2A 1240   2.381  19.909   8.407 -0.0241 -0.1548  0.1244
   78loPI   C3A 1241   2.514  20.190   8.076  0.0352 -0.0163  0.0262
   78loPI   C4A 1242   2.777  20.348   7.702 -0.1872  0.2376 -0.3016
   78loPI   C5A 1243   3.127  20.254   7.310  0.0365 -0.1636  0.2305
   78loPI   C6A 1244   3.396  20.587   7.148  0.0497 -0.1555 -0.0383
   78loPI   C1B 1245   1.549  19.701   8.616  0.1497 -0.1989 -0.0362
   78loPI   C2B 1246   1.300  19.841   8.232  0.3882  0.0853 -0.0953
   78loPI   C3B 1247   1.261  20.286   8.041 -0.3343  0.1298 -0.1071
   78loPI   C4B 1248   1.210  20.594   7.697  0.2456  0.1417 -0.2129
   79loPI    C1 1249   7.589   3.410   9.823 -0.0743  0.0055  0.3448
   79loPI    C2 1250   7.304   3.482  10.094 -0.0329 -0.1925  0.4428
   79loPI    C3 1251   7.679   3.413  10.213  0.0956  0.2421  0.3058
   79loPI   PO4 1252   7.612   3.275   9.720 -0.0608  0.2302  0.0370
   79loPI   GL1 1253   7.285   3.106   9.411 -0.3904  0.0670 -0.0230
   79loPI   GL2 1254   6.922   3.193   9.331  0.1358 -0.0162  0.0480
   79loPI   C1A 1255   7.389   3.060   9.052  0.1170  0.1889 -0.1459
   79loPI   C2A 1256   7.334   2.975   8.573  0.0209 -0.3946 -0.0020
   79loPI   C3A 1257   7.100   2.878   8.219 -0.1920  0.1079 -0.2269
   79loPI   C4A 1258   6.963   2.766   7.849  0.0028 -0.0305 -0.1820
   79loPI   C5A 1259   6.750   2.629   7.538 -0.0155 -0.0257  0.1684
   79loPI   C6A 1260   6.828   2.323   7.252  0.2199  0.1807  0.1886
   79loPI   C1B 1261   6.996   3.268   8.877 -0.1974 -0.3016 -0.2424
   79loPI   C2B 1262   6.846   3.189   8.514 -0.1955 -0.3199  0.0844
   79loPI   C3B 1263   6.877   3.324   8.065  0.2645 -0.1078  0.1875
   79loPI   C4B 1264   6.989   3.557   7.870 -0.2255 -0.1319 -0.0299
   80loPI    C1 1265   8.989   0.480  10.408  0.1599 -0.0413  0.0764
   80loPI    C2 1266   8.624   0.482  10.571  0.1037  0.0124 -0.0484
   80loPI    C3 1267   8.948   0.448  10.804  0.0172 -0.0893  0.0580
   80loPI   PO4 1268   9.005   0.655  10.216 -0.0037  0.3036 -0.0908
   80loPI   GL1 1269   8.902   0.874   9.713 -0.2076  0.2155  0.0414
   80loPI   GL2 1270   8.607   0.805   9.622  0.0820 -0.0100  0.0611
   80loPI   C1A 1271   8.800   1.094   9.261  0.0821  0.0424  0.0416
   80loPI   C2A 1272   8.550   1.014   8.961  0.0982 -0.2945 -0.2282
   80loPI   C3A 1273   8.317   1.289   8.683  0.0382 -0.1747  0.1205
   80loPI   C4A 1274   8.184   1.359   8.260 -0.0721 -0.0089  0.0092
   80loPI   C5A 1275   7.990   1.622   7.934 -0.1030 -0.1946  0.3124
   80loPI   C6A 1276   8.081   1.986   7.942  0.0519 -0.3136 -0.0184
   80loPI   C1B 1277   8.268   0.900   9.352  0.2769  0.0796 -0.1715
   80loPI   C2B 1278   8.144   0.726   8.884 -0.1660 -0.0657 -0.2138
   80loPI   C3B 1279   7.927   0.513   8.568  0.1655  0.0232 -0.0395
   80loPI   C4B 1280   7.906   0.490   8.143 -0.0710 -0.0999 -0.0618
   81loPI    C1 1281  13.796  16.897  10.579  0.0086  0.0795  0.0270
   81loPI    C2 1282  14.022  17.221  10.642 -0.0141  0.0896  0.0564
   81loPI    C3 1283  13.762  17.102  10.921  0.0875 -0.0301  0.1010
   81loPI   PO4 1284  13.693  16.975  10.378 -0.1351  0.1428  0.2996
   81loPI   GL1 1285  13.815  17.199  10.034  0.0644  0.2122  0.1936
   81loPI   GL2 1286  13.965  17.388  10.160 -0.0365  0.2036  0.2258
   81loPI   C1A 1287  13.966  17.171   9.545  0.2730 -0.0324 -0.2766
   81loPI   C2A 1288  14.135  17.239   9.014  0.1676 -0.2619 -0.1863
   81loPI   C3A 1289  14.319  17.321   8.605 -0.0861 -0.0190  0.0414
   81loPI   C4A 1290  14.466  17.520   8.190  0.2153 -0.1126  0.1244
   81loPI   C5A 1291  14.516  17.837   7.928  0.1107  0.0541  0.1457
   81loPI   C6A 1292  14.599  18.347   7.910  0.1569 -0.2220 -0.0160
   81loPI   C1B 1293  14.261  17.448   9.876  0.0442  0.3527 -0.1386
   81loPI   C2B 1294  14.355  17.521   9.536 -0.3257 -0.1397  0.3197
   81loPI   C3B 1295  14.506  17.578   9.142  0.0353 -0.1775 -0.3641
   81loPI   C4B 1296  14.638  17.652   8.776 -0.1069  0.0533  0.1393
   82loPI    C1 1297  17.068  16.774   9.949  0.0397  0.0948 -0.0251
   82loPI    C2 1298  16.738  16.999   9.959 -0.1642 -0.1980 -0.0070
   82loPI    C3 1299  16.905  16.873  10.300 -0.0319 -0.0522 -0.0162
   82loPI   PO4 1300  16.986  16.527   9.819 -0.0249  0.1025  0.0959
   82loPI   GL1 1301  16.814  16.303   9.475 -0.0455 -0.0750 -0.1862
   82loPI   GL2 1302  17.032  16.164   9.333  0.1864  0.0384  0.0623
   82loPI   C1A 1303  16.743  16.569   9.225 -0.0291 -0.0192  0.1937
   82loPI   C2A 1304  16.572  16.725   8.881 -0.0775 -0.3388 -0.0632
   82loPI   C3A 1305  16.262  16.825   8.657 -0.0136 -0.2861 -0.0554
   82loPI   C4A 1306  15.862  16.924   8.544 -0.0393  0.2068 -0.1739
   82loPI   C5A 1307  15.635  17.270   8.420 -0.2304  0.4028  0.1568
   82loPI   C6A 1308  15.688  17.596   8.135 -0.1557  0.1089 -0.0776
   82loPI   C1B 1309  16.892  16.234   8.918 -0.1417 -0.0107  0.0660
   82loPI   C2B 1310  16.889  16.103   8.472  0.2205  0.2843 -0.4250
   82loPI   C3B 1311  16.669  15.804   8.352  0.2608 -0.1536  0.1557
   82loPI   C4B 1312  16.380  15.528   8.436  0.2268  0.0704  0.1941
   83loPI    C1 1313  15.490   8.633   9.946  0.0269  0.1567 -0.0702
   83loPI    C2 1314  15.151   8.838  10.001  0.0841  0.2308  0.0076
   83loPI    C3 1315  15.322   8.648  10.309 -0.0486 -0.0596 -0.0943
   83loPI   PO4 1316  15.533   8.795   9.610 -0.1016  0.0948  0.2064
   83loPI   GL1 1317  15.520   8.770   9.232  0.2489  0.0381  0.3206
   83loPI   GL2 1318  15.216   8.674   9.238  0.1371 -0.0596 -0.1858
   83loPI   C1A 1319  15.769   8.412   9.033 -0.0192 -0.0809  0.2732
   83loPI   C2A 1320  15.960   8.130   8.679 -0.1956 -0.0077  0.1390
   83loPI   C3A 1321  16.028   8.148   8.345  0.2462 -0.2502 -0.1277
   83loPI   C4A 1322  15.977   8.344   8.017  0.4132  0.1487 -0.1287
   83loPI   C5A 1323  15.978   8.303   7.616  0.2331  0.1895 -0.0204
   83loPI   C6A 1324  16.115   8.583   7.236 -0.0259  0.2091  0.4757
   83loPI   C1B 1325  15.348   8.457   8.854 -0.2636  0.3412  0.1151
   83loPI   C2B 1326  15.484   8.209   8.596 -0.2573 -0.1541  0.1527
   83loPI   C3B 1327  15.644   7.776   8.514 -0.1390  0.1126  0.0311
   83loPI   C4B 1328  15.550   7.380   8.666  0.0109  0.1575  0.1620
   84loPI    C1 1329  12.522   9.970   9.906  0.0173  0.0857 -0.0614
   84loPI    C2 1330  12.274   9.723  10.099  0.0087  0.0014 -0.1795
   84loPI    C3 1331  12.641   9.790  10.243 -0.0658  0.0916 -0.0286
   84loPI   PO4 1332  12.571   9.893   9.675 -0.1367  0.2896  0.4209
   84loPI   GL1 1333  12.613  10.075   9.323  0.2078  0.3674 -0.1208
   84loPI   GL2 1334  12.897   9.926   9.303 -0.2810 -0.1567 -0.2800
   84loPI   C1A 1335  12.352  10.154   8.912 -0.0649 -0.0864 -0.0787
   84loPI   C2A 1336  12.350  10.488   8.561  0.2692  0.1952  0.0467
   84loPI   C3A 1337  12.227  10.667   8.127  0.0324 -0.2632  0.1380
   84loPI   C4A 1338  12.369  10.619   7.714  0.2212  0.0469 -0.0816
   84loPI   C5A 1339  12.458  10.388   7.349 -0.0267  0.0029 -0.0400
   84loPI   C6A 1340  12.890  10.327   7.129 -0.0962 -0.1796  0.0580
   84loPI   C1B 1341  12.875   9.940   8.820  0.1384 -0.1768  0.1053
   84loPI   C2B 1342  12.870  10.013   8.406  0.2873  0.0383 -0.0687
   84loPI   C3B 1343  12.705   9.880   8.041  0.1185  0.3819  0.2895
   84loPI   C4B 1344  12.397  10.124   7.822  0.2092 -0.1558 -0.2040
   85loPI    C1 1345  14.134   9.055   9.798 -0.0960 -0.1528 -0.0950
   85loPI    C2 1346  14.365   8.831  10.035  0.2599  0.3868  0.0891
   85loPI    C3 1347  14.031   8.998  10.180 -0.0131 -0.0201 -0.0520
   85loPI   PO4 1348  14.055   9.003   9.611  0.3334 -0.1526 -0.0943
   85loPI   GL1 1349  14.126   9.176   9.259 -0.4372  0.1236  0.0085
   85loPI   GL2 1350  14.329   9.035   9.089 -0.3078  0.0297 -0.1886
   85loPI   C1A 1351  13.773   8.967   8.984 -0.3135 -0.0694  0.1579
   85loPI   C2A 1352  13.397   8.737   8.846  0.1657  0.3814  0.1636
   85loPI   C3A 1353  13.293   8.432   8.443  0.2191 -0.0800 -0.1271
   85loPI   C4A 1354  13.399   8.343   8.042 -0.3445  0.4899 -0.1674
   85loPI   C5A 1355  13.362   8.571   7.653 -0.0950  0.1370  0.2873
   85loPI   C6A 1356  13.748   8.853   7.641 -0.1114  0.1557  0.1381
   85loPI   C1B 1357  14.560   9.341   8.896 -0.2229  0.4335  0.2389
   85loPI   C2B 1358  14.553   9.446   8.482  0.1503 -0.0307  0.0974
   85loPI   C3B 1359  14.179   9.418   8.132  0.0130 -0.1718 -0.1400
   85loPI   C4B 1360  14.132   9.194   7.787 -0.0689 -0.1963 -0.0289
   86loPI    C1 1361  10.731   7.085   9.600 -0.1043  0.0459  0.1322
   86loPI    C2 1362  10.639   7.472   9.636 -0.0591  0.0423  0.2941
   86loPI    C3 1363  10.819   7.281   9.937 -0.0260 -0.0896  0.1914
   86loPI   PO4 1364  10.623   7.015   9.351  0.2318 -0.0565  0.1586
   86loPI   GL1 1365  10.565   6.730   9.028  0.1782  0.5472 -0.1749
   86loPI   GL2 1366  10.767   6.947   8.890 -0.0933 -0.2333 -0.1339
   86loPI   C1A 1367  10.581   6.456   8.733  0.2428  0.1816 -0.3414
   86loPI   C2A 1368  10.440   6.319   8.433 -0.1133 -0.1695 -0.1992
   86loPI   C3A 1369  10.115   6.346   8.218  0.1999 -0.2725 -0.1090
   86loPI   C4A 1370  10.226   6.168   7.860 -0.3129 -0.0984 -0.1742
   86loPI   C5A 1371  10.000   6.048   7.564 -0.2210  0.1897  0.1392
   86loPI   C6A 1372   9.841   6.084   7.194 -0.0415  0.1629  0.2826
   86loPI   C1B 1373  10.783   6.861   8.493 -0.3799  0.3725 -0.0657
   86loPI   C2B 1374  10.959   6.742   8.116  0.2367  0.2183 -0.0840
   86loPI   C3B 1375  10.880   6.799   7.639  0.0808 -0.0597 -0.2995
   86loPI   C4B 1376  10.838   6.586   7.206 -0.1714 -0.1388  0.1748
   87loPI    C1 1377  13.292  17.393  10.240  0.0130 -0.3153 -0.0370
   87loPI    C2 1378  13.288  17.201  10.591  0.4209 -0.1150  0.0842
   87loPI    C3 1379  13.594  17.442  10.498  0.1155  0.1622 -0.2351
   87loPI   PO4 1380  13.069  17.355  10.172  0.2068 -0.2759  0.1719
   87loPI   GL1 1381  12.962  17.173   9.798  0.0324 -0.0421 -0.0013
   87loPI   GL2 1382  12.947  17.481   9.652 -0.1222  0.0119  0.1320
   87loPI   C1A 1383  13.026  16.838   9.495  0.2797  0.1172 -0.1747
   87loPI   C2A 1384  13.151  16.698   9.140 -0.1723  0.5281 -0.1227
   87loPI   C3A 1385  13.214  16.376   8.818 -0.1290 -0.1540  0.1586
   87loPI   C4A 1386  12.821  16.057   8.746  0.0481  0.0465  0.0978
   87loPI   C5A 1387  12.611  15.977   8.415 -0.1808  0.1482  0.0770
   87loPI   C6A 1388  12.528  15.899   8.011 -0.1697 -0.1955  0.0957
   87loPI   C1B 1389  12.757  17.330   9.298 -0.3655  0.1029 -0.1151
   87loPI   C2B 1390  12.803  17.033   9.062 -0.3089 -0.4175  0.2620
   87loPI   C3B 1391  12.773  16.688   8.739 -0.2207  0.0340  0.2887
   87loPI   C4B 1392  12.966  16.381   8.393 -0.4379 -0.2187 -0.1041
   88loPI    C1 1393  14.985  12.194   9.944  0.2865 -0.1103 -0.0617
   88loPI    C2 1394  15.016  11.912  10.226  0.2191  0.1316  0.1927
   88loPI    C3 1395  15.311  12.177  10.176  0.2224  0.1013  0.0466
   88loPI   PO4 1396  14.730  12.304  10.006  0.0249 -0.4664 -0.0794
   88loPI   GL1 1397  14.747  12.600   9.739 -0.0304 -0.0965 -0.2725
   88loPI   GL2 1398  15.049  12.707   9.824  0.2634 -0.1738  0.0397
   88loPI   C1A 1399  14.765  12.898   9.411  0.2097 -0.1994 -0.1186
   88loPI   C2A 1400  14.709  13.201   9.070  0.0712 -0.3410  0.2868
   88loPI   C3A 1401  14.748  13.132   8.614 -0.3353  0.0034  0.0364
   88loPI   C4A 1402  14.971  12.838   8.334  0.0330  0.4222 -0.2478
   88loPI   C5A 1403  14.998  12.370   8.288  0.2616 -0.1129 -0.1549
   88loPI   C6A 1404  14.750  11.986   8.580  0.2021 -0.1297  0.1921
   88loPI   C1B 1405  15.142  12.548   9.429 -0.1773 -0.0296  0.2977
   88loPI   C2B 1406  15.030  12.773   9.060 -0.2385 -0.1683  0.3426
   88loPI   C3B 1407  15.246  13.070   8.794 -0.0136 -0.0977  0.0646
   88loPI   C4B 1408  15.396  13.037   8.407 -0.1243 -0.1962  0.2404
   89loPI    C1 1409  12.632   3.896   9.936 -0.0090  0.0042  0.0507
   89loPI    C2 1410  12.764   4.070  10.271 -0.3991  0.0990  0.1605
   89loPI    C3 1411  12.657   3.684  10.274  0.3593 -0.1316 -0.0563
   89loPI   PO4 1412  12.735   4.047   9.763 -0.2525 -0.2241 -0.0483
   89loPI   GL1 1413  12.581   4.055   9.345 -0.0555 -0.2967  0.1316
   89loPI   GL2 1414  12.330   4.159   9.114 -0.0527 -0.2604 -0.1257
   89loPI   C1A 1415  12.899   3.865   9.137  0.1763  0.0251  0.2756
   89loPI   C2A 1416  13.259   3.676   8.807 -0.0401  0.1031  0.0242
   89loPI   C3A 1417  13.457   3.731   8.457 -0.1082 -0.1387 -0.2161
   89loPI   C4A 1418  13.629   3.479   8.015  0.1070  0.1352 -0.2088
   89loPI   C5A 1419  13.916   3.113   8.162 -0.1630 -0.0120  0.3628
   89loPI   C6A 1420  14.045   2.748   7.988  0.0963 -0.1110  0.0560
   89loPI   C1B 1421  12.052   4.115   8.808  0.1813 -0.1968 -0.1854
   89loPI   C2B 1422  11.858   4.265   8.395 -0.1369 -0.1572 -0.3848
   89loPI   C3B 1423  11.851   4.541   8.009 -0.1640  0.0183 -0.2879
   89loPI   C4B 1424  11.753   4.495   7.584  0.3499  0.1816  0.0843
   90loPI    C1 1425   2.537  15.770   9.456 -0.0113  0.0864  0.1035
   90loPI    C2 1426   2.499  15.373   9.427  0.1930  0.0776 -0.0693
   90loPI    C3 1427   2.495  15.548   9.787  0.0085 -0.0695  0.0022
   90loPI   PO4 1428   2.646  15.780   9.100  0.2075 -0.0065 -0.2238
   90loPI   GL1 1429   2.456  15.981   8.724 -0.3136  0.4859 -0.3255
   90loPI   GL2 1430   2.366  16.320   8.789 -0.1503 -0.0957  0.0908
   90loPI   C1A 1431   2.635  15.756   8.369 -0.0744 -0.0084  0.4452
   90loPI   C2A 1432   2.572  15.640   7.859 -0.0666 -0.3378 -0.0953
   90loPI   C3A 1433   2.576  15.778   7.465 -0.0899  0.3939 -0.0347
   90loPI   C4A 1434   2.404  15.372   7.134  0.0642 -0.0451  0.0681
   90loPI   C5A 1435   2.086  15.046   7.247 -0.0803 -0.1460 -0.0239
   90loPI   C6A 1436   1.757  15.002   7.379  0.1040  0.2312  0.1154
   90loPI   C1B 1437   2.107  16.179   8.473  0.0819  0.3660  0.1395
   90loPI   C2B 1438   2.169  15.961   8.095  0.0181 -0.0284  0.2678
   90loPI   C3B 1439   2.099  15.822   7.733  0.0900 -0.1371  0.0554
   90loPI   C4B 1440   2.242  15.401   7.613  0.3053  0.2434  0.0776
   91loPI    C1 1441  13.350   2.455   9.986  0.1614  0.1528 -0.4460
   91loPI    C2 1442  13.666   2.559  10.208  0.1163 -0.1563 -0.2318
   91loPI    C3 1443  13.300   2.688  10.307  0.1081 -0.2210 -0.1761
   91loPI   PO4 1444  13.487   2.253   9.832 -0.1744 -0.4172  0.2219
   91loPI   GL1 1445  13.566   2.223   9.360  0.3211 -0.1474  0.0812
   91loPI   GL2 1446  13.319   2.381   9.316  0.0463 -0.1148  0.0178
   91loPI   C1A 1447  13.698   2.052   8.949 -0.0946  0.0606  0.2882
   91loPI   C2A 1448  13.893   2.064   8.535 -0.0638 -0.1316 -0.0957
   91loPI   C3A 1449  13.570   2.043   8.221  0.2402  0.3764 -0.2598
   91loPI   C4A 1450  13.706   1.942   7.876 -0.0380  0.1221 -0.1643
   91loPI   C5A 1451  14.061   1.992   7.615 -0.2686  0.3288  0.2139
   91loPI   C6A 1452  14.493   2.112   7.508 -0.2165  0.0242  0.2866
   91loPI   C1B 1453  13.172   2.110   9.010  0.1503  0.3531 -0.1419
   91loPI   C2B 1454  13.255   1.959   8.607 -0.1545  0.1291 -0.1989
   91loPI   C3B 1455  13.092   2.052   8.155 -0.0352  0.0690  0.1255
   91loPI   C4B 1456  12.881   1.869   7.735  0.1034 -0.0046 -0.0517
   92loPI    C1 1457   8.709   8.003   9.756 -0.1012  0.0158 -0.1350
   92loPI    C2 1458   9.090   7.953   9.865 -0.0537  0.0794 -0.2688
   92loPI    C3 1459   8.813   7.688   9.980  0.0498 -0.0284 -0.2654
   92loPI   PO4 1460   8.620   7.843   9.565  0.3693 -0.1325 -0.2034
   92loPI   GL1 1461   8.587   7.646   9.221  0.1810 -0.0667 -0.1323
   92loPI   GL2 1462   8.911   7.941   9.177 -0.1907  0.2670 -0.2634
   92loPI   C1A 1463   8.505   7.705   8.824 -0.0393  0.2885 -0.0470
   92loPI   C2A 1464   8.510   7.887   8.459  0.1023 -0.3340  0.0045
   92loPI   C3A 1465   8.615   7.912   8.110 -0.2227  0.1421 -0.0010
   92loPI   C4A 1466   8.599   8.203   7.757  0.1748  0.2578 -0.1811
   92loPI   C5A 1467   8.677   8.446   7.398 -0.1034 -0.1393  0.2495
   92loPI   C6A 1468   8.597   8.529   7.027  0.0283  0.2929 -0.1089
   92loPI   C1B 1469   8.990   7.604   8.802 -0.1451  0.1904  0.0618
   92loPI   C2B 1470   8.863   7.537   8.409  0.3478 -0.4856 -0.0773
   92loPI   C3B 1471   8.988   7.323   8.059  0.2229 -0.2068 -0.4710
   92loPI   C4B 1472   8.842   7.150   7.649  0.0193  0.1231  0.1271
   93loPI    C1 1473  17.088  13.203  10.466 -0.1648 -0.3083 -0.0520
   93loPI    C2 1474  16.931  13.101  10.820 -0.0688  0.0436  0.0956
   93loPI    C3 1475  17.277  13.303  10.804  0.1397 -0.3253 -0.2140
   93loPI   PO4 1476  16.921  13.289  10.313  0.0322  0.0338 -0.2954
   93loPI   GL1 1477  17.002  13.335   9.901  0.2108 -0.3207  0.0500
   93loPI   GL2 1478  16.665  13.518   9.790 -0.0498  0.1152 -0.1348
   93loPI   C1A 1479  16.971  13.245   9.463 -0.4345 -0.3066  0.1054
   93loPI   C2A 1480  16.739  13.222   9.001 -0.1475  0.0330 -0.0692
   93loPI   C3A 1481  16.696  13.117   8.618  0.2272 -0.3129  0.0470
   93loPI   C4A 1482  16.762  13.127   8.192 -0.0187 -0.1208 -0.3135
   93loPI   C5A 1483  16.778  12.961   7.871 -0.1991  0.0659  0.1688
   93loPI   C6A 1484  16.985  13.061   7.463 -0.3421  0.3382 -0.1269
   93loPI   C1B 1485  16.607  13.540   9.351  0.1332  0.1449 -0.2707
   93loPI   C2B 1486  16.288  13.422   8.995 -0.2116  0.0957 -0.0989
   93loPI   C3B 1487  15.928  13.383   8.617 -0.0689  0.5255 -0.5324
   93loPI   C4B 1488  15.667  13.423   8.251 -0.3272  0.0851  0.3703
   94loPI    C1 1489  11.577  11.504  10.258 -0.1187  0.0628  0.0199
   94loPI    C2 1490  11.808  11.185  10.330 -0.3280 -0.1042 -0.0386
   94loPI    C3 1491  11.965  11.511  10.159 -0.0935 -0.1432  0.0980
   94loPI   PO4 1492  11.349  11.365  10.073  0.3431 -0.0059  0.1232
   94loPI   GL1 1493  11.106  11.070   9.785 -0.1098 -0.1965 -0.0096
   94loPI   GL2 1494  10.835  11.067   9.609  0.0170 -0.0213  0.1426
   94loPI   C1A 1495  11.269  11.218   9.353 -0.2124  0.1640  0.0683
   94loPI   C2A 1496  11.144  11.182   8.965 -0.1422  0.1043 -0.0732
   94loPI   C3A 1497  11.196  11.313   8.515  0.2287 -0.0737 -0.2045
   94loPI   C4A 1498  11.276  11.162   8.100 -0.2308 -0.1612  0.2028
   94loPI   C5A 1499  11.447  10.871   7.783  0.0091 -0.0073  0.2758
   94loPI   C6A 1500  11.548  10.966   7.532 -0.2364  0.1622 -0.0787
   94loPI   C1B 1501  10.827  10.845   9.163  0.0126  0.0301  0.2720
   94loPI   C2B 1502  10.692  10.674   8.674 -0.0907  0.1089  0.0133
   94loPI   C3B 1503  10.866  10.830   8.338  0.1283  0.1189  0.1578
   94loPI   C4B 1504  10.940  10.528   7.911  0.0934  0.2668  0.0435
   95loPI    C1 1505  18.724  13.380   9.729  0.0879  0.1918  0.2039
   95loPI    C2 1506  19.081  13.351   9.552 -0.0429 -0.0510 -0.0256
   95loPI    C3 1507  18.874  13.693   9.531  0.1983  0.1091  0.1565
   95loPI   PO4 1508  18.649  13.160   9.643 -0.0253 -0.0521  0.1240
   95loPI   GL1 1509  18.708  13.053   9.235 -0.0486  0.0094  0.2087
   95loPI   GL2 1510  18.863  13.358   9.062  0.0017  0.1605  0.1139
   95loPI   C1A 1511  18.533  12.982   8.725  0.0267  0.0286 -0.0161
   95loPI   C2A 1512  18.362  12.926   8.327  0.1104 -0.0186  0.2071
   95loPI   C3A 1513  18.163  12.844   7.903  0.0433  0.1384 -0.1397
   95loPI   C4A 1514  18.090  12.552   7.803  0.2580  0.0597 -0.3900
   95loPI   C5A 1515  17.802  12.246   7.741  0.0604  0.1939 -0.2311
   95loPI   C6A 1516  18.073  11.858   7.747  0.0814  0.2079 -0.5072
   95loPI   C1B 1517  18.619  13.524   8.813 -0.0960 -0.1742  0.0945
   95loPI   C2B 1518  18.369  13.393   8.547 -0.5240  0.1109  0.2426
   95loPI   C3B 1519  18.192  13.530   8.123 -0.0807  0.2420  0.0650
   95loPI   C4B 1520  17.860  13.430   7.717  0.2500  0.0531 -0.1829
   96loPI    C1 1521   6.923   2.512  10.114  0.1425  0.3567  0.0592
   96loPI    C2 1522   6.965   2.396  10.495  0.0747  0.2026  0.0208
   96loPI    C3 1523   6.600   2.438  10.338  0.1044  0.0461 -0.0926
   96loPI   PO4 1524   7.118   2.445   9.981 -0.1305 -0.0815 -0.1508
   96loPI   GL1 1525   7.349   2.683   9.613  0.1301  0.0328 -0.1185
   96loPI   GL2 1526   7.593   2.731   9.796 -0.1225 -0.3705  0.2850
   96loPI   C1A 1527   7.221   2.585   9.253 -0.0198  0.2800 -0.1092
   96loPI   C2A 1528   7.157   2.362   8.801  0.8420 -0.0320  0.4169
   96loPI   C3A 1529   7.396   2.447   8.456  0.1864  0.0702 -0.1097
   96loPI   C4A 1530   7.264   2.368   8.021  0.1994 -0.2380  0.1589
   96loPI   C5A 1531   6.946   2.237   7.771 -0.4214 -0.1573 -0.2749
   96loPI   C6A 1532   6.546   2.219   7.745  0.4502 -0.1095  0.0362
   96loPI   C1B 1533   7.689   2.759   9.317  0.2510  0.0181 -0.1519
   96loPI   C2B 1534   7.590   2.620   8.885  0.2698 -0.0860  0.0148
   96loPI   C3B 1535   7.762   2.785   8.371 -0.0558  0.2279 -0.1039
   96loPI   C4B 1536   7.685   2.734   7.905 -0.4504 -0.0909 -0.1055
   97loPI    C1 1537   5.297   3.363   9.435 -0.0169  0.0967  0.1452
   97loPI    C2 1538   5.534   3.269   9.744 -0.1138  0.0803  0.2149
   97loPI    C3 1539   5.283   3.579   9.772 -0.0296  0.1594  0.1048
   97loPI   PO4 1540   5.265   3.064   9.318  0.3291  0.1259  0.1835
   97loPI   GL1 1541   5.435   2.760   9.038  0.4124  0.1109 -0.0466
   97loPI   GL2 1542   5.725   2.515   9.107 -0.3676 -0.1677 -0.0057
   97loPI   C1A 1543   5.504   2.580   8.569  0.3010  0.4755 -0.1713
   97loPI   C2A 1544   5.458   2.589   8.141  0.0178  0.1634  0.1255
   97loPI   C3A 1545   5.481   2.541   7.698  0.1036 -0.0357  0.3637
   97loPI   C4A 1546   5.349   2.529   7.228 -0.1733 -0.0259  0.1259
   97loPI   C5A 1547   5.318   2.871   7.127  0.1400  0.0555 -0.3160
   97loPI   C6A 1548   5.415   3.319   7.259  0.1300  0.2726  0.0758
   97loPI   C1B 1549   5.883   3.006   8.877 -0.0386 -0.0144 -0.0968
   97loPI   C2B 1550   6.059   3.264   8.605  0.1188 -0.1364  0.2254
   97loPI   C3B 1551   6.034   3.226   8.183 -0.2184 -0.0142 -0.0586
   97loPI   C4B 1552   6.104   3.169   7.704  0.4885 -0.0332 -0.1452
   98loPI    C1 1553  13.256   9.758   9.557  0.1598  0.0950 -0.0173
   98loPI    C2 1554  13.646   9.791   9.638  0.1169  0.2274  0.1409
   98loPI    C3 1555  13.376   9.845   9.928 -0.0092 -0.2131  0.1134
   98loPI   PO4 1556  13.195   9.542   9.507  0.2187 -0.1313  0.2452
   98loPI   GL1 1557  12.980   9.437   9.194  0.4583  0.0175 -0.0304
   98loPI   GL2 1558  12.689   9.394   9.241  0.0532 -0.1869 -0.3614
   98loPI   C1A 1559  13.042   9.520   8.760  0.0734  0.2315  0.0848
   98loPI   C2A 1560  12.920   9.512   8.377 -0.3167 -0.1212  0.0154
   98loPI   C3A 1561  12.485   9.478   8.192 -0.0381  0.0994 -0.0754
   98loPI   C4A 1562  12.191   9.367   7.821  0.0837  0.2641 -0.0884
   98loPI   C5A 1563  11.792   9.322   7.711  0.1918 -0.1768  0.1957
   98loPI   C6A 1564  11.689   9.048   7.266  0.0239 -0.0583  0.3082
   98loPI   C1B 1565  12.587   9.276   8.882  0.0429 -0.0191 -0.0033
   98loPI   C2B 1566  12.531   8.986   8.545 -0.0106 -0.2081 -0.1659
   98loPI   C3B 1567  12.439   8.917   8.076  0.2000  0.0784  0.2939
   98loPI   C4B 1568  12.412   8.727   7.735 -0.4137  0.3075  0.1828
   99loPI    C1 1569  13.591  10.480  10.208 -0.3377  0.1294 -0.1163
   99loPI    C2 1570  13.452  10.168  10.416  0.1651  0.0624  0.1370
   99loPI    C3 1571  13.446  10.534  10.576 -0.1424  0.1385 -0.0394
   99loPI   PO4 1572  13.399  10.405   9.994 -0.0304  0.1008 -0.0961
   99loPI   GL1 1573  13.284  10.265   9.548  0.2325 -0.0407 -0.1013
   99loPI   GL2 1574  13.009  10.247   9.690  0.3191 -0.3308  0.2681
   99loPI   C1A 1575  13.308  10.296   9.193  0.2286 -0.0220 -0.0101
   99loPI   C2A 1576  13.299  10.195   8.771  0.0954  0.0723 -0.0933
   99loPI   C3A 1577  13.320  10.295   8.281 -0.2272  0.0499 -0.1456
   99loPI   C4A 1578  13.155  10.253   7.949 -0.0588  0.2140  0.2218
   99loPI   C5A 1579  12.831  10.333   7.647 -0.0855 -0.1526  0.2749
   99loPI   C6A 1580  12.764   9.976   7.487 -0.1387  0.0109 -0.0540
   99loPI   C1B 1581  12.917  10.500   9.320  0.1125  0.0680 -0.4541
   99loPI   C2B 1582  12.733  10.448   8.876  0.0971  0.0559 -0.0314
   99loPI   C3B 1583  12.895  10.499   8.476 -0.1112  0.2247 -0.1135
   99loPI   C4B 1584  12.773  10.537   8.085  0.1753  0.4223 -0.3161
  100loPI    C1 1585   0.322  19.114   9.929 -0.0014  0.0991 -0.1659
  100loPI    C2 1586   0.142  18.902  10.217  0.5847 -0.0402  0.1121
  100loPI    C3 1587   0.165  19.301  10.245  0.1250  0.0027 -0.0449
  100loPI   PO4 1588   0.199  19.098   9.606  0.3743  0.0224 -0.2953
  100loPI   GL1 1589  -0.083  19.195   9.289 -0.0686  0.3287 -0.1270
  100loPI   GL2 1590  -0.447  19.086   9.308 -0.0169 -0.0384  0.3627
  100loPI   C1A 1591  -0.241  19.164   8.869 -0.3166 -0.0580  0.0777
  100loPI   C2A 1592  -0.424  19.105   8.432  0.0793  0.0255 -0.1951
  100loPI   C3A 1593  -0.524  19.007   8.061 -0.2378 -0.1116 -0.5329
  100loPI   C4A 1594  -0.222  18.992   7.779  0.2114 -0.0198  0.1910
  100loPI   C5A 1595   0.173  18.899   7.851  0.0171  0.1189 -0.0853
  100loPI   C6A 1596   0.429  18.569   8.007 -0.1632  0.1557  0.1955
  100loPI   C1B 1597  -0.846  19.041   9.103  0.1342 -0.0370  0.1488
  100loPI   C2B 1598  -0.998  19.068   8.731  0.0390 -0.0618  0.3056
  100loPI   C3B 1599  -0.934  18.838   8.309  0.0772  0.1340  0.0637
  100loPI   C4B 1600  -0.988  18.723   7.857 -0.1285 -0.0249  0.1505
  101loPI    C1 1601  10.378   2.637  10.020 -0.0289 -0.0256 -0.2489
  101loPI    C2 1602  10.196   2.352  10.233  0.2815 -0.0782 -0.0481
  101loPI    C3 1603  10.594   2.349  10.193  0.3031  0.3990  0.0670
  101loPI   PO4 1604  10.227   2.719   9.866  0.0045  0.2354 -0.3728
  101loPI   GL1 1605  10.017   2.470   9.573 -0.0371 -0.0289 -0.1798
  101loPI   GL2 1606   9.783   2.641   9.616  0.0648  0.0219 -0.2262
  101loPI   C1A 1607   9.813   2.273   9.182  0.0861 -0.0945 -0.2067
  101loPI   C2A 1608   9.600   2.143   8.857 -0.0181 -0.3493  0.3419
  101loPI   C3A 1609   9.349   1.726   8.733  0.1469  0.1052  0.2283
  101loPI   C4A 1610   9.046   1.359   8.840 -0.0732 -0.2479  0.2615
  101loPI   C5A 1611   8.936   1.127   8.623  0.2385  0.1730 -0.0485
  101loPI   C6A 1612   8.634   1.231   8.366 -0.2437 -0.1083  0.3297
  101loPI   C1B 1613   9.604   2.824   9.299  0.1579 -0.5592  0.0776
  101loPI   C2B 1614   9.452   2.661   8.924 -0.0474  0.0739 -0.0784
  101loPI   C3B 1615   9.681   2.550   8.557  0.1010  0.1366 -0.2796
  101loPI   C4B 1616   9.705   2.672   8.126  0.2370 -0.0460  0.0492
  102loPI    C1 1617   6.166  15.486   9.543  0.2508  0.1043  0.1402
  102loPI    C2 1618   5.865  15.635   9.760  0.1447  0.0112  0.0580
  102loPI    C3 1619   6.196  15.852   9.702  0.0287  0.1791  0.0147
  102loPI   PO4 1620   5.993  15.393   9.346  0.1453 -0.0666  0.0079
  102loPI   GL1 1621   5.993  15.330   8.875 -0.1172  0.3380  0.1359
  102loPI   GL2 1622   6.209  15.686   8.893  0.1555 -0.0772  0.0563
  102loPI   C1A 1623   5.971  15.261   8.494  0.1183  0.1347  0.1521
  102loPI   C2A 1624   5.937  15.141   8.021  0.0989  0.0463 -0.0827
  102loPI   C3A 1625   5.660  15.212   7.690 -0.0400  0.1247 -0.0461
  102loPI   C4A 1626   5.446  15.024   7.291  0.3570  0.1930  0.0334
  102loPI   C5A 1627   5.135  15.216   6.998 -0.1519  0.1866  0.0254
  102loPI   C6A 1628   5.025  15.541   6.677 -0.0224  0.1569 -0.1026
  102loPI   C1B 1629   5.999  15.744   8.499  0.1403 -0.0699 -0.0682
  102loPI   C2B 1630   5.769  15.659   8.171  0.2330 -0.0037  0.2992
  102loPI   C3B 1631   5.659  15.765   7.749  0.1718  0.1726 -0.0238
  102loPI   C4B 1632   5.298  15.929   7.473 -0.1994 -0.1275 -0.0127
  103loPI    C1 1633  14.797  10.484   9.975  0.1933 -0.1512 -0.0522
  103loPI    C2 1634  14.930  10.511  10.351  0.3338 -0.4570 -0.0761
  103loPI    C3 1635  14.545  10.429  10.280  0.1972  0.0810 -0.0055
  103loPI   PO4 1636  14.855  10.618   9.756 -0.1615  0.2475  0.0585
  103loPI   GL1 1637  14.893  10.465   9.375  0.1204  0.0944 -0.2124
  103loPI   GL2 1638  15.131  10.631   9.299  0.1094  0.4930 -0.0448
  103loPI   C1A 1639  14.741  10.410   8.903  0.0070 -0.2754 -0.1143
  103loPI   C2A 1640  14.740  10.366   8.544 -0.0585  0.2207  0.1234
  103loPI   C3A 1641  14.795  10.270   8.022  0.3514  0.4525 -0.0883
  103loPI   C4A 1642  14.779  10.314   7.595  0.0425  0.2743 -0.0064
  103loPI   C5A 1643  14.376  10.525   7.488 -0.1605  0.0461  0.4177
  103loPI   C6A 1644  14.217  10.856   7.215  0.0662  0.0424  0.1065
  103loPI   C1B 1645  15.350  10.657   8.869  0.0898  0.1794  0.1885
  103loPI   C2B 1646  15.296  10.573   8.355  0.2393 -0.1165 -0.2587
  103loPI   C3B 1647  15.257  10.201   8.202  0.0780  0.0017 -0.1970
  103loPI   C4B 1648  15.303   9.753   8.152 -0.1575  0.1181 -0.1581
  104loPI    C1 1649   8.424  18.184  10.360  0.0347  0.2700  0.0245
  104loPI    C2 1650   8.458  18.462  10.645  0.0195 -0.1670  0.4654
  104loPI    C3 1651   8.699  18.142  10.647  0.3652  0.0651 -0.3122
  104loPI   PO4 1652   8.500  18.278  10.023 -0.1631 -0.0162 -0.0271
  104loPI   GL1 1653   8.781  18.504   9.786 -0.3447 -0.1314 -0.0250
  104loPI   GL2 1654   8.934  18.295   9.590 -0.0385 -0.0940 -0.0135
  104loPI   C1A 1655   8.681  18.618   9.285  0.1028 -0.0753  0.0695
  104loPI   C2A 1656   8.712  18.869   8.888 -0.2111  0.0520  0.2827
  104loPI   C3A 1657   8.613  19.088   8.472  0.0725  0.0946  0.1141
  104loPI   C4A 1658   8.551  19.281   8.095 -0.2850  0.0448  0.0281
  104loPI   C5A 1659   8.418  19.686   8.014 -0.0461 -0.0599 -0.1588
  104loPI   C6A 1660   8.280  20.114   7.777  0.1327 -0.2703  0.1255
  104loPI   C1B 1661   9.055  18.276   9.161 -0.3229 -0.0145 -0.1870
  104loPI   C2B 1662   9.103  18.442   8.814  0.0982  0.0359 -0.1965
  104loPI   C3B 1663   8.850  18.483   8.435  0.1121 -0.3234 -0.2429
  104loPI   C4B 1664   8.319  18.565   8.421 -0.1719  0.0316  0.1335
  105loPI    C1 1665  11.113   3.343   9.828  0.1540  0.1114 -0.0555
  105loPI    C2 1666  11.232   2.984   9.958 -0.2595  0.0133  0.0647
  105loPI    C3 1667  11.366   3.315  10.137  0.0605 -0.0806  0.0055
  105loPI   PO4 1668  11.179   3.322   9.575 -0.2589 -0.0991 -0.3092
  105loPI   GL1 1669  11.361   3.479   9.103 -0.0514 -0.0708  0.0852
  105loPI   GL2 1670  11.037   3.468   9.109  0.2410 -0.1755  0.0317
  105loPI   C1A 1671  11.403   3.318   8.624 -0.2453  0.2859  0.0664
  105loPI   C2A 1672  11.532   2.943   8.301  0.1646 -0.0189 -0.4343
  105loPI   C3A 1673  11.564   2.511   8.153  0.1447 -0.3619  0.0506
  105loPI   C4A 1674  11.609   2.190   7.916  0.3210 -0.0194  0.0383
  105loPI   C5A 1675  11.696   1.724   7.884  0.1413  0.3666  0.1553
  105loPI   C6A 1676  11.486   1.455   8.086  0.3029  0.3210  0.0526
  105loPI   C1B 1677  10.717   3.584   8.813  0.1566  0.1435  0.1324
  105loPI   C2B 1678  10.714   3.552   8.382  0.4303  0.0823 -0.0296
  105loPI   C3B 1679  10.740   3.478   8.000  0.0037  0.2403  0.1580
  105loPI   C4B 1680  10.665   3.236   7.646  0.0000 -0.1857 -0.3967
  106loPI    C1 1681   9.422  14.667   9.947 -0.1316 -0.2447 -0.0486
  106loPI    C2 1682   9.520  14.926  10.235 -0.0163  0.0363 -0.3348
  106loPI    C3 1683   9.312  14.597  10.325 -0.2409  0.2690  0.0222
  106loPI   PO4 1684   9.352  14.749   9.735  0.0084  0.2012 -0.3323
  106loPI   GL1 1685   9.541  14.830   9.450  0.5284 -0.0218  0.0226
  106loPI   GL2 1686   9.861  14.803   9.470  0.1968 -0.0116 -0.2304
  106loPI   C1A 1687   9.653  14.830   9.024  0.0961 -0.2107  0.2105
  106loPI   C2A 1688   9.721  14.733   8.647 -0.0201  0.1708  0.4016
  106loPI   C3A 1689   9.931  14.876   8.246  0.1111  0.1966  0.1901
  106loPI   C4A 1690  10.107  14.933   7.846 -0.0932  0.2867  0.0248
  106loPI   C5A 1691  10.499  14.775   7.690  0.1560  0.0775 -0.4587
  106loPI   C6A 1692  10.994  14.770   7.744  0.0558  0.1018  0.0253
  106loPI   C1B 1693  10.135  14.754   9.038 -0.0716 -0.3977 -0.0726
  106loPI   C2B 1694  10.232  14.716   8.573 -0.1852 -0.0812 -0.0732
  106loPI   C3B 1695  10.421  14.937   8.275  0.2374  0.3292  0.0871
  106loPI   C4B 1696  10.738  15.185   8.031 -0.0238 -0.0948  0.2615
  107loPI    C1 1697  13.453   3.174   9.586  0.0409 -0.3882  0.0483
  107loPI    C2 1698  13.321   3.104   9.957 -0.0084 -0.0451  0.0988
  107loPI    C3 1699  13.713   3.095   9.879  0.0003 -0.1424  0.1528
  107loPI   PO4 1700  13.220   3.360   9.491  0.2710 -0.0717 -0.0890
  107loPI   GL1 1701  12.882   3.161   9.278 -0.0178 -0.1596  0.4189
  107loPI   GL2 1702  12.565   3.062   9.343 -0.0797  0.3373  0.0869
  107loPI   C1A 1703  12.943   3.275   8.857 -0.1154 -0.4818  0.3376
  107loPI   C2A 1704  12.898   3.503   8.478 -0.2097  0.0956 -0.0851
  107loPI   C3A 1705  12.752   3.881   8.210  0.0996 -0.3825 -0.1990
  107loPI   C4A 1706  12.611   3.835   7.757  0.5160 -0.0268  0.0819
  107loPI   C5A 1707  12.632   3.949   7.383 -0.0734  0.0296 -0.1805
  107loPI   C6A 1708  12.445   4.406   7.181  0.0003  0.2197  0.0026
  107loPI   C1B 1709  12.465   2.825   8.867 -0.1660 -0.0680 -0.0673
  107loPI   C2B 1710  12.480   3.146   8.646 -0.3674 -0.1181  0.1056
  107loPI   C3B 1711  12.398   3.454   8.428 -0.4196  0.3217 -0.0425
  107loPI   C4B 1712  12.166   3.579   8.030 -0.1493  0.0274 -0.0083
  108loPI    C1 1713  11.542   6.785   9.299  0.1083 -0.1910 -0.1312
  108loPI    C2 1714  11.434   6.611   9.643  0.0774  0.2774  0.1033
  108loPI    C3 1715  11.801   6.766   9.603  0.0614  0.2761 -0.0552
  108loPI   PO4 1716  11.444   6.591   9.059 -0.4938  0.1551  0.1363
  108loPI   GL1 1717  11.517   6.600   8.611  0.1391  0.0357  0.1232
  108loPI   GL2 1718  11.905   6.529   8.780  0.2477 -0.1235 -0.0246
  108loPI   C1A 1719  11.435   6.536   8.178  0.1119 -0.0848  0.1645
  108loPI   C2A 1720  11.188   6.376   7.815  0.0012 -0.1642 -0.2930
  108loPI   C3A 1721  10.926   6.114   7.426 -0.0268  0.1655 -0.2730
  108loPI   C4A 1722  10.477   6.032   7.307 -0.3182 -0.0100  0.0705
  108loPI   C5A 1723  10.269   5.960   6.965  0.1325 -0.2455 -0.1746
  108loPI   C6A 1724   9.841   5.816   6.721 -0.2522  0.1392 -0.0608
  108loPI   C1B 1725  12.043   6.574   8.358 -0.1516 -0.0108  0.1783
  108loPI   C2B 1726  12.396   6.801   8.253  0.0518  0.2054 -0.0475
  108loPI   C3B 1727  12.620   6.750   7.892 -0.0561 -0.1702  0.0691
  108loPI   C4B 1728  12.737   6.596   7.483 -0.1667 -0.2754  0.0647
  109loPI    C1 1729  10.421  12.520  10.304 -0.2907 -0.1051 -0.1421
  109loPI    C2 1730  10.214  12.851  10.389 -0.0519  0.0378 -0.1073
  109loPI    C3 1731  10.109  12.502  10.554 -0.1104  0.1556  0.1086
  109loPI   PO4 1732  10.738  12.584  10.394  0.2204  0.0229  0.2377
  109loPI   GL1 1733  10.973  12.640  10.137 -0.1883 -0.2811 -0.0547
  109loPI   GL2 1734  11.039  12.886   9.980  0.1146 -0.2804  0.0560
  109loPI   C1A 1735  11.067  12.296   9.920  0.0286 -0.1838  0.2173
  109loPI   C2A 1736  11.106  12.065   9.507 -0.1806 -0.1962  0.1767
  109loPI   C3A 1737  11.196  12.041   8.960  0.0147  0.0376 -0.1982
  109loPI   C4A 1738  11.223  12.102   8.506  0.1324 -0.0432  0.1754
  109loPI   C5A 1739  11.340  12.628   8.406  0.1017  0.0061  0.1589
  109loPI   C6A 1740  11.643  12.690   8.028 -0.0752  0.2561 -0.4070
  109loPI   C1B 1741  11.477  12.904   9.772 -0.1761  0.5126  0.2079
  109loPI   C2B 1742  11.838  12.605   9.447  0.1524 -0.1288  0.0285
  109loPI   C3B 1743  12.048  12.382   9.136 -0.3478  0.2431 -0.0448
  109loPI   C4B 1744  12.138  12.497   8.876  0.0810  0.2761  0.1959
  110loPI    C1 1745  17.833   3.137  10.636  0.0623 -0.0604 -0.0413
  110loPI    C2 1746  18.214   3.085  10.746  0.0366 -0.0231  0.0672
  110loPI    C3 1747  17.936   3.175  11.020 -0.0584 -0.0935 -0.0050
  110loPI   PO4 1748  17.884   3.285  10.401 -0.1886  0.5541 -0.0356
  110loPI   GL1 1749  18.011   3.364  10.010 -0.3126 -0.1048 -0.3178
  110loPI   GL2 1750  18.070   3.057   9.865  0.4120 -0.2250  0.3263
  110loPI   C1A 1751  18.423   3.455   9.760  0.4142  0.0094  0.0426
  110loPI   C2A 1752  18.471   3.610   9.413 -0.2165 -0.2239 -0.1263
  110loPI   C3A 1753  18.377   3.599   8.924 -0.3415  0.0667 -0.0517
  110loPI   C4A 1754  18.198   3.559   8.489 -0.2052  0.2049 -0.1120
  110loPI   C5A 1755  18.073   3.314   8.179 -0.1314 -0.0419 -0.0343
  110loPI   C6A 1756  17.949   3.043   7.791 -0.1526  0.1193 -0.1478
  110loPI   C1B 1757  18.033   3.224   9.462  0.2292  0.0900  0.3522
  110loPI   C2B 1758  17.730   2.926   9.279  0.1324 -0.0772 -0.4332
  110loPI   C3B 1759  17.416   2.636   8.936 -0.0285  0.4622 -0.1162
  110loPI   C4B 1760  17.205   2.445   8.515  0.0801  0.1829  0.0607
  111loPI    C1 1761   3.468   8.945   9.822  0.0722  0.0079  0.0792
  111loPI    C2 1762   3.083   9.032   9.883  0.0116  0.0013 -0.2755
  111loPI    C3 1763   3.219   8.664   9.960 -0.0233  0.0377 -0.0316
  111loPI   PO4 1764   3.423   9.092   9.486  0.1656  0.1962 -0.0810
  111loPI   GL1 1765   3.572   9.047   9.005 -0.0523 -0.2495 -0.0844
  111loPI   GL2 1766   3.312   8.746   9.044  0.1806  0.0154  0.0696
  111loPI   C1A 1767   3.580   9.131   8.489 -0.1070 -0.1184  0.1692
  111loPI   C2A 1768   3.642   9.086   8.060  0.0244 -0.4203  0.1890
  111loPI   C3A 1769   3.672   9.079   7.599 -0.0748 -0.1559  0.0902
  111loPI   C4A 1770   3.859   9.018   7.293 -0.1357  0.1195  0.3677
  111loPI   C5A 1771   4.265   8.940   7.133  0.0559 -0.0533 -0.1143
  111loPI   C6A 1772   4.797   9.017   7.022 -0.0950  0.1085 -0.0662
  111loPI   C1B 1773   3.578   8.676   8.684 -0.0644  0.2378 -0.2793
  111loPI   C2B 1774   3.619   8.628   8.212 -0.1580 -0.1245  0.3187
  111loPI   C3B 1775   3.773   8.621   7.812 -0.1564  0.1683 -0.1347
  111loPI   C4B 1776   3.958   8.573   7.458 -0.0915 -0.2384 -0.0339
  112loPI    C1 1777  18.094   8.770  10.250 -0.0036 -0.3445 -0.0523
  112loPI    C2 1778  18.444   8.959  10.293 -0.1473 -0.0910  0.0217
  112loPI    C3 1779  18.158   9.005  10.568 -0.4008  0.0620 -0.2622
  112loPI   PO4 1780  18.208   8.533  10.118  0.0201 -0.0476 -0.0395
  112loPI   GL1 1781  18.376   8.553   9.602  0.2524 -0.0316 -0.2195
  112loPI   GL2 1782  18.433   8.731   9.326  0.1832  0.2394 -0.0937
  112loPI   C1A 1783  18.484   8.246   9.314  0.2278  0.0147  0.2998
  112loPI   C2A 1784  18.602   8.104   8.843 -0.2360 -0.0399  0.1517
  112loPI   C3A 1785  18.573   8.284   8.345  0.3343  0.0149 -0.0688
  112loPI   C4A 1786  18.254   8.181   7.926  0.0443 -0.2605  0.1327
  112loPI   C5A 1787  18.162   7.895   7.639  0.1373  0.0151  0.0065
  112loPI   C6A 1788  17.850   7.807   7.269  0.2702  0.1693 -0.1902
  112loPI   C1B 1789  18.386   9.023   8.999  0.2064 -0.2480  0.0441
  112loPI   C2B 1790  18.314   9.227   8.603 -0.0071 -0.0046  0.4304
  112loPI   C3B 1791  18.419   9.520   8.454 -0.0752  0.0847  0.1956
  112loPI   C4B 1792  18.380   9.701   8.077  0.0052 -0.0726  0.3295
  113loPI    C1 1793  14.932   2.708  10.410  0.0512  0.1564 -0.1168
  113loPI    C2 1794  15.287   2.840  10.538  0.1506  0.0106 -0.2390
  113loPI    C3 1795  14.964   2.878  10.770  0.3350 -0.2858  0.0755
  113loPI   PO4 1796  14.975   2.700  10.137  0.3141 -0.2814  0.0497
  113loPI   GL1 1797  14.904   2.773   9.713  0.3693 -0.2176  0.2307
  113loPI   GL2 1798  14.844   2.347   9.597 -0.2336  0.0168 -0.3116
  113loPI   C1A 1799  15.020   2.736   9.333 -0.1393  0.0282  0.2083
  113loPI   C2A 1800  15.081   2.593   8.932  0.0441  0.0080  0.1927
  113loPI   C3A 1801  15.317   2.815   8.561  0.0033 -0.3588 -0.2537
  113loPI   C4A 1802  15.763   2.796   8.306  0.1210 -0.1359 -0.0405
  113loPI   C5A 1803  16.122   2.519   8.244  0.1965 -0.2237  0.0693
  113loPI   C6A 1804  16.387   2.118   8.117 -0.0802  0.1115 -0.2678
  113loPI   C1B 1805  15.033   1.993   9.472  0.2568 -0.0046  0.1258
  113loPI   C2B 1806  14.962   1.890   9.038  0.1144  0.1289 -0.2598
  113loPI   C3B 1807  14.879   1.770   8.610 -0.2417 -0.3298 -0.0392
  113loPI   C4B 1808  15.031   1.911   8.182 -0.1657  0.1415 -0.1853
  114loPI    C1 1809  13.997   4.122  10.012 -0.2698 -0.0703 -0.0207
  114loPI    C2 1810  13.928   4.260  10.381 -0.1494 -0.1230  0.0219
  114loPI    C3 1811  14.161   3.939  10.327 -0.0800 -0.0515 -0.1074
  114loPI   PO4 1812  14.150   4.265   9.793 -0.0553  0.4497 -0.1233
  114loPI   GL1 1813  14.098   4.489   9.499  0.0245  0.0319 -0.0926
  114loPI   GL2 1814  14.396   4.601   9.348  0.2221 -0.0486 -0.5784
  114loPI   C1A 1815  14.021   4.184   9.165 -0.1502  0.2588 -0.1535
  114loPI   C2A 1816  14.059   3.825   8.830 -0.0103 -0.1500 -0.2645
  114loPI   C3A 1817  14.106   3.766   8.409  0.0595 -0.1639  0.0861
  114loPI   C4A 1818  14.036   3.848   8.004  0.0701  0.2396  0.3060
  114loPI   C5A 1819  14.122   4.227   7.919  0.1398 -0.0187 -0.0497
  114loPI   C6A 1820  13.925   4.480   7.583  0.1006  0.1897  0.1053
  114loPI   C1B 1821  14.952   4.484   9.144 -0.2579  0.3815 -0.3977
  114loPI   C2B 1822  15.065   4.345   8.740  0.2467  0.1253  0.0284
  114loPI   C3B 1823  14.945   4.316   8.263  0.2775  0.1202 -0.0431
  114loPI   C4B 1824  15.119   4.377   7.808  0.3412  0.0368 -0.0961
  115loPI    C1 1825   8.129   3.410   9.844  0.0543  0.1614  0.0377
  115loPI    C2 1826   8.258   3.267  10.194  0.2754  0.2724  0.0029
  115loPI    C3 1827   8.082   3.022   9.932 -0.1297  0.2392  0.2960
  115loPI   PO4 1828   8.404   3.507   9.724  0.0754  0.2590 -0.0284
  115loPI   GL1 1829   8.621   3.337   9.358 -0.1214 -0.1465  0.0735
  115loPI   GL2 1830   8.905   3.396   9.447 -0.1847 -0.2678 -0.2741
  115loPI   C1A 1831   8.528   2.928   9.274 -0.0172  0.0843 -0.0521
  115loPI   C2A 1832   8.558   2.671   8.830 -0.1844 -0.1692 -0.1764
  115loPI   C3A 1833   8.592   2.743   8.388 -0.1603 -0.0990  0.0666
  115loPI   C4A 1834   8.599   2.825   7.955  0.1530  0.0412  0.2307
  115loPI   C5A 1835   8.843   2.511   7.549 -0.1755 -0.2149  0.0906
  115loPI   C6A 1836   8.499   2.381   7.277 -0.5136  0.1499  0.3126
  115loPI   C1B 1837   8.963   3.147   9.100  0.1243 -0.0285  0.0262
  115loPI   C2B 1838   8.992   3.295   8.707 -0.0174  0.4573  0.1914
  115loPI   C3B 1839   9.166   3.529   8.346  0.0053  0.0555  0.1607
  115loPI   C4B 1840   9.164   3.690   7.998  0.1154 -0.0180 -0.0519
  116loPI    C1 1841   9.159  12.813  10.039  0.0671  0.0746 -0.1407
  116loPI    C2 1842   9.085  12.559  10.340 -0.0382 -0.0254 -0.2498
  116loPI    C3 1843   8.981  12.944  10.372  0.1021  0.0006 -0.0925
  116loPI   PO4 1844   8.991  12.685   9.819  0.0425  0.0380 -0.1585
  116loPI   GL1 1845   9.086  12.717   9.339  0.0350  0.2219 -0.1275
  116loPI   GL2 1846   8.961  13.091   9.518 -0.0274 -0.1048  0.1508
  116loPI   C1A 1847   9.329  12.737   9.031 -0.2462  0.0211 -0.1682
  116loPI   C2A 1848   9.334  12.768   8.553  0.2209  0.2422 -0.1984
  116loPI   C3A 1849   9.460  12.720   8.183 -0.0159  0.0401 -0.1709
  116loPI   C4A 1850   9.128  12.444   7.918  0.0841 -0.0017  0.2012
  116loPI   C5A 1851   9.020  12.253   7.521 -0.4001  0.1012 -0.1260
  116loPI   C6A 1852   8.814  12.271   7.219 -0.1113 -0.0363 -0.0559
  116loPI   C1B 1853   8.953  13.075   9.030 -0.1356 -0.1118  0.0946
  116loPI   C2B 1854   8.901  13.076   8.637 -0.1669  0.2377 -0.0634
  116loPI   C3B 1855   9.042  13.041   8.247  0.2459  0.0826 -0.0634
  116loPI   C4B 1856   8.851  13.131   7.759 -0.0800  0.4749 -0.0254
  117loPI    C1 1857   0.021   7.250   9.673 -0.1857  0.0008  0.0133
  117loPI    C2 1858  -0.125   7.055   9.990 -0.0309 -0.2071 -0.0412
  117loPI    C3 1859   0.048   7.412  10.038 -0.0223 -0.2307  0.1060
  117loPI   PO4 1860   0.102   7.038   9.564  0.0591  0.1449  0.2809
  117loPI   GL1 1861   0.028   6.799   9.331  0.0375  0.3620  0.2806
  117loPI   GL2 1862   0.236   6.569   9.434  0.2785  0.1343 -0.0580
  117loPI   C1A 1863  -0.085   6.867   8.949 -0.2613  0.0133  0.1144
  117loPI   C2A 1864  -0.306   7.128   8.717 -0.1376 -0.1995 -0.0270
  117loPI   C3A 1865  -0.398   6.953   8.360  0.3556  0.1313  0.0044
  117loPI   C4A 1866  -0.382   6.929   7.874  0.1382 -0.3462  0.1526
  117loPI   C5A 1867  -0.048   6.823   7.598  0.2651  0.1320 -0.3435
  117loPI   C6A 1868   0.162   6.460   7.391 -0.2420 -0.1140  0.0020
  117loPI   C1B 1869   0.460   6.635   9.030  0.1390  0.1227  0.0358
  117loPI   C2B 1870   0.546   6.223   8.938 -0.0443  0.1574 -0.0508
  117loPI   C3B 1871   0.681   6.144   8.616  0.0921 -0.0004 -0.0162
  117loPI   C4B 1872   0.531   6.204   8.181  0.1243  0.0628 -0.0861
  118loPI    C1 1873   6.691   0.724  10.139  0.1646  0.0307  0.1034
  118loPI    C2 1874   6.832   0.533  10.461 -0.0470  0.0691  0.2206
  118loPI    C3 1875   6.722   0.917  10.488  0.0178  0.0980  0.0802
  118loPI   PO4 1876   6.756   0.597   9.963 -0.2219 -0.1693 -0.1262
  118loPI   GL1 1877   6.632   0.439   9.532  0.1787  0.1537 -0.0855
  118loPI   GL2 1878   6.812   0.814   9.484  0.0457 -0.1798  0.2224
  118loPI   C1A 1879   6.354   0.593   9.197  0.0110 -0.1946 -0.0252
  118loPI   C2A 1880   6.450   0.684   8.778 -0.0450 -0.2167 -0.1936
  118loPI   C3A 1881   6.470   0.638   8.253 -0.0520  0.0662 -0.3706
  118loPI   C4A 1882   6.478   0.351   7.921  0.1977 -0.0760  0.1981
  118loPI   C5A 1883   6.734   0.068   7.646  0.1328  0.3809  0.0312
  118loPI   C6A 1884   6.898  -0.412   7.764 -0.0647  0.1869 -0.3098
  118loPI   C1B 1885   6.916   0.863   9.161 -0.0903 -0.3399  0.5508
  118loPI   C2B 1886   6.915   1.082   8.846 -0.2047  0.0798  0.0671
  118loPI   C3B 1887   6.853   0.982   8.464 -0.0529 -0.0430 -0.0087
  118loPI   C4B 1888   6.844   0.856   7.929  0.2243  0.2330  0.1437
  119loPI    C1 1889   0.044  17.683  10.119  0.0246 -0.0517 -0.1317
  119loPI    C2 1890  -0.233  17.900  10.308  0.0993  0.1016 -0.1962
  119loPI    C3 1891   0.067  17.735  10.515  0.1881  0.2793 -0.1812
  119loPI   PO4 1892   0.112  17.793   9.927 -0.1949  0.0750  0.0841
  119loPI   GL1 1893   0.137  17.534   9.526 -0.2133  0.1372 -0.1526
  119loPI   GL2 1894  -0.032  17.263   9.403 -0.1983 -0.1872  0.0883
  119loPI   C1A 1895   0.296  17.543   9.058 -0.2089  0.1955  0.0161
  119loPI   C2A 1896   0.289  17.705   8.646 -0.1179 -0.3665  0.1636
  119loPI   C3A 1897   0.066  17.743   8.221  0.0142 -0.1325 -0.0248
  119loPI   C4A 1898  -0.266  17.609   7.905  0.0357  0.0033  0.0969
  119loPI   C5A 1899  -0.638  17.490   7.689 -0.1698 -0.1590  0.4789
  119loPI   C6A 1900  -0.896  17.356   7.338 -0.2246  0.1935 -0.1544
  119loPI   C1B 1901  -0.079  17.080   9.006  0.3533 -0.2181  0.2018
  119loPI   C2B 1902  -0.368  17.065   8.768  0.1279 -0.4063 -0.1348
  119loPI   C3B 1903  -0.516  17.340   8.433  0.0097  0.0837 -0.0515
  119loPI   C4B 1904  -0.431  17.140   8.004 -0.1289  0.0866  0.2554
  120loPI    C1 1905   8.683  13.410  10.225 -0.0748  0.1480 -0.1773
  120loPI    C2 1906   8.949  13.312   9.942 -0.2185 -0.3764 -0.1407
  120loPI    C3 1907   9.074  13.467  10.288 -0.0182 -0.0146 -0.3684
  120loPI   PO4 1908   8.491  13.559  10.112  0.2265  0.2480 -0.0901
  120loPI   GL1 1909   8.394  13.690   9.678 -0.3471  0.1619 -0.1574
  120loPI   GL2 1910   8.420  13.980   9.472  0.0048  0.1520  0.2632
  120loPI   C1A 1911   8.538  13.271   9.385  0.2443  0.0509  0.2037
  120loPI   C2A 1912   8.536  13.305   9.009  0.1795  0.1239  0.2567
  120loPI   C3A 1913   8.444  13.261   8.589  0.0396 -0.3929  0.3310
  120loPI   C4A 1914   8.200  13.200   8.307 -0.1499 -0.0085 -0.3011
  120loPI   C5A 1915   7.917  13.296   7.958  0.0679  0.1373  0.1107
  120loPI   C6A 1916   7.495  13.311   7.789  0.1693  0.1369  0.0076
  120loPI   C1B 1917   8.534  13.784   9.089 -0.1219 -0.0396 -0.0334
  120loPI   C2B 1918   8.497  13.793   8.784  0.3910  0.1138  0.0393
  120loPI   C3B 1919   8.304  13.751   8.431 -0.1759  0.2338  0.0754
  120loPI   C4B 1920   8.208  13.665   8.049 -0.2508 -0.2181 -0.0729
  121loPI    C1 1921   4.057  17.086   9.595 -0.0441  0.0301 -0.1069
  121loPI    C2 1922   3.918  16.853   9.889 -0.3334  0.1038 -0.1825
  121loPI    C3 1923   4.299  16.973   9.893 -0.3155  0.0453  0.1242
  121loPI   PO4 1924   3.924  17.015   9.393 -0.0651 -0.1229  0.0341
  121loPI   GL1 1925   3.887  17.250   8.952 -0.3920  0.0257 -0.1269
  121loPI   GL2 1926   3.493  17.350   8.905  0.1235  0.1698 -0.0543
  121loPI   C1A 1927   3.941  16.920   8.555 -0.3980  0.0733  0.0756
  121loPI   C2A 1928   3.765  16.512   8.468  0.2059 -0.0417 -0.2957
  121loPI   C3A 1929   3.561  16.343   8.024 -0.3973 -0.2306 -0.2604
  121loPI   C4A 1930   3.465  16.143   7.625  0.3696 -0.2406 -0.0322
  121loPI   C5A 1931   3.499  15.938   7.316 -0.1972  0.2102 -0.1054
  121loPI   C6A 1932   3.745  15.916   6.911  0.1777  0.4470 -0.5942
  121loPI   C1B 1933   3.327  17.401   8.534 -0.1263 -0.1413 -0.1901
  121loPI   C2B 1934   3.238  17.351   8.059  0.2138  0.0945  0.0495
  121loPI   C3B 1935   3.226  17.152   7.602  0.0496 -0.1043 -0.1231
  121loPI   C4B 1936   3.375  16.948   7.191 -0.1466  0.0517  0.1374
  122loPI    C1 1937  10.068  18.996   9.924  0.0695  0.1001  0.2613
  122loPI    C2 1938  10.138  19.337   9.727  0.1313 -0.0051  0.0985
  122loPI    C3 1939   9.762  19.217   9.792  0.1097  0.0829  0.1374
  122loPI   PO4 1940  10.378  18.790   9.811 -0.0334  0.1914  0.4400
  122loPI   GL1 1941  10.772  18.741   9.710 -0.0952 -0.0671  0.0549
  122loPI   GL2 1942  11.082  18.696   9.738  0.0754 -0.2644 -0.3186
  122loPI   C1A 1943  10.683  18.859   9.186 -0.0400 -0.0331  0.2613
  122loPI   C2A 1944  10.731  18.639   8.822  0.0797 -0.0147  0.2380
  122loPI   C3A 1945  10.738  18.719   8.378  0.3400  0.0549  0.1307
  122loPI   C4A 1946  10.734  19.165   8.102  0.1347  0.3683 -0.1506
  122loPI   C5A 1947  10.917  19.496   7.775 -0.0958 -0.0225  0.2406
  122loPI   C6A 1948  11.292  19.398   7.537 -0.2668 -0.0070  0.0335
  122loPI   C1B 1949  11.153  18.817   9.310  0.0237 -0.3145 -0.0471
  122loPI   C2B 1950  11.253  18.758   8.941 -0.2822 -0.0864 -0.0604
  122loPI   C3B 1951  11.326  18.515   8.620  0.0399 -0.2139  0.0283
  122loPI   C4B 1952  11.383  18.401   8.134  0.4619 -0.0167  0.2772
  123loPI    C1 1953  15.284  16.424  10.713  0.0301 -0.1492  0.0562
  123loPI    C2 1954  15.216  16.417  11.108  0.1270 -0.1372  0.0732
  123loPI    C3 1955  14.947  16.262  10.856 -0.1662  0.2927  0.1111
  123loPI   PO4 1956  15.334  16.654  10.636  0.4655  0.0112  0.0939
  123loPI   GL1 1957  14.988  16.960  10.427  0.2005 -0.1008  0.0322
  123loPI   GL2 1958  14.979  16.563  10.300 -0.1386 -0.1747 -0.1183
  123loPI   C1A 1959  15.013  16.895   9.956  0.0389 -0.1166  0.0633
  123loPI   C2A 1960  15.066  16.709   9.508 -0.4753 -0.1482 -0.3546
  123loPI   C3A 1961  15.100  16.373   9.250 -0.6020 -0.0262 -0.3862
  123loPI   C4A 1962  15.041  16.174   8.797  0.0093  0.0277 -0.2132
  123loPI   C5A 1963  15.030  16.228   8.343 -0.1870 -0.0660 -0.1019
  123loPI   C6A 1964  15.085  16.325   7.937  0.0413  0.1489 -0.1618
  123loPI   C1B 1965  15.006  16.316   9.884  0.2297  0.1581  0.2536
  123loPI   C2B 1966  15.345  16.117   9.642  0.0137 -0.0816 -0.1818
  123loPI   C3B 1967  15.239  15.878   9.240 -0.0984  0.0311  0.1261
  123loPI   C4B 1968  14.891  15.728   9.019 -0.1235 -0.0664  0.1270
  124loPI    C1 1969   1.912   9.021   9.489 -0.2091 -0.2556 -0.1491
  124loPI    C2 1970   1.942   9.413   9.561  0.0327 -0.2547 -0.2421
  124loPI    C3 1971   1.742   9.177   9.815  0.0597 -0.1036 -0.0783
  124loPI   PO4 1972   1.973   9.026   9.211  0.0623 -0.1982  0.5268
  124loPI   GL1 1973   2.069   9.159   8.762 -0.0862 -0.0787 -0.0145
  124loPI   GL2 1974   2.224   9.470   8.703 -0.0059  0.0572 -0.3474
  124loPI   C1A 1975   2.262   9.087   8.429 -0.1398  0.2026  0.0835
  124loPI   C2A 1976   2.365   9.101   7.967 -0.1591  0.2354 -0.2537
  124loPI   C3A 1977   2.311   9.265   7.511 -0.0238  0.0306 -0.0787
  124loPI   C4A 1978   2.205   9.690   7.314  0.1014  0.1140  0.0173
  124loPI   C5A 1979   2.389   9.965   7.014  0.1369  0.2547 -0.2718
  124loPI   C6A 1980   2.699  10.348   7.087  0.1979  0.0849 -0.2219
  124loPI   C1B 1981   2.308   9.498   8.255  0.0240 -0.0325  0.2323
  124loPI   C2B 1982   2.401   9.671   7.889 -0.0679  0.0367  0.1045
  124loPI   C3B 1983   2.382  10.052   7.905  0.0678  0.1954  0.1329
  124loPI   C4B 1984   2.508  10.318   8.173 -0.3093  0.2076 -0.0225
  125loPI    C1 1985  18.636   1.968  10.001 -0.3880  0.2660 -0.2322
  125loPI    C2 1986  18.448   1.847  10.332  0.2319 -0.0756  0.0121
  125loPI    C3 1987  18.602   2.216  10.314 -0.3560  0.1728 -0.1543
  125loPI   PO4 1988  18.753   1.605   9.859  0.2532 -0.1319 -0.0916
  125loPI   GL1 1989  18.795   1.454   9.493  0.2041  0.2862 -0.2249
  125loPI   GL2 1990  18.647   1.722   9.384  0.3463  0.0669 -0.3123
  125loPI   C1A 1991  18.974   1.500   9.083  0.2225 -0.1542  0.0731
  125loPI   C2A 1992  18.908   1.651   8.616  0.0728  0.2203 -0.0047
  125loPI   C3A 1993  18.772   1.735   8.313  0.2692  0.0956 -0.2614
  125loPI   C4A 1994  18.477   1.990   8.164 -0.0289 -0.3077  0.0558
  125loPI   C5A 1995  18.226   2.106   7.868  0.0421 -0.4081 -0.0347
  125loPI   C6A 1996  17.997   2.241   7.542 -0.1270  0.1317 -0.0882
  125loPI   C1B 1997  18.580   1.840   8.952  0.4705 -0.4037  0.0113
  125loPI   C2B 1998  18.385   1.744   8.565  0.0349  0.2745  0.1247
  125loPI   C3B 1999  17.976   1.861   8.366  0.0454  0.0352  0.2289
  125loPI   C4B 2000  17.665   1.965   7.941 -0.4267 -0.0174 -0.1329
  126loPI    C1 2001  14.679  14.509  10.471  0.0870  0.1937  0.2264
  126loPI    C2 2002  14.826  14.195  10.272  0.1735  0.3376  0.0603
  126loPI    C3 2003  15.034  14.356  10.573  0.0585  0.1416  0.2477
  126loPI   PO4 2004  14.567  14.695  10.324 -0.2374 -0.1551 -0.1061
  126loPI   GL1 2005  14.444  14.837   9.988 -0.1987  0.0625  0.3531
  126loPI   GL2 2006  14.716  14.586   9.883  0.0912 -0.1125 -0.0818
  126loPI   C1A 2007  14.427  14.824   9.516  0.1179  0.0028 -0.0457
  126loPI   C2A 2008  14.515  14.657   9.060 -0.0863  0.1981 -0.2839
  126loPI   C3A 2009  14.275  14.657   8.770  0.1015 -0.5503  0.3604
  126loPI   C4A 2010  14.024  14.979   8.486  0.0225 -0.2061  0.0093
  126loPI   C5A 2011  14.125  15.302   8.324  0.0666  0.0486  0.1226
  126loPI   C6A 2012  14.072  15.706   8.264  0.1128  0.4080  0.1064
  126loPI   C1B 2013  14.924  14.637   9.463  0.2749 -0.2977  0.1041
  126loPI   C2B 2014  15.160  14.838   9.143  0.0110 -0.0655 -0.2394
  126loPI   C3B 2015  15.198  14.920   8.762 -0.0606 -0.2385 -0.1570
  126loPI   C4B 2016  14.873  14.934   8.408 -0.0645  0.1071  0.1070
  127loPI    C1 2017  18.273   5.906  10.242  0.1335  0.1601 -0.0178
  127loPI    C2 2018  18.405   5.643  10.513  0.1088  0.0517 -0.1099
  127loPI    C3 2019  18.016   5.737  10.498  0.0876 -0.0484 -0.1979
  127loPI   PO4 2020  18.381   5.835  10.052  0.0662  0.1073  0.0817
  127loPI   GL1 2021  18.524   5.973   9.597 -0.0593 -0.1756 -0.2287
  127loPI   GL2 2022  18.380   5.611   9.638  0.4078  0.0587  0.0446
  127loPI   C1A 2023  18.550   5.789   9.233  0.1315  0.0837  0.1038
  127loPI   C2A 2024  18.573   5.553   8.952 -0.0151 -0.2374  0.0761
  127loPI   C3A 2025  18.624   5.521   8.570  0.0456  0.0780 -0.0692
  127loPI   C4A 2026  18.527   5.360   8.145  0.2737 -0.2108  0.0814
  127loPI   C5A 2027  18.548   5.215   7.689  0.0769 -0.0056 -0.1884
  127loPI   C6A 2028  18.284   5.348   7.484  0.2278  0.1162 -0.3745
  127loPI   C1B 2029  17.991   5.729   9.517  0.1266 -0.1514 -0.5262
  127loPI   C2B 2030  17.682   5.722   9.124  0.1950  0.0409 -0.3139
  127loPI   C3B 2031  17.612   5.411   8.923  0.1027  0.0351  0.1270
  127loPI   C4B 2032  17.764   5.193   8.555  0.0151  0.0312 -0.5147
  128loPI    C1 2033   8.455  16.853   9.939 -0.0526 -0.2124 -0.0240
  128loPI    C2 2034   8.259  17.173  10.077 -0.0728 -0.1278 -0.2436
  128loPI    C3 2035   8.365  16.879  10.328  0.2113  0.1869  0.0156
  128loPI   PO4 2036   8.724  16.922   9.752 -0.0147 -0.1085 -0.1598
  128loPI   GL1 2037   8.911  17.107   9.303 -0.0634  0.2992 -0.0123
  128loPI   GL2 2038   9.268  17.061   9.454 -0.1735  0.0730  0.3120
  128loPI   C1A 2039   8.737  17.090   8.891  0.0694 -0.1665  0.0116
  128loPI   C2A 2040   8.619  17.103   8.448  0.0732  0.7483 -0.1604
  128loPI   C3A 2041   8.261  17.239   8.186  0.0663  0.0467  0.0732
  128loPI   C4A 2042   8.267  17.314   7.671 -0.0233 -0.1069 -0.0722
  128loPI   C5A 2043   7.996  17.562   7.434 -0.0123  0.0077 -0.0549
  128loPI   C6A 2044   7.660  17.459   7.199 -0.2955  0.2515 -0.2218
  128loPI   C1B 2045   9.518  17.280   9.097 -0.0306 -0.2693 -0.0592
  128loPI   C2B 2046   9.418  17.558   8.682 -0.4016 -0.0759  0.1624
  128loPI   C3B 2047   9.629  17.723   8.376 -0.1961  0.0826 -0.0321
  128loPI   C4B 2048   9.702  17.688   8.008 -0.0210  0.0506  0.0569
  129loPI    C1 2049  17.040  14.293  10.155  0.0284  0.0285 -0.0026
  129loPI    C2 2050  16.942  14.099  10.491  0.0688 -0.1799 -0.1095
  129loPI    C3 2051  17.316  14.233  10.439 -0.0103  0.1136  0.0534
  129loPI   PO4 2052  16.675  14.241  10.063 -0.2609  0.3038  0.3075
  129loPI   GL1 2053  16.572  14.590   9.699 -0.0546 -0.0437 -0.5185
  129loPI   GL2 2054  16.324  14.406   9.701  0.2275  0.3044  0.0775
  129loPI   C1A 2055  16.688  14.535   9.313 -0.2296  0.1142  0.0824
  129loPI   C2A 2056  16.576  14.179   9.080  0.2294 -0.0260  0.2794
  129loPI   C3A 2057  16.625  13.864   8.957 -0.0031 -0.1281 -0.0821
  129loPI   C4A 2058  16.455  13.683   8.619 -0.0703  0.2465 -0.1715
  129loPI   C5A 2059  16.135  13.766   8.281  0.0208  0.0701  0.2033
  129loPI   C6A 2060  15.835  13.830   7.967 -0.2158 -0.7035 -0.5288
  129loPI   C1B 2061  16.225  14.440   9.333  0.2298 -0.3336 -0.2849
  129loPI   C2B 2062  16.282  14.536   8.898  0.1283 -0.0385  0.1958
  129loPI   C3B 2063  16.311  14.640   8.419  0.0720  0.2302 -0.1477
  129loPI   C4B 2064  16.677  14.586   8.211  0.0932  0.2970 -0.0471
  130loPI    C1 2065   8.501   1.999  10.131 -0.0089  0.3463 -0.0964
  130loPI    C2 2066   8.528   1.846   9.763  0.0578  0.3819 -0.1064
  130loPI    C3 2067   8.723   1.673  10.066 -0.1179  0.2639 -0.0592
  130loPI   PO4 2068   8.252   2.046  10.111  0.0365 -0.0330 -0.0564
  130loPI   GL1 2069   8.052   2.011   9.688 -0.0069 -0.1796  0.2385
  130loPI   GL2 2070   7.923   1.726   9.664 -0.4171 -0.1711 -0.0591
  130loPI   C1A 2071   7.848   2.163   9.352 -0.1953 -0.0461 -0.0889
  130loPI   C2A 2072   7.672   2.002   8.911 -0.2573 -0.0532  0.0336
  130loPI   C3A 2073   7.672   1.946   8.498 -0.1138  0.1995 -0.1498
  130loPI   C4A 2074   7.640   2.041   8.165 -0.1153 -0.5472  0.3278
  130loPI   C5A 2075   7.633   2.052   7.746  0.3607 -0.1024 -0.2180
  130loPI   C6A 2076   7.325   1.880   7.511 -0.1987 -0.0056 -0.0966
  130loPI   C1B 2077   7.931   1.656   9.206 -0.0901  0.1152  0.0754
  130loPI   C2B 2078   7.912   1.531   8.706 -0.1018  0.1604 -0.1640
  130loPI   C3B 2079   7.623   1.477   8.300  0.0839 -0.1459 -0.0968
  130loPI   C4B 2080   7.379   1.289   7.887  0.2696  0.1389 -0.0424
  131loPI    C1 2081  17.170   5.033  10.225  0.1800 -0.0793  0.2427
  131loPI    C2 2082  17.270   4.990  10.610  0.1290 -0.3162  0.2312
  131loPI    C3 2083  16.893   4.925  10.493  0.1170 -0.1255  0.1593
  131loPI   PO4 2084  17.377   4.879  10.126 -0.3537  0.0812  0.0800
  131loPI   GL1 2085  17.471   5.004   9.807 -0.1996 -0.0959 -0.0728
  131loPI   GL2 2086  17.200   5.183   9.755 -0.1586 -0.2123 -0.0271
  131loPI   C1A 2087  17.908   5.282   9.593 -0.3188  0.0535 -0.0867
  131loPI   C2A 2088  18.066   5.338   9.196 -0.0712  0.2758  0.0224
  131loPI   C3A 2089  18.091   5.597   8.798  0.0106  0.5058 -0.0876
  131loPI   C4A 2090  18.018   5.610   8.439 -0.0137  0.2063  0.1117
  131loPI   C5A 2091  18.017   5.233   8.077  0.3726 -0.0571  0.6008
  131loPI   C6A 2092  18.027   4.903   7.831  0.0160 -0.0042 -0.0962
  131loPI   C1B 2093  17.012   5.077   9.374  0.1647 -0.1344  0.4275
  131loPI   C2B 2094  17.057   5.294   9.000  0.1151  0.0912  0.1026
  131loPI   C3B 2095  17.234   5.305   8.529  0.1634 -0.4506  0.1710
  131loPI   C4B 2096  17.604   5.454   8.208  0.2164 -0.1037  0.0980
  132loPI    C1 2097   6.445  15.516   9.940  0.1603  0.1129  0.1840
  132loPI    C2 2098   6.484  15.337  10.296 -0.1985  0.1087  0.2243
  132loPI    C3 2099   6.146  15.533  10.205 -0.0636  0.2116 -0.0695
  132loPI   PO4 2100   6.604  15.347   9.704 -0.0107  0.0593 -0.0775
  132loPI   GL1 2101   6.872  15.147   9.328  0.1388 -0.2274  0.0183
  132loPI   GL2 2102   6.781  15.363   9.242  0.0887 -0.1661  0.3508
  132loPI   C1A 2103   7.119  15.219   8.933  0.0158  0.1941 -0.0464
  132loPI   C2A 2104   7.183  15.092   8.594  0.0080  0.0381  0.1263
  132loPI   C3A 2105   7.300  15.052   8.162  0.0218  0.2078 -0.4510
  132loPI   C4A 2106   7.067  15.092   7.829 -0.0795  0.2208 -0.2527
  132loPI   C5A 2107   6.840  15.161   7.400  0.2362  0.0450 -0.0099
  132loPI   C6A 2108   6.549  15.261   7.148 -0.1407  0.2193  0.1612
  132loPI   C1B 2109   6.589  15.295   8.834 -0.2442 -0.2064 -0.2389
  132loPI   C2B 2110   6.743  15.028   8.427  0.0626 -0.0238 -0.5078
  132loPI   C3B 2111   6.886  14.576   8.277 -0.0880 -0.1688 -0.1584
  132loPI   C4B 2112   6.942  14.165   8.394  0.2788 -0.3100 -0.1201
  133loPI    C1 2113  17.304  18.200  10.107  0.1279 -0.0363  0.0418
  133loPI    C2 2114  17.197  18.578  10.181  0.1264  0.0081 -0.1783
  133loPI    C3 2115  17.582  18.471  10.204  0.1287  0.0262 -0.1306
  133loPI   PO4 2116  17.144  18.096   9.949 -0.1625 -0.1822 -0.0616
  133loPI   GL1 2117  16.908  18.243   9.694 -0.1558  0.1742 -0.0574
  133loPI   GL2 2118  17.268  18.128   9.440  0.1960 -0.1836 -0.5038
  133loPI   C1A 2119  16.818  18.205   9.166 -0.0832 -0.0035 -0.2563
  133loPI   C2A 2120  16.597  18.234   8.727  0.0231 -0.0504  0.0494
  133loPI   C3A 2121  16.665  18.169   8.304  0.4633  0.0084  0.2648
  133loPI   C4A 2122  16.475  17.957   7.969  0.0981 -0.0806 -0.1104
  133loPI   C5A 2123  16.209  17.725   7.688 -0.3739 -0.3872 -0.2054
  133loPI   C6A 2124  15.853  17.550   7.618 -0.0130  0.3800 -0.0431
  133loPI   C1B 2125  17.188  17.913   9.062 -0.0901 -0.1784 -0.0899
  133loPI   C2B 2126  17.322  17.873   8.631 -0.0958  0.2513 -0.1158
  133loPI   C3B 2127  17.257  17.937   8.170  0.0740  0.2961  0.0691
  133loPI   C4B 2128  17.264  18.122   7.722 -0.0098  0.1145 -0.0836
  134loPI    C1 2129   3.543   3.730   9.559  0.0798  0.0725  0.2289
  134loPI    C2 2130   3.323   3.421   9.685 -0.1342  0.1884  0.1453
  134loPI    C3 2131   3.686   3.485   9.841 -0.0885 -0.1024  0.1648
  134loPI   PO4 2132   3.592   3.811   9.309 -0.1013 -0.3246  0.1295
  134loPI   GL1 2133   3.461   4.027   8.957 -0.0832 -0.2710  0.1453
  134loPI   GL2 2134   3.706   4.223   8.888 -0.1029 -0.0345 -0.1920
  134loPI   C1A 2135   3.590   3.842   8.496 -0.2020 -0.1188  0.1859
  134loPI   C2A 2136   3.638   3.706   8.127 -0.0590 -0.1693  0.2827
  134loPI   C3A 2137   3.688   3.416   7.761 -0.0699 -0.1535 -0.2516
  134loPI   C4A 2138   3.800   3.239   7.377  0.0497 -0.2756 -0.0965
  134loPI   C5A 2139   3.604   3.394   7.006 -0.1770 -0.0486 -0.0498
  134loPI   C6A 2140   3.561   3.786   6.841 -0.2535  0.1979  0.0994
  134loPI   C1B 2141   3.820   4.294   8.539  0.0870  0.1619  0.1558
  134loPI   C2B 2142   3.720   4.219   8.186  0.3248 -0.0373 -0.0503
  134loPI   C3B 2143   3.635   4.125   7.840  0.0916 -0.1996  0.1451
  134loPI   C4B 2144   3.683   3.813   7.444 -0.4654 -0.0497  0.1026
  135loPI    C1 2145  17.183  17.267  10.159 -0.1528 -0.1232  0.2678
  135loPI    C2 2146  17.205  17.658  10.242  0.0459  0.0033 -0.3337
  135loPI    C3 2147  17.479  17.407  10.390 -0.1957  0.0506  0.2191
  135loPI   PO4 2148  17.166  17.303   9.871 -0.0550 -0.1437 -0.0502
  135loPI   GL1 2149  17.005  17.224   9.603 -0.0320 -0.0926 -0.2962
  135loPI   GL2 2150  16.991  16.911   9.465 -0.0456  0.1828 -0.0004
  135loPI   C1A 2151  17.140  17.399   9.255  0.1394  0.5542 -0.1146
  135loPI   C2A 2152  17.084  17.414   8.753  0.0718 -0.2023 -0.3311
  135loPI   C3A 2153  17.085  17.506   8.334 -0.1589  0.0290  0.0672
  135loPI   C4A 2154  17.030  17.266   7.979 -0.0084  0.2043 -0.0277
  135loPI   C5A 2155  16.881  17.026   7.639 -0.3087  0.1614 -0.0079
  135loPI   C6A 2156  16.647  16.657   7.611  0.0661  0.1648 -0.4211
  135loPI   C1B 2157  16.930  17.004   9.015 -0.4059  0.2053  0.0239
  135loPI   C2B 2158  16.762  17.125   8.496  0.1860 -0.3536  0.1655
  135loPI   C3B 2159  16.565  16.902   8.044 -0.4227 -0.1727  0.1172
  135loPI   C4B 2160  16.223  16.852   7.852  0.1165  0.0647  0.0687
  136loPI    C1 2161  10.168  15.241   9.929  0.0262 -0.1325 -0.1320
  136loPI    C2 2162   9.900  15.222  10.226 -0.2195  0.0990 -0.3334
  136loPI    C3 2163  10.271  15.354  10.299 -0.1860 -0.1296 -0.0726
  136loPI   PO4 2164  10.153  15.162   9.731 -0.1548  0.2071  0.3694
  136loPI   GL1 2165  10.500  15.095   9.454 -0.4570  0.1097 -0.0635
  136loPI   GL2 2166  10.903  15.149   9.535 -0.2708 -0.1110  0.2360
  136loPI   C1A 2167  10.436  15.121   9.043  0.3785 -0.1107  0.2852
  136loPI   C2A 2168  10.231  15.233   8.702 -0.3398  0.0362 -0.0126
  136loPI   C3A 2169  10.197  15.397   8.350 -0.0733 -0.2538 -0.0851
  136loPI   C4A 2170  10.299  15.394   8.049  0.2257 -0.0437  0.1161
  136loPI   C5A 2171  10.597  15.750   7.888 -0.0131 -0.3933  0.1792
  136loPI   C6A 2172  10.834  15.599   7.642 -0.1634  0.0962  0.1477
  136loPI   C1B 2173  10.939  15.298   9.146  0.2435 -0.2996 -0.2058
  136loPI   C2B 2174  11.213  15.221   8.860 -0.3011 -0.2932 -0.0531
  136loPI   C3B 2175  11.529  14.986   8.626  0.0223 -0.0428  0.0103
  136loPI   C4B 2176  11.591  15.162   8.198  0.3212 -0.2804 -0.0149
  137loPI    C1 2177  15.664   3.388  10.483 -0.1876 -0.0976  0.0318
  137loPI    C2 2178  15.399   3.302  10.770 -0.1726  0.1690  0.1286
  137loPI    C3 2179  15.519   3.680  10.715  0.1056  0.0666  0.0141
  137loPI   PO4 2180  15.622   3.190  10.310 -0.1455 -0.4307 -0.2293
  137loPI   GL1 2181  15.478   3.094   9.878 -0.4303 -0.3531  0.3529
  137loPI   GL2 2182  15.432   2.815   9.937 -0.1437  0.2671  0.4008
  137loPI   C1A 2183  15.718   3.284   9.542 -0.1345  0.0036  0.2328
  137loPI   C2A 2184  15.765   3.359   9.112  0.3188  0.2605 -0.2355
  137loPI   C3A 2185  15.860   3.303   8.700 -0.3054  0.1361  0.0756
  137loPI   C4A 2186  15.878   3.390   8.264 -0.2722  0.1219 -0.0259
  137loPI   C5A 2187  15.943   3.738   7.990 -0.1637  0.4990 -0.2983
  137loPI   C6A 2188  16.114   4.074   7.786  0.0030  0.1786 -0.0616
  137loPI   C1B 2189  15.696   2.739   9.610 -0.3195 -0.2035 -0.3148
  137loPI   C2B 2190  16.005   2.833   9.277 -0.2226 -0.0075 -0.1473
  137loPI   C3B 2191  16.217   3.034   8.934 -0.0538  0.3112 -0.2514
  137loPI   C4B 2192  16.563   3.170   8.791 -0.2000 -0.0148 -0.1662
  138loPI    C1 2193   4.849  14.838   9.451  0.1025  0.1063 -0.1535
  138loPI    C2 2194   5.152  15.066   9.323 -0.0476  0.4605  0.1039
  138loPI    C3 2195   5.166  14.900   9.686  0.2139 -0.2389 -0.2081
  138loPI   PO4 2196   4.764  14.687   9.221  0.1949 -0.0124 -0.3455
  138loPI   GL1 2197   4.642  14.770   8.845 -0.1222 -0.0702 -0.5589
  138loPI   GL2 2198   4.710  14.576   8.617  0.2102  0.1942  0.0874
  138loPI   C1A 2199   4.450  15.152   8.662 -0.0179 -0.0190 -0.2438
  138loPI   C2A 2200   4.409  15.234   8.225  0.0468 -0.2826  0.1138
  138loPI   C3A 2201   4.295  15.194   7.807  0.0238  0.0248  0.0303
  138loPI   C4A 2202   4.157  15.143   7.364  0.0836  0.2264 -0.0770
  138loPI   C5A 2203   3.922  14.884   7.206  0.3754  0.2728 -0.0231
  138loPI   C6A 2204   3.974  14.541   6.953  0.2957 -0.2202 -0.1392
  138loPI   C1B 2205   4.901  14.871   8.386 -0.0082 -0.3018 -0.3739
  138loPI   C2B 2206   4.841  15.003   8.061  0.1178 -0.2723 -0.1850
  138loPI   C3B 2207   4.807  15.292   7.751  0.0340  0.3527 -0.1954
  138loPI   C4B 2208   4.752  15.736   7.767 -0.2581 -0.3987  0.2289
  139loPI    C1 2209  18.504   4.028  10.481  0.2094 -0.0066  0.0392
  139loPI    C2 2210  18.635   4.367  10.647  0.0202  0.1974 -0.2206
  139loPI    C3 2211  18.618   4.032  10.865  0.0047  0.4026  0.1005
  139loPI   PO4 2212  18.402   4.114  10.235 -0.1672 -0.1475  0.1354
  139loPI   GL1 2213  18.427   3.915   9.865  0.2392 -0.0529 -0.2451
  139loPI   GL2 2214  18.033   3.844   9.912  0.2050 -0.0661 -0.0644
  139loPI   C1A 2215  18.339   4.076   9.471  0.3232  0.2046 -0.0467
  139loPI   C2A 2216  18.117   4.128   9.057  0.0911 -0.0449 -0.1804
  139loPI   C3A 2217  17.676   4.148   8.821 -0.4933 -0.0797 -0.0153
  139loPI   C4A 2218  17.387   4.053   8.573  0.0743 -0.0364 -0.0651
  139loPI   C5A 2219  17.308   3.950   8.107 -0.0739 -0.0767 -0.0589
  139loPI   C6A 2220  17.055   4.184   7.722  0.2239  0.1060  0.0258
  139loPI   C1B 2221  17.987   3.695   9.440 -0.0563 -0.3656 -0.1906
  139loPI   C2B 2222  17.885   3.683   9.049  0.0676 -0.2944  0.1535
  139loPI   C3B 2223  17.718   3.629   8.617  0.2181 -0.0601 -0.0687
  139loPI   C4B 2224  17.738   3.705   8.177  0.1266  0.3491  0.0459
  140loPI    C1 2225  11.787  14.607  10.421 -0.1656 -0.1399 -0.0239
  140loPI    C2 2226  12.061  14.665  10.707 -0.0452 -0.0518 -0.1558
  140loPI    C3 2227  11.705  14.847  10.731  0.0285  0.0930 -0.1496
  140loPI   PO4 2228  11.965  14.648  10.188  0.0749 -0.2141 -0.1278
  140loPI   GL1 2229  11.821  14.641   9.701 -0.0635  0.1802 -0.1043
  140loPI   GL2 2230  11.740  14.428   9.783  0.3009 -0.1329 -0.0424
  140loPI   C1A 2231  11.873  14.661   9.304 -0.2260  0.2574 -0.0789
  140loPI   C2A 2232  11.775  14.520   9.001 -0.0386  0.0006  0.0752
  140loPI   C3A 2233  11.696  14.515   8.503  0.1459 -0.0337  0.1238
  140loPI   C4A 2234  11.744  14.667   8.057  0.1103 -0.3225  0.0395
  140loPI   C5A 2235  12.009  15.022   7.933 -0.0653  0.1766  0.3373
  140loPI   C6A 2236  12.264  15.295   8.190 -0.0854 -0.0685  0.1574
  140loPI   C1B 2237  11.761  14.121   9.532  0.0363  0.1565 -0.1660
  140loPI   C2B 2238  11.922  13.958   9.123 -0.0959  0.0371 -0.1752
  140loPI   C3B 2239  12.035  13.914   8.766  0.1165  0.4580  0.0040
  140loPI   C4B 2240  11.987  13.858   8.368 -0.2138  0.0957  0.0977
  141loPI    C1 2241   6.491   0.239  10.257  0.1777 -0.2243  0.4170
  141loPI    C2 2242   6.238   0.228  10.567 -0.0980  0.0610  0.2078
  141loPI    C3 2243   6.258   0.554  10.337  0.3017 -0.0447  0.0860
  141loPI   PO4 2244   6.593   0.022  10.090 -0.0458 -0.3041  0.3323
  141loPI   GL1 2245   6.600  -0.089   9.658 -0.1501 -0.3732  0.4929
  141loPI   GL2 2246   6.239  -0.073   9.526  0.0213 -0.0938  0.3200
  141loPI   C1A 2247   6.896  -0.148   9.397  0.3173 -0.0402 -0.0279
  141loPI   C2A 2248   7.046  -0.188   8.966  0.3833 -0.1698  0.1355
  141loPI   C3A 2249   7.234   0.088   8.646  0.1421 -0.0069 -0.3211
  141loPI   C4A 2250   7.627   0.086   8.671 -0.2970 -0.1852 -0.1907
  141loPI   C5A 2251   7.838   0.282   8.985  0.0614 -0.2480 -0.2904
  141loPI   C6A 2252   7.848   0.636   9.373  0.1983  0.1470 -0.0744
  141loPI   C1B 2253   6.398   0.073   9.195  0.1171  0.1789 -0.0724
  141loPI   C2B 2254   6.597   0.140   8.861 -0.0524 -0.3276 -0.0696
  141loPI   C3B 2255   6.572   0.095   8.414 -0.1273  0.1990 -0.2741
  141loPI   C4B 2256   7.022  -0.044   8.148 -0.1639 -0.1037 -0.0482
  142loPI    C1 2257  16.745   2.384  10.372  0.1490  0.0546  0.0057
  142loPI    C2 2258  17.137   2.314  10.414  0.0936 -0.1012  0.2841
  142loPI    C3 2259  16.967   2.621  10.606  0.1198  0.1093 -0.0218
  142loPI   PO4 2260  16.710   2.325  10.074  0.2257 -0.1354  0.3942
  142loPI   GL1 2261  16.852   2.033   9.870  0.0600  0.2592  0.1330
  142loPI   GL2 2262  17.188   2.102   9.949 -0.0075  0.3397 -0.0917
  142loPI   C1A 2263  16.789   1.945   9.432 -0.1579  0.3792 -0.0071
  142loPI   C2A 2264  16.820   2.076   9.016 -0.0039  0.1616  0.0483
  142loPI   C3A 2265  16.785   2.208   8.467  0.0315  0.0561 -0.0643
  142loPI   C4A 2266  16.859   2.376   8.075 -0.3948 -0.0484  0.2900
  142loPI   C5A 2267  16.786   2.676   7.628 -0.3011 -0.1053 -0.0268
  142loPI   C6A 2268  16.460   2.964   7.466 -0.3223 -0.4534 -0.1294
  142loPI   C1B 2269  17.226   2.042   9.466 -0.2178  0.2550 -0.1536
  142loPI   C2B 2270  17.383   2.134   8.996 -0.3979 -0.1275  0.1190
  142loPI   C3B 2271  17.644   2.151   8.643  0.0302  0.0615 -0.0290
  142loPI   C4B 2272  17.733   2.450   8.370 -0.0538  0.3613 -0.2022
  143loPI    C1 2273   6.894  19.154  10.500 -0.1623  0.0880  0.0048
  143loPI    C2 2274   7.071  19.273  10.838 -0.3439  0.1873  0.0663
  143loPI    C3 2275   6.674  19.307  10.797 -0.3862 -0.2795  0.0349
  143loPI   PO4 2276   7.028  19.248  10.346 -0.0141  0.0447  0.0147
  143loPI   GL1 2277   7.055  19.223   9.905  0.0374 -0.2331 -0.0373
  143loPI   GL2 2278   7.073  19.416   9.617  0.2658  0.1203 -0.1585
  143loPI   C1A 2279   7.329  19.005   9.649 -0.1571  0.1080 -0.0117
  143loPI   C2A 2280   7.776  18.740   9.569  0.0666 -0.2379 -0.1047
  143loPI   C3A 2281   7.889  18.371   9.357  0.0778  0.0676  0.1460
  143loPI   C4A 2282   7.896  18.061   9.064  0.0861 -0.1716 -0.1090
  143loPI   C5A 2283   8.103  17.804   8.813  0.3409  0.1621  0.2033
  143loPI   C6A 2284   8.270  17.403   8.693 -0.1696 -0.4691  0.1223
  143loPI   C1B 2285   7.015  19.490   9.227 -0.0915  0.0483  0.0903
  143loPI   C2B 2286   6.923  19.674   8.760  0.0987  0.2181  0.0076
  143loPI   C3B 2287   6.946  19.657   8.289 -0.0057  0.1167  0.2804
  143loPI   C4B 2288   7.073  19.594   7.884 -0.3702 -0.0767  0.4811
  144loPI    C1 2289  18.999   6.251   9.980 -0.0978 -0.0793 -0.1198
  144loPI    C2 2290  18.607   6.325   9.988 -0.0728  0.0467 -0.0367
  144loPI    C3 2291  18.781   6.139  10.296 -0.1058 -0.2113 -0.1713
  144loPI   PO4 2292  19.030   6.162   9.763 -0.2856 -0.0197  0.0693
  144loPI   GL1 2293  18.951   6.275   9.360  0.0396 -0.1895 -0.1860
  144loPI   GL2 2294  18.738   6.177   9.015 -0.1145 -0.0835 -0.3730
  144loPI   C1A 2295  19.202   6.318   8.972 -0.1693 -0.2715  0.0286
  144loPI   C2A 2296  19.382   6.122   8.587  0.2397  0.0003  0.4340
  144loPI   C3A 2297  19.227   6.147   8.151 -0.1848 -0.1338  0.2666
  144loPI   C4A 2298  19.199   5.990   7.769 -0.2014  0.4011  0.0250
  144loPI   C5A 2299  19.206   5.953   7.299 -0.0688 -0.0659 -0.3713
  144loPI   C6A 2300  19.090   5.800   6.961  0.2535  0.0515  0.1524
  144loPI   C1B 2301  18.859   6.132   8.585  0.1452 -0.2515 -0.0046
  144loPI   C2B 2302  18.796   6.382   8.114 -0.0396 -0.0186  0.1577
  144loPI   C3B 2303  18.905   6.324   7.663  0.1156 -0.1061  0.1172
  144loPI   C4B 2304  18.671   6.065   7.228  0.1101 -0.1585  0.2201
  145loPI    C1 2305  17.378  10.207  10.229 -0.0896  0.3097 -0.1099
  145loPI    C2 2306  17.258   9.836  10.141  0.1646  0.1571  0.1665
  145loPI    C3 2307  17.073  10.043  10.429  0.0381  0.2388  0.0283
  145loPI   PO4 2308  17.401  10.393  10.047  0.1149 -0.1588  0.0121
  145loPI   GL1 2309  17.136  10.443   9.612  0.3401  0.0789  0.0400
  145loPI   GL2 2310  17.211  10.049   9.602 -0.2573  0.0263  0.3226
  145loPI   C1A 2311  16.890  10.679   9.257  0.2718 -0.0785  0.3337
  145loPI   C2A 2312  17.033  10.819   8.897  0.0102 -0.0440  0.0916
  145loPI   C3A 2313  17.178  10.638   8.570  0.0113  0.4056 -0.1013
  145loPI   C4A 2314  17.117  10.698   8.179  0.0992 -0.1628 -0.0749
  145loPI   C5A 2315  16.870  10.722   7.780 -0.1043 -0.0464 -0.2768
  145loPI   C6A 2316  16.870  10.553   7.391  0.0861  0.1264  0.2375
  145loPI   C1B 2317  16.915  10.207   9.226 -0.1434  0.0935 -0.1164
  145loPI   C2B 2318  16.848  10.377   8.797  0.2858  0.2233 -0.0463
  145loPI   C3B 2319  16.621  10.582   8.518  0.0632 -0.2492 -0.3412
  145loPI   C4B 2320  16.512  10.757   8.277 -0.0759 -0.0562 -0.1152
  146loPI    C1 2321  15.596  11.670  10.535 -0.0942 -0.1811  0.0482
  146loPI    C2 2322  15.423  11.625  10.893  0.0048 -0.0553  0.1125
  146loPI    C3 2323  15.807  11.525  10.842  0.0335  0.0693  0.0811
  146loPI   PO4 2324  15.655  11.834  10.285  0.2901  0.2088  0.1262
  146loPI   GL1 2325  15.489  11.760   9.837  0.0080  0.1764 -0.0820
  146loPI   GL2 2326  15.902  11.667   9.736  0.0150 -0.0167 -0.1296
  146loPI   C1A 2327  15.339  11.631   9.462 -0.0627 -0.1927 -0.1028
  146loPI   C2A 2328  15.148  11.727   9.092 -0.0029  0.0748 -0.1664
  146loPI   C3A 2329  14.859  11.570   8.787  0.0683  0.1035  0.1209
  146loPI   C4A 2330  14.590  11.319   8.757 -0.0918  0.0440  0.0811
  146loPI   C5A 2331  14.409  11.044   8.645  0.2480 -0.1363 -0.1994
  146loPI   C6A 2332  13.982  10.875   8.452 -0.1451  0.2575 -0.0448
  146loPI   C1B 2333  15.882  11.946   9.362 -0.0371 -0.1019  0.2773
  146loPI   C2B 2334  15.752  12.009   8.932 -0.0561 -0.1143 -0.3612
  146loPI   C3B 2335  15.457  11.807   8.694  0.0627 -0.3001  0.0317
  146loPI   C4B 2336  15.191  11.868   8.440  0.0536 -0.0104  0.0519
  147loPI    C1 2337  14.241   6.994   9.716  0.2606 -0.0336 -0.0814
  147loPI    C2 2338  14.198   7.066  10.107  0.0700  0.0922 -0.1240
  147loPI    C3 2339  14.463   6.794   9.982  0.1521  0.0715  0.0904
  147loPI   PO4 2340  14.240   7.208   9.624 -0.1797 -0.0322  0.2937
  147loPI   GL1 2341  14.362   7.266   9.194  0.2770  0.0425 -0.0808
  147loPI   GL2 2342  14.162   7.251   9.031 -0.0434  0.0615  0.3782
  147loPI   C1A 2343  14.678   7.056   8.919  0.1202 -0.0403  0.1375
  147loPI   C2A 2344  14.755   6.858   8.507  0.0502  0.1854 -0.0172
  147loPI   C3A 2345  14.785   6.661   8.251 -0.0097 -0.1216 -0.2875
  147loPI   C4A 2346  14.491   6.478   7.992 -0.1590  0.0500  0.0357
  147loPI   C5A 2347  14.309   6.511   7.651 -0.3236  0.3057  0.0944
  147loPI   C6A 2348  14.276   6.406   7.276 -0.0730  0.2146 -0.1730
  147loPI   C1B 2349  13.834   7.393   8.692  0.1182 -0.4912  0.3597
  147loPI   C2B 2350  13.740   7.648   8.369 -0.0011  0.0664  0.3427
  147loPI   C3B 2351  13.593   7.972   8.545  0.0852  0.3436 -0.2561
  147loPI   C4B 2352  13.586   8.281   8.887 -0.1030  0.0224 -0.1144
  148loPI    C1 2353   2.918   0.999   9.814 -0.0088 -0.1065  0.0382
  148loPI    C2 2354   2.601   0.992   9.569  0.0560 -0.0977 -0.0461
  148loPI    C3 2355   2.569   1.154   9.933 -0.0343 -0.0889 -0.0579
  148loPI   PO4 2356   3.061   0.917   9.621  0.1870 -0.0658 -0.0670
  148loPI   GL1 2357   2.921   0.834   9.189 -0.4143 -0.1814 -0.1450
  148loPI   GL2 2358   2.819   0.740   9.060 -0.0250  0.1528  0.1292
  148loPI   C1A 2359   3.233   0.783   8.806  0.0650 -0.1360  0.0841
  148loPI   C2A 2360   3.446   0.937   8.521  0.2494  0.0812  0.2983
  148loPI   C3A 2361   3.634   1.119   8.249 -0.0437  0.0597  0.1551
  148loPI   C4A 2362   3.909   1.060   8.017 -0.0543  0.0085 -0.1848
  148loPI   C5A 2363   4.223   1.285   7.811  0.3863  0.2079  0.2401
  148loPI   C6A 2364   4.584   1.011   7.660 -0.0834  0.0156 -0.1162
  148loPI   C1B 2365   2.753   0.865   8.706  0.1475 -0.0408 -0.3105
  148loPI   C2B 2366   2.888   0.844   8.328 -0.0537  0.1785  0.2412
  148loPI   C3B 2367   3.163   0.742   8.090 -0.1598 -0.0756 -0.1557
  148loPI   C4B 2368   3.099   0.757   7.635 -0.0707 -0.1471  0.1822
  149loPI    C1 2369   8.728  16.422  10.060 -0.0931 -0.0422 -0.1071
  149loPI    C2 2370   8.335  16.386  10.127 -0.0690  0.0195  0.0719
  149loPI    C3 2371   8.595  16.338  10.428  0.0304  0.4944  0.0682
  149loPI   PO4 2372   8.764  16.281   9.838 -0.3226 -0.1432 -0.1708
  149loPI   GL1 2373   8.596  16.477   9.494  0.0622  0.1620  0.0451
  149loPI   GL2 2374   8.724  16.133   9.391 -0.1101  0.2310 -0.0114
  149loPI   C1A 2375   8.411  16.410   9.095 -0.4718  0.2134  0.2200
  149loPI   C2A 2376   8.383  16.302   8.626  0.3391 -0.1905  0.1033
  149loPI   C3A 2377   8.305  16.180   8.296 -0.0129  0.5203 -0.2233
  149loPI   C4A 2378   8.055  16.015   7.908 -0.0735 -0.2717  0.1211
  149loPI   C5A 2379   7.752  15.835   7.825 -0.0341 -0.2586  0.4312
  149loPI   C6A 2380   7.444  15.726   7.566 -0.1205  0.2020 -0.0924
  149loPI   C1B 2381   8.732  16.071   8.874 -0.0446 -0.1346 -0.0466
  149loPI   C2B 2382   9.053  16.063   8.631 -0.2091 -0.1087  0.5293
  149loPI   C3B 2383   9.401  16.194   8.653 -0.1136 -0.0401  0.1492
  149loPI   C4B 2384   9.487  16.550   8.536  0.0236  0.0977  0.0098
  150loPI    C1 2385   3.056   0.089   9.775  0.0668  0.0929 -0.0892
  150loPI    C2 2386   2.983  -0.305   9.774  0.0037  0.1040  0.0278
  150loPI    C3 2387   2.797  -0.067  10.037  0.0422  0.2121 -0.0421
  150loPI   PO4 2388   3.145   0.102   9.491 -0.0588 -0.1621  0.0466
  150loPI   GL1 2389   3.086   0.025   9.016  0.0855 -0.0699 -0.0938
  150loPI   GL2 2390   2.886   0.263   9.108 -0.0985  0.3216 -0.2894
  150loPI   C1A 2391   2.931  -0.092   8.606 -0.0354 -0.0874 -0.1808
  150loPI   C2A 2392   3.090  -0.142   8.252 -0.0676 -0.0659 -0.1893
  150loPI   C3A 2393   2.737  -0.052   7.979  0.2185  0.1310  0.2635
  150loPI   C4A 2394   2.471   0.157   7.629  0.0721  0.0641 -0.1920
  150loPI   C5A 2395   2.167   0.425   7.427 -0.1355  0.0865 -0.1252
  150loPI   C6A 2396   2.085   0.774   7.269  0.2233 -0.1590 -0.0582
  150loPI   C1B 2397   2.652   0.382   8.672  0.1787  0.0469  0.3739
  150loPI   C2B 2398   2.442   0.155   8.450  0.2559  0.1595 -0.2451
  150loPI   C3B 2399   2.232   0.141   8.126  0.1526  0.2146  0.0169
  150loPI   C4B 2400   2.047   0.071   7.840 -0.3753 -0.0734  0.0551
  151loPI    C1 2401  16.959   5.466  10.045  0.0591 -0.2453 -0.0488
  151loPI    C2 2402  16.791   5.422  10.405  0.0030 -0.2838 -0.0794
  151loPI    C3 2403  17.168   5.551  10.375 -0.0423 -0.1336 -0.0128
  151loPI   PO4 2404  16.751   5.504   9.852 -0.0186 -0.2840  0.3815
  151loPI   GL1 2405  17.040   5.574   9.528  0.2152  0.2461  0.1904
  151loPI   GL2 2406  16.732   5.548   9.306 -0.0497 -0.1638 -0.0543
  151loPI   C1A 2407  17.220   5.753   9.172 -0.0922  0.0010 -0.0297
  151loPI   C2A 2408  17.248   5.726   8.792  0.0561 -0.2269  0.1388
  151loPI   C3A 2409  17.255   5.764   8.307  0.0240  0.1907 -0.0207
  151loPI   C4A 2410  17.212   5.643   7.844 -0.0299 -0.1687  0.2637
  151loPI   C5A 2411  17.409   5.426   7.487 -0.4382  0.1654 -0.1608
  151loPI   C6A 2412  17.828   5.087   7.326 -0.0519 -0.1244 -0.0884
  151loPI   C1B 2413  16.775   5.726   8.935  0.1061 -0.0133 -0.0927
  151loPI   C2B 2414  16.764   5.536   8.578  0.2398  0.0332  0.1709
  151loPI   C3B 2415  16.843   5.341   8.208  0.2966  0.0573  0.1582
  151loPI   C4B 2416  16.504   5.103   8.074 -0.1324  0.1384 -0.1971
  152loPI    C1 2417  12.705  10.356  10.177  0.0913 -0.0004 -0.0176
  152loPI    C2 2418  13.010  10.487  10.400 -0.1057 -0.0111  0.2621
  152loPI    C3 2419  13.006  10.109  10.268  0.1238  0.0610  0.0415
  152loPI   PO4 2420  12.537  10.582  10.174  0.1667 -0.3330 -0.1367
  152loPI   GL1 2421  12.361  10.692   9.783  0.2013 -0.1680  0.1281
  152loPI   GL2 2422  12.526  10.441   9.710  0.2877  0.0549 -0.1089
  152loPI   C1A 2423  12.591  10.980   9.600 -0.0751 -0.2265 -0.0726
  152loPI   C2A 2424  12.684  10.899   9.170 -0.0859 -0.2454  0.0212
  152loPI   C3A 2425  12.624  10.936   8.711  0.0134  0.0910  0.1983
  152loPI   C4A 2426  12.572  10.977   8.286  0.2731  0.3251  0.1005
  152loPI   C5A 2427  12.813  11.305   8.153 -0.0141  0.0157  0.1021
  152loPI   C6A 2428  13.208  11.515   8.186  0.1964 -0.3703  0.0045
  152loPI   C1B 2429  12.319  10.493   9.317 -0.0381  0.2139 -0.0953
  152loPI   C2B 2430  11.967  10.462   9.056  0.0036  0.1773  0.1175
  152loPI   C3B 2431  11.705  10.592   8.705 -0.0933 -0.1469  0.0021
  152loPI   C4B 2432  11.747  10.744   8.207 -0.0550  0.0187 -0.2855
  153loPI    C1 2433  10.231  11.805  10.701 -0.1675  0.1661  0.0337
  153loPI    C2 2434  10.013  11.471  10.678  0.0922 -0.0019 -0.0421
  153loPI    C3 2435  10.407  11.448  10.741  0.1405  0.2843 -0.2197
  153loPI   PO4 2436  10.172  11.999  10.437 -0.4045  0.1883 -0.1567
  153loPI   GL1 2437  10.222  11.980  10.013  0.3401 -0.0374 -0.0275
  153loPI   GL2 2438  10.139  11.813   9.676  0.0067 -0.3624  0.0012
  153loPI   C1A 2439  10.541  12.184   9.705  0.0834 -0.0472  0.2718
  153loPI   C2A 2440  10.652  12.068   9.234 -0.0931 -0.3746  0.1255
  153loPI   C3A 2441  10.713  12.182   8.781 -0.0338 -0.1214  0.0404
  153loPI   C4A 2442  10.791  12.428   8.415 -0.1602 -0.0910 -0.1608
  153loPI   C5A 2443  10.932  12.859   8.335  0.2787 -0.1396 -0.2077
  153loPI   C6A 2444  11.389  13.070   8.305  0.2621 -0.2926 -0.0275
  153loPI   C1B 2445   9.972  11.872   9.231 -0.1130  0.4331  0.0318
  153loPI   C2B 2446   9.954  11.907   8.753 -0.1618 -0.1489 -0.0712
  153loPI   C3B 2447   9.901  11.926   8.196  0.1884 -0.0181  0.2499
  153loPI   C4B 2448  10.148  12.221   7.901  0.0133  0.1696  0.1231
  154loPI    C1 2449  16.215  17.609  10.271 -0.1565  0.0139  0.2493
  154loPI    C2 2450  15.900  17.505  10.495 -0.3129 -0.0900 -0.0139
  154loPI    C3 2451  15.844  17.640  10.122 -0.0463 -0.0932 -0.0569
  154loPI   PO4 2452  16.355  17.481  10.252 -0.0508 -0.1854  0.1230
  154loPI   GL1 2453  16.415  17.289   9.824  0.0951 -0.0137 -0.1791
  154loPI   GL2 2454  16.167  17.551   9.762  0.0742 -0.2826  0.3656
  154loPI   C1A 2455  16.566  17.488   9.418  0.3531  0.1366 -0.1616
  154loPI   C2A 2456  16.703  17.753   9.128 -0.1827 -0.1333 -0.0558
  154loPI   C3A 2457  16.739  17.759   8.615 -0.1918 -0.2420  0.1314
  154loPI   C4A 2458  16.567  17.517   8.203 -0.5666 -0.6512 -0.0998
  154loPI   C5A 2459  16.528  17.365   7.831 -0.2785 -0.1050  0.1649
  154loPI   C6A 2460  16.719  17.404   7.338  0.5345 -0.1346  0.2128
  154loPI   C1B 2461  15.973  17.475   9.416 -0.0137 -0.1121 -0.2350
  154loPI   C2B 2462  15.517  17.454   9.267 -0.0504  0.1338 -0.1682
  154loPI   C3B 2463  15.428  17.305   8.872  0.2784  0.0054  0.2040
  154loPI   C4B 2464  15.267  17.596   8.493  0.1818  0.0541 -0.0113
  155loPI    C1 2465  16.205  13.697  10.380 -0.0230  0.0807  0.0500
  155loPI    C2 2466  16.482  13.862  10.616 -0.0127  0.1063  0.0198
  155loPI    C3 2467  16.122  14.033  10.580 -0.0336  0.0711  0.0618
  155loPI   PO4 2468  16.284  13.639  10.102 -0.0342 -0.0433  0.1219
  155loPI   GL1 2469  16.096  13.396   9.788  0.1786  0.2043  0.0087
  155loPI   GL2 2470  15.892  13.193   9.900 -0.2652 -0.0676  0.1567
  155loPI   C1A 2471  16.088  13.402   9.452  0.0865  0.2033 -0.3673
  155loPI   C2A 2472  15.769  13.385   9.114 -0.0323  0.0243 -0.1940
  155loPI   C3A 2473  15.495  13.565   8.788 -0.0451  0.3240  0.0006
  155loPI   C4A 2474  15.142  13.562   8.495 -0.0189 -0.0254 -0.1733
  155loPI   C5A 2475  15.040  13.307   8.235 -0.1110 -0.1308 -0.1465
  155loPI   C6A 2476  15.293  13.113   7.895  0.0447 -0.0943  0.3361
  155loPI   C1B 2477  15.961  12.921   9.622  0.1844  0.0080  0.0447
  155loPI   C2B 2478  15.718  12.494   9.525 -0.4211  0.1386 -0.1506
  155loPI   C3B 2479  15.425  12.405   9.074 -0.0725 -0.3358  0.3463
  155loPI   C4B 2480  15.096  12.180   8.966 -0.4684  0.1483  0.0442
  156loPI    C1 2481   3.803  13.765   9.664 -0.0493 -0.0485 -0.0011
  156loPI    C2 2482   3.685  13.481   9.920 -0.1994  0.0086 -0.0060
  156loPI    C3 2483   3.715  13.861  10.042 -0.1675  0.0186 -0.0450
  156loPI   PO4 2484   3.674  13.671   9.490 -0.0231  0.1773  0.0303
  156loPI   GL1 2485   3.928  13.554   9.115 -0.0803 -0.0532  0.2406
  156loPI   GL2 2486   4.098  13.794   9.195  0.0574 -0.1360  0.0275
  156loPI   C1A 2487   4.128  13.620   8.706  0.1934 -0.2936 -0.0622
  156loPI   C2A 2488   4.084  13.660   8.273  0.1906  0.3864 -0.0637
  156loPI   C3A 2489   4.116  13.825   7.796  0.4137 -0.4237  0.1467
  156loPI   C4A 2490   3.938  13.967   7.378  0.2969 -0.2545  0.2154
  156loPI   C5A 2491   3.921  13.837   6.993  0.0071 -0.3545 -0.1856
  156loPI   C6A 2492   3.907  14.068   6.582  0.2597  0.2093 -0.2352
  156loPI   C1B 2493   4.010  14.124   8.760  0.1782  0.0914 -0.0446
  156loPI   C2B 2494   4.064  14.210   8.264 -0.0459 -0.0001  0.0715
  156loPI   C3B 2495   4.343  14.251   7.808  0.3068 -0.2090  0.1634
  156loPI   C4B 2496   4.392  14.124   7.409 -0.1116  0.0962  0.0042
  157loPI    C1 2497  12.938  18.433  10.408  0.1403 -0.2061  0.2519
  157loPI    C2 2498  12.620  18.407  10.650  0.0185  0.0698  0.1255
  157loPI    C3 2499  12.735  18.089  10.435 -0.1167 -0.0577  0.2400
  157loPI   PO4 2500  12.970  18.723  10.376 -0.1404 -0.4064  0.1921
  157loPI   GL1 2501  13.165  18.971  10.068  0.0319  0.4731  0.2555
  157loPI   GL2 2502  13.037  19.180   9.769  0.2746  0.0367  0.1172
  157loPI   C1A 2503  13.455  18.856   9.765  0.0247  0.0388 -0.1909
  157loPI   C2A 2504  13.546  18.746   9.336  0.1879 -0.0356 -0.1420
  157loPI   C3A 2505  13.358  18.992   9.062 -0.1514 -0.2494  0.3043
  157loPI   C4A 2506  13.125  18.994   8.658 -0.1196 -0.2971  0.2929
  157loPI   C5A 2507  12.881  19.011   8.297  0.2758 -0.0788 -0.0997
  157loPI   C6A 2508  12.999  19.129   7.830  0.0006 -0.0775  0.0355
  157loPI   C1B 2509  13.093  18.787   9.490  0.0105 -0.0943 -0.0310
  157loPI   C2B 2510  13.224  18.428   9.153 -0.0661 -0.0500  0.2308
  157loPI   C3B 2511  13.376  18.550   8.776  0.1527  0.0556 -0.1344
  157loPI   C4B 2512  13.368  18.584   8.284  0.4167  0.0579 -0.3863
  158loPI    C1 2513   2.053   1.141   9.804  0.3016 -0.2998 -0.2205
  158loPI    C2 2514   2.222   1.478   9.937  0.0841 -0.2376 -0.0964
  158loPI    C3 2515   1.850   1.383  10.049  0.1292 -0.5004 -0.1615
  158loPI   PO4 2516   2.123   1.173   9.520 -0.1851 -0.5955 -0.1502
  158loPI   GL1 2517   2.340   1.004   9.127 -0.0241  0.3130  0.1243
  158loPI   GL2 2518   2.625   1.204   9.077  0.2517  0.0277  0.1325
  158loPI   C1A 2519   2.270   1.279   8.717 -0.0966  0.1764 -0.0232
  158loPI   C2A 2520   2.247   1.312   8.385 -0.0165 -0.3325 -0.0908
  158loPI   C3A 2521   2.141   1.478   7.918 -0.0381 -0.2843  0.5002
  158loPI   C4A 2522   2.050   1.684   7.521 -0.0396  0.3274  0.1742
  158loPI   C5A 2523   1.669   1.927   7.475 -0.1235  0.1881  0.2114
  158loPI   C6A 2524   1.352   2.256   7.553 -0.1714  0.0813  0.2093
  158loPI   C1B 2525   2.759   1.449   8.762  0.0782  0.1383 -0.3164
  158loPI   C2B 2526   2.759   1.329   8.456 -0.2444 -0.2663 -0.1864
  158loPI   C3B 2527   2.819   1.582   8.134  0.1239 -0.1939  0.1173
  158loPI   C4B 2528   3.096   1.623   7.824  0.0541 -0.0087 -0.0545
  159loPI    C1 2529  10.984  10.525  10.304 -0.2536 -0.1021  0.2647
  159loPI    C2 2530  11.316  10.551  10.526 -0.1069  0.0156  0.0363
  159loPI    C3 2531  11.015  10.315  10.642 -0.0470  0.1011  0.3754
  159loPI   PO4 2532  11.011  10.430  10.077 -0.1815 -0.0049 -0.0365
  159loPI   GL1 2533  11.057  10.349   9.697  0.0223 -0.0620 -0.1696
  159loPI   GL2 2534  10.721  10.602   9.626 -0.0558  0.2234 -0.0679
  159loPI   C1A 2535  11.267  10.716   9.505  0.1972  0.2825 -0.2221
  159loPI   C2A 2536  11.678  10.849   9.191  0.3038 -0.0593 -0.0310
  159loPI   C3A 2537  11.653  11.083   8.757 -0.1199  0.2168  0.0638
  159loPI   C4A 2538  11.684  11.270   8.339 -0.0966  0.5574 -0.1455
  159loPI   C5A 2539  11.796  11.267   7.865 -0.0948 -0.1036 -0.0034
  159loPI   C6A 2540  12.098  11.061   7.650 -0.3415  0.0906 -0.2999
  159loPI   C1B 2541  10.877  10.358   9.206  0.0791 -0.1275 -0.0688
  159loPI   C2B 2542  11.026  10.238   8.841 -0.1257 -0.2794  0.2211
  159loPI   C3B 2543  11.171  10.185   8.325 -0.3256  0.3602  0.1757
  159loPI   C4B 2544  11.409  10.424   8.030  0.1032  0.3959  0.1600
  160loPI    C1 2545  12.522   1.798  10.056  0.2561  0.5506  0.1127
  160loPI    C2 2546  12.629   1.732  10.436  0.0555 -0.1244  0.0651
  160loPI    C3 2547  12.242   1.753  10.338  0.1051 -0.0393 -0.1169
  160loPI   PO4 2548  12.828   1.756   9.882 -0.2163  0.1835  0.2563
  160loPI   GL1 2549  13.164   1.908   9.541  0.2140  0.1770 -0.0106
  160loPI   GL2 2550  12.811   1.900   9.319  0.0507  0.3240 -0.2132
  160loPI   C1A 2551  13.499   1.719   9.241  0.1372 -0.0149 -0.0418
  160loPI   C2A 2552  13.505   1.547   8.758  0.2714 -0.0762  0.2172
  160loPI   C3A 2553  13.633   1.530   8.267  0.0771  0.2437 -0.2067
  160loPI   C4A 2554  13.947   1.231   8.183  0.1144  0.0428  0.1266
  160loPI   C5A 2555  14.320   1.193   8.202 -0.2017 -0.0071 -0.0065
  160loPI   C6A 2556  14.712   1.471   8.250 -0.2522 -0.0337 -0.1928
  160loPI   C1B 2557  12.572   1.547   9.118 -0.0481 -0.0559  0.2786
  160loPI   C2B 2558  12.600   1.296   8.752 -0.1390 -0.0240 -0.0614
  160loPI   C3B 2559  12.657   0.846   8.725 -0.1165 -0.2468 -0.1003
  160loPI   C4B 2560  12.349   0.537   8.676  0.2247 -0.1273 -0.3127
  161loPI    C1 2561  16.302  18.609  10.391 -0.0891  0.1730  0.0869
  161loPI    C2 2562  16.245  18.727  10.014 -0.1111  0.0144  0.0399
  161loPI    C3 2563  16.458  18.954  10.264  0.3068 -0.1019 -0.2006
  161loPI   PO4 2564  15.984  18.480  10.457 -0.1810  0.1378  0.1447
  161loPI   GL1 2565  15.738  18.554   9.994 -0.2716 -0.2380 -0.2290
  161loPI   GL2 2566  15.819  18.174  10.074  0.0750  0.1090  0.3633
  161loPI   C1A 2567  15.935  18.609   9.646 -0.1606 -0.0646 -0.0918
  161loPI   C2A 2568  15.811  18.554   9.211 -0.1539  0.2692 -0.3862
  161loPI   C3A 2569  15.587  18.570   8.930  0.3887  0.0292 -0.0147
  161loPI   C4A 2570  15.280  18.465   8.527 -0.2332 -0.2457  0.0518
  161loPI   C5A 2571  14.989  18.228   8.217 -0.2954  0.2354  0.0459
  161loPI   C6A 2572  14.808  17.890   8.380 -0.3944  0.0199 -0.0286
  161loPI   C1B 2573  15.987  18.132   9.603 -0.3875 -0.0297  0.2096
  161loPI   C2B 2574  15.699  18.077   9.246  0.1125  0.3468  0.0736
  161loPI   C3B 2575  15.684  18.077   8.752  0.1008 -0.3361 -0.0128
  161loPI   C4B 2576  15.593  18.109   8.311 -0.1279 -0.1559 -0.0529
  162loPI    C1 2577   1.539   6.203   9.741 -0.2402  0.1837 -0.0839
  162loPI    C2 2578   1.277   6.265  10.038  0.0578  0.2675  0.1672
  162loPI    C3 2579   1.660   6.183  10.122  0.1347  0.2337 -0.1960
  162loPI   PO4 2580   1.572   6.435   9.511  0.0382 -0.0363 -0.0571
  162loPI   GL1 2581   1.652   6.648   9.174  0.2004  0.0546 -0.1791
  162loPI   GL2 2582   1.541   6.311   9.020  0.0389  0.1958 -0.0146
  162loPI   C1A 2583   1.600   6.819   8.658 -0.0707 -0.0130  0.1131
  162loPI   C2A 2584   1.374   6.782   8.259  0.0261 -0.2656 -0.1916
  162loPI   C3A 2585   1.255   6.828   7.668 -0.3350 -0.3417  0.0188
  162loPI   C4A 2586   1.121   6.559   7.358  0.1390  0.0495  0.0692
  162loPI   C5A 2587   0.646   6.407   7.168  0.1145  0.4099 -0.0709
  162loPI   C6A 2588   0.308   6.220   6.916 -0.2372 -0.0640 -0.4494
  162loPI   C1B 2589   1.884   6.385   8.785  0.0476 -0.1561  0.1669
  162loPI   C2B 2590   1.941   6.579   8.359  0.0780  0.1195  0.1145
  162loPI   C3B 2591   1.972   6.469   7.911  0.4675 -0.0673  0.0203
  162loPI   C4B 2592   2.293   6.093   7.851  0.3013 -0.5373 -0.0976
  163loPI    C1 2593  10.049   1.939   9.859 -0.1140 -0.0903 -0.4197
  163loPI    C2 2594   9.971   1.628  10.099  0.2546  0.3532  0.3116
  163loPI    C3 2595   9.711   1.931  10.073 -0.0705  0.0382 -0.3449
  163loPI   PO4 2596  10.329   1.919   9.917  0.0037  0.0419  0.2674
  163loPI   GL1 2597  10.606   1.718   9.653  0.2562  0.2402  0.0168
  163loPI   GL2 2598  10.688   1.481   9.503  0.0537 -0.2506  0.0908
  163loPI   C1A 2599  10.715   1.924   9.281  0.0571 -0.0150 -0.0587
  163loPI   C2A 2600  10.831   2.167   8.969 -0.5128  0.2372 -0.1942
  163loPI   C3A 2601  11.022   2.218   8.490  0.3338  0.1120  0.1001
  163loPI   C4A 2602  11.239   2.031   8.204  0.4027  0.0957 -0.1788
  163loPI   C5A 2603  11.622   1.868   8.388 -0.0285 -0.3529 -0.0606
  163loPI   C6A 2604  11.769   1.983   8.805 -0.2097  0.0704 -0.1681
  163loPI   C1B 2605  10.502   1.512   9.107 -0.3273  0.2110 -0.0799
  163loPI   C2B 2606  10.289   1.739   8.757 -0.0296 -0.1188  0.3165
  163loPI   C3B 2607   9.933   1.863   8.563  0.1314 -0.0587 -0.1742
  163loPI   C4B 2608   9.524   1.976   8.355  0.2252 -0.0420  0.0470
  164loPI    C1 2609  14.019  18.383  10.660 -0.0954  0.2099  0.1159
  164loPI    C2 2610  13.964  18.408  11.055  0.4042 -0.2543  0.2259
  164loPI    C3 2611  14.099  18.068  10.893  0.0500 -0.1243 -0.3709
  164loPI   PO4 2612  13.923  18.628  10.570  0.2116  0.1292 -0.4192
  164loPI   GL1 2613  13.942  18.735  10.074 -0.1834  0.2583  0.3882
  164loPI   GL2 2614  14.172  18.477  10.160 -0.1517  0.0014  0.0719
  164loPI   C1A 2615  14.103  18.933   9.765 -0.2389  0.2957 -0.0275
  164loPI   C2A 2616  14.415  19.034   9.480 -0.0847 -0.3144  0.1822
  164loPI   C3A 2617  14.708  19.004   9.094  0.2353  0.0234 -0.1408
  164loPI   C4A 2618  14.462  19.071   8.676 -0.1551  0.0761 -0.2194
  164loPI   C5A 2619  14.221  19.318   8.326 -0.0738  0.1327  0.2443
  164loPI   C6A 2620  13.734  19.558   8.296  0.0717 -0.0137  0.0155
  164loPI   C1B 2621  14.427  18.423   9.741  0.0836  0.1821 -0.0612
  164loPI   C2B 2622  14.535  18.495   9.339  0.2294 -0.0857 -0.3021
  164loPI   C3B 2623  14.479  18.601   8.946 -0.2398  0.2788 -0.0660
  164loPI   C4B 2624  14.216  18.639   8.566  0.0617  0.1289  0.1812
  165loPI    C1 2625   2.275   0.587   9.553  0.2855  0.1315 -0.1530
  165loPI    C2 2626   2.404   0.361   9.857 -0.0716  0.1466  0.0153
  165loPI    C3 2627   2.228   0.712   9.930 -0.1264  0.1684 -0.2121
  165loPI   PO4 2628   2.373   0.437   9.308 -0.1051 -0.1159  0.1718
  165loPI   GL1 2629   2.254   0.193   8.952 -0.0616  0.0852 -0.0977
  165loPI   GL2 2630   2.443  -0.039   8.896 -0.2829  0.3020  0.2615
  165loPI   C1A 2631   1.969   0.284   8.644 -0.0582 -0.0273 -0.0115
  165loPI   C2A 2632   1.944   0.558   8.281  0.1636  0.2724  0.4254
  165loPI   C3A 2633   2.159   0.644   7.833 -0.4141 -0.3024  0.2236
  165loPI   C4A 2634   2.256   1.090   7.608 -0.0753 -0.0178 -0.1222
  165loPI   C5A 2635   2.513   1.092   7.201  0.0525  0.2171 -0.0693
  165loPI   C6A 2636   2.454   0.806   6.774  0.0737 -0.2695 -0.2760
  165loPI   C1B 2637   2.354  -0.329   8.680 -0.1590  0.4257  0.1063
  165loPI   C2B 2638   2.321  -0.360   8.220 -0.0693  0.0945 -0.1073
  165loPI   C3B 2639   2.300  -0.332   7.829  0.1291 -0.0177  0.1338
  165loPI   C4B 2640   2.490  -0.695   7.709 -0.0085 -0.2627 -0.0153
  166loPI    C1 2641   0.190   3.945  10.026 -0.1726 -0.1429 -0.0053
  166loPI    C2 2642   0.361   3.703   9.756 -0.1180 -0.0249 -0.0771
  166loPI    C3 2643   0.582   3.869  10.045 -0.1598 -0.0796 -0.0135
  166loPI   PO4 2644   0.136   4.211   9.935 -0.2116 -0.0083 -0.4013
  166loPI   GL1 2645  -0.043   4.490   9.530 -0.0408  0.0517  0.3080
  166loPI   GL2 2646  -0.285   4.307   9.368  0.2580 -0.1353  0.1177
  166loPI   C1A 2647  -0.201   4.882   9.438  0.1085  0.0110  0.1234
  166loPI   C2A 2648  -0.186   5.217   9.055 -0.0303  0.1879  0.1664
  166loPI   C3A 2649  -0.274   5.082   8.560  0.1319 -0.2056 -0.2254
  166loPI   C4A 2650  -0.223   5.093   8.083 -0.1623 -0.0482 -0.2105
  166loPI   C5A 2651  -0.129   4.994   7.635 -0.0182 -0.0169 -0.1419
  166loPI   C6A 2652  -0.026   4.753   7.201  0.1365 -0.2650  0.1516
  166loPI   C1B 2653  -0.483   4.029   9.006 -0.0745  0.0172 -0.2200
  166loPI   C2B 2654  -0.684   4.026   8.597 -0.0371 -0.0113  0.0659
  166loPI   C3B 2655  -1.057   4.052   8.388 -0.0177  0.0603 -0.1526
  166loPI   C4B 2656  -1.459   4.208   8.253 -0.0594  0.4314 -0.0824
  167loPI    C1 2657   9.515   7.037   9.450 -0.1121  0.0518  0.1547
  167loPI    C2 2658   9.905   7.064   9.364 -0.0957  0.1227  0.2498
  167loPI    C3 2659   9.787   6.898   9.709 -0.1629 -0.2040  0.0738
  167loPI   PO4 2660   9.488   7.311   9.479  0.1084 -0.2527  0.3355
  167loPI   GL1 2661   9.406   7.541   9.123 -0.2826 -0.4093  0.0862
  167loPI   GL2 2662   9.395   7.864   9.156  0.1291 -0.2725  0.4637
  167loPI   C1A 2663   9.373   7.298   8.680 -0.0835 -0.1813 -0.2202
  167loPI   C2A 2664   9.471   7.549   8.283 -0.0453  0.1132 -0.1808
  167loPI   C3A 2665   9.642   7.812   7.977 -0.5263 -0.1766  0.0614
  167loPI   C4A 2666   9.463   8.071   7.655 -0.2368  0.0510  0.3677
  167loPI   C5A 2667   9.387   8.272   7.249 -0.0271  0.1379 -0.1446
  167loPI   C6A 2668   9.598   8.109   6.919  0.0398 -0.0380 -0.1488
  167loPI   C1B 2669   9.515   7.818   8.696  0.1636 -0.0146 -0.1225
  167loPI   C2B 2670   9.868   7.831   8.412  0.1257 -0.5434  0.2374
  167loPI   C3B 2671  10.037   8.109   8.135  0.2961 -0.0143  0.1682
  167loPI   C4B 2672   9.959   8.042   7.644  0.0012  0.2697  0.1854
  168loPI    C1 2673   9.715  11.910   9.944 -0.2505 -0.1339 -0.0829
  168loPI    C2 2674   9.457  11.850  10.244 -0.0311 -0.1525  0.1056
  168loPI    C3 2675   9.825  11.695  10.264 -0.0960 -0.3717 -0.2917
  168loPI   PO4 2676   9.594  11.899   9.757 -0.1776 -0.2459  0.0487
  168loPI   GL1 2677   9.554  11.708   9.439  0.0184  0.0248  0.2550
  168loPI   GL2 2678   9.756  11.466   9.482 -0.0967  0.1473  0.2558
  168loPI   C1A 2679   9.132  11.793   9.213 -0.6200  0.1544 -0.3499
  168loPI   C2A 2680   9.105  12.089   8.854 -0.0026 -0.2000 -0.4457
  168loPI   C3A 2681   8.954  12.459   8.745 -0.0175 -0.0596 -0.1294
  168loPI   C4A 2682   8.838  12.597   8.326  0.1708 -0.1666  0.1533
  168loPI   C5A 2683   8.585  12.931   8.164  0.0884  0.1000  0.1735
  168loPI   C6A 2684   8.396  13.306   7.835 -0.5547  0.2628  0.1824
  168loPI   C1B 2685   9.888  11.334   9.138 -0.0314  0.1837 -0.0691
  168loPI   C2B 2686  10.043  11.453   8.779  0.0846 -0.4230  0.0372
  168loPI   C3B 2687   9.961  11.490   8.383  0.0500 -0.1327 -0.1060
  168loPI   C4B 2688   9.864  11.342   7.941 -0.0830  0.2918  0.0219
  169loPI    C1 2689   3.005   2.539   9.649  0.1055 -0.2150 -0.0808
  169loPI    C2 2690   3.345   2.575   9.857 -0.0419  0.3006  0.0853
  169loPI    C3 2691   2.993   2.592  10.045 -0.1685 -0.1718 -0.0934
  169loPI   PO4 2692   3.123   2.373   9.444  0.1193  0.1446 -0.1275
  169loPI   GL1 2693   3.326   2.127   9.139  0.0812  0.1466  0.0445
  169loPI   GL2 2694   3.558   1.978   9.277  0.2436 -0.4913  0.0566
  169loPI   C1A 2695   3.462   1.832   8.744 -0.1270 -0.2556  0.0995
  169loPI   C2A 2696   3.554   1.597   8.296 -0.0968 -0.3782  0.1567
  169loPI   C3A 2697   3.678   1.580   7.812 -0.2264  0.1829 -0.1101
  169loPI   C4A 2698   3.829   1.352   7.457 -0.3562  0.3897 -0.1769
  169loPI   C5A 2699   4.271   1.304   7.260 -0.0091 -0.0368 -0.2117
  169loPI   C6A 2700   4.636   1.285   7.163  0.0289 -0.0735 -0.0535
  169loPI   C1B 2701   3.815   2.254   9.058  0.4422  0.0209  0.1372
  169loPI   C2B 2702   3.800   2.457   8.637 -0.3683 -0.3201  0.0771
  169loPI   C3B 2703   3.461   2.211   8.383  0.1283  0.2263 -0.1358
  169loPI   C4B 2704   3.371   2.000   8.007  0.1130 -0.0054  0.4275
  170loPI    C1 2705  14.579   6.261   9.447 -0.0622 -0.1825  0.1053
  170loPI    C2 2706  14.447   6.304   9.823  0.0013  0.2512  0.0836
  170loPI    C3 2707  14.189   6.318   9.518 -0.0460 -0.0689  0.1057
  170loPI   PO4 2708  14.769   6.466   9.387 -0.0568 -0.1121 -0.0724
  170loPI   GL1 2709  14.830   6.595   8.942 -0.1311  0.2173 -0.1221
  170loPI   GL2 2710  15.088   6.630   9.053  0.3645 -0.1353  0.0244
  170loPI   C1A 2711  15.081   6.365   8.523  0.1684 -0.3693  0.0269
  170loPI   C2A 2712  15.226   6.552   8.027  0.1435  0.1552  0.0912
  170loPI   C3A 2713  15.121   6.980   7.806 -0.0679  0.5954 -0.3896
  170loPI   C4A 2714  15.081   7.374   7.739 -0.0490  0.2123 -0.0048
  170loPI   C5A 2715  15.240   7.831   7.696  0.1684 -0.2750 -0.1647
  170loPI   C6A 2716  15.428   8.106   8.069  0.2406 -0.3875 -0.0795
  170loPI   C1B 2717  15.045   6.148   8.929  0.0151  0.1140  0.0970
  170loPI   C2B 2718  14.895   5.928   8.517 -0.2588 -0.0114  0.1171
  170loPI   C3B 2719  14.865   6.150   8.095  0.1401 -0.1713  0.2958
  170loPI   C4B 2720  14.599   6.075   7.724 -0.0717 -0.1053 -0.1799
  171loPI    C1 2721   5.818  18.484  10.075 -0.2271 -0.0872  0.1882
  171loPI    C2 2722   5.955  18.152  10.251 -0.1168 -0.1058  0.0685
  171loPI    C3 2723   5.569  18.181  10.152 -0.0867 -0.2823 -0.1067
  171loPI   PO4 2724   5.982  18.669   9.824 -0.0887 -0.3274 -0.1023
  171loPI   GL1 2725   6.356  18.604   9.447 -0.1769 -0.1259 -0.2060
  171loPI   GL2 2726   5.987  18.486   9.364  0.2398 -0.1406  0.2115
  171loPI   C1A 2727   6.530  18.793   9.086  0.0357 -0.0348 -0.0370
  171loPI   C2A 2728   6.672  18.773   8.628 -0.0276  0.0014  0.5525
  171loPI   C3A 2729   7.123  18.742   8.522 -0.2622 -0.0267 -0.1129
  171loPI   C4A 2730   7.454  18.888   8.156  0.1924 -0.0615 -0.0056
  171loPI   C5A 2731   7.682  19.118   7.954  0.1678  0.1957  0.1251
  171loPI   C6A 2732   7.615  19.559   7.790 -0.2475  0.2244  0.0554
  171loPI   C1B 2733   6.025  18.787   9.074 -0.0223 -0.1098 -0.1817
  171loPI   C2B 2734   6.218  19.023   8.743  0.2750  0.3730  0.1261
  171loPI   C3B 2735   6.233  18.881   8.441  0.0620  0.0976  0.1601
  171loPI   C4B 2736   6.614  18.858   8.145 -0.0449  0.1673 -0.0723
  172loPI    C1 2737   4.184  13.483   9.837  0.1345 -0.0985  0.1702
  172loPI    C2 2738   4.536  13.643   9.940  0.1806 -0.3346  0.3867
  172loPI    C3 2739   4.234  13.636  10.203 -0.0361 -0.0034  0.1553
  172loPI   PO4 2740   4.255  13.463   9.561 -0.1493  0.0463  0.0492
  172loPI   GL1 2741   4.413  13.303   9.219  0.0910  0.0587  0.4393
  172loPI   GL2 2742   4.672  12.979   9.300 -0.0604 -0.0587 -0.3370
  172loPI   C1A 2743   4.585  13.519   8.881 -0.1225 -0.3037  0.0104
  172loPI   C2A 2744   4.572  13.622   8.457 -0.2690  0.2630 -0.0614
  172loPI   C3A 2745   4.486  13.498   7.995 -0.0742  0.0016 -0.3608
  172loPI   C4A 2746   4.534  13.547   7.590 -0.3891  0.0239 -0.2679
  172loPI   C5A 2747   4.176  13.539   7.314  0.1262  0.3791  0.2453
  172loPI   C6A 2748   3.677  13.447   7.365 -0.1917 -0.2121  0.1336
  172loPI   C1B 2749   4.892  13.086   8.929 -0.3535  0.1875  0.1976
  172loPI   C2B 2750   5.257  13.181   8.549  0.1165  0.1079 -0.0014
  172loPI   C3B 2751   5.454  13.180   8.179 -0.3421 -0.1670 -0.1995
  172loPI   C4B 2752   5.584  12.852   7.860  0.0670  0.3066  0.2912
  173loPI    C1 2753   1.496   4.503   9.734  0.2607  0.1639 -0.1092
  173loPI    C2 2754   1.286   4.456  10.072  0.1700 -0.1125 -0.2014
  173loPI    C3 2755   1.318   4.818   9.905  0.3816  0.0646  0.2083
  173loPI   PO4 2756   1.377   4.337   9.570  0.0986  0.0444  0.1872
  173loPI   GL1 2757   1.185   4.092   9.219  0.0448 -0.1927  0.0254
  173loPI   GL2 2758   0.884   4.049   9.250  0.0201 -0.1748  0.0256
  173loPI   C1A 2759   1.189   4.105   8.778 -0.2041  0.1640 -0.1235
  173loPI   C2A 2760   1.188   4.130   8.328 -0.1349  0.0095  0.1514
  173loPI   C3A 2761   1.068   4.136   7.949 -0.1883 -0.0053  0.0220
  173loPI   C4A 2762   1.007   4.145   7.566 -0.1468 -0.0330  0.2413
  173loPI   C5A 2763   1.099   4.326   7.124 -0.2079  0.2787  0.1297
  173loPI   C6A 2764   1.351   4.674   7.048 -0.2859  0.0987  0.3237
  173loPI   C1B 2765   0.689   4.070   8.900  0.0589  0.0876  0.0410
  173loPI   C2B 2766   0.445   3.932   8.599  0.0857 -0.1227  0.0538
  173loPI   C3B 2767   0.235   4.111   8.271 -0.0323  0.0157  0.0929
  173loPI   C4B 2768   0.044   4.128   7.973  0.3159 -0.0768  0.1456
  174loPI    C1 2769   8.391  15.000  10.192  0.1042 -0.1322  0.0592
  174loPI    C2 2770   8.763  15.135  10.249  0.0963 -0.1842  0.2398
  174loPI    C3 2771   8.485  15.191  10.530  0.0193 -0.3236  0.1924
  174loPI   PO4 2772   8.384  14.735  10.136  0.0472 -0.2893  0.4584
  174loPI   GL1 2773   8.337  14.556   9.803 -0.4281 -0.3161  0.2327
  174loPI   GL2 2774   8.542  14.784   9.614  0.1046 -0.1306  0.0849
  174loPI   C1A 2775   8.249  14.460   9.411 -0.2698  0.4166  0.0947
  174loPI   C2A 2776   8.396  14.228   9.008 -0.0798 -0.2691  0.4366
  174loPI   C3A 2777   8.258  14.222   8.570 -0.0600 -0.3824 -0.3591
  174loPI   C4A 2778   8.002  14.556   8.415  0.1499  0.0425  0.1602
  174loPI   C5A 2779   7.893  14.548   7.977 -0.1387 -0.0901 -0.2078
  174loPI   C6A 2780   7.895  14.535   7.550  0.0482  0.0611  0.0510
  174loPI   C1B 2781   8.610  14.752   9.146  0.2554 -0.2211  0.4092
  174loPI   C2B 2782   8.579  14.607   8.748  0.0711 -0.0638 -0.0516
  174loPI   C3B 2783   8.813  14.492   8.421 -0.0834  0.3648  0.1360
  174loPI   C4B 2784   8.953  14.517   8.110 -0.0314  0.3093 -0.0533
  175loPI    C1 2785  16.256  11.571  10.143  0.2212  0.2678 -0.1090
  175loPI    C2 2786  16.357  11.957  10.163  0.1873  0.2680  0.0765
  175loPI    C3 2787  16.114  11.800  10.439 -0.1593  0.2198 -0.2487
  175loPI   PO4 2788  16.470  11.446  10.044 -0.1658  0.1559 -0.1811
  175loPI   GL1 2789  16.611  11.378   9.634  0.1295  0.0810  0.0652
  175loPI   GL2 2790  16.310  11.306   9.633  0.3979  0.1611 -0.1759
  175loPI   C1A 2791  16.804  11.813   9.485 -0.1287  0.2449  0.0824
  175loPI   C2A 2792  17.109  11.839   9.160  0.1708  0.1615  0.0963
  175loPI   C3A 2793  17.139  11.774   8.755  0.0228  0.1438  0.1775
  175loPI   C4A 2794  17.273  11.694   8.462  0.2306  0.1044  0.0050
  175loPI   C5A 2795  17.316  11.439   8.166  0.0393 -0.2294 -0.0214
  175loPI   C6A 2796  17.068  11.420   7.942  0.3074  0.1512 -0.0036
  175loPI   C1B 2797  16.325  11.670   9.377 -0.3440  0.0473  0.1751
  175loPI   C2B 2798  16.300  11.946   8.869  0.1023  0.0178  0.0105
  175loPI   C3B 2799  16.008  11.903   8.525 -0.1224  0.1599  0.2276
  175loPI   C4B 2800  15.698  11.856   8.236 -0.2381 -0.0949  0.1278
  176loPI    C1 2801  14.999  13.709  10.571 -0.0416  0.0233  0.0144
  176loPI    C2 2802  15.138  13.566  10.918 -0.0965  0.0571  0.0506
  176loPI    C3 2803  15.131  13.961  10.853 -0.1085  0.0520  0.0204
  176loPI   PO4 2804  15.097  13.506  10.412 -0.3316 -0.0301  0.0933
  176loPI   GL1 2805  15.351  13.434  10.044 -0.1659  0.0320  0.1126
  176loPI   GL2 2806  15.395  13.063  10.024 -0.2385 -0.0159  0.3161
  176loPI   C1A 2807  15.580  13.462   9.646  0.1409 -0.0891  0.1677
  176loPI   C2A 2808  15.713  13.723   9.493  0.1435 -0.2171 -0.1033
  176loPI   C3A 2809  15.640  13.971   9.156  0.3869  0.2515  0.3126
  176loPI   C4A 2810  15.606  14.127   8.824 -0.1358 -0.3530 -0.2172
  176loPI   C5A 2811  15.585  13.939   8.461  0.3298 -0.1203  0.0866
  176loPI   C6A 2812  15.587  14.202   8.189  0.2208 -0.0361  0.0973
  176loPI   C1B 2813  15.451  12.869   9.607  0.2128  0.0915 -0.1057
  176loPI   C2B 2814  15.580  12.870   9.129 -0.0468 -0.0324  0.1748
  176loPI   C3B 2815  15.744  12.888   8.666 -0.2336 -0.6852 -0.0871
  176loPI   C4B 2816  15.954  12.849   8.319 -0.1845  0.4314  0.1270
  177loPI    C1 2817  14.298  10.781   9.749 -0.2278  0.1175  0.0591
  177loPI    C2 2818  14.592  11.051   9.756 -0.0827 -0.0356 -0.0442
  177loPI    C3 2819  14.412  10.943  10.096 -0.0750  0.1179  0.0096
  177loPI   PO4 2820  14.376  10.608   9.509  0.0138  0.3820  0.0063
  177loPI   GL1 2821  14.288  10.688   9.066 -0.2876  0.0071  0.2232
  177loPI   GL2 2822  13.933  10.594   9.105 -0.0623 -0.0775 -0.0312
  177loPI   C1A 2823  14.308  10.522   8.694  0.0307  0.0052  0.1168
  177loPI   C2A 2824  14.288  10.505   8.247  0.3661 -0.1623  0.3400
  177loPI   C3A 2825  14.253  10.227   7.950 -0.2852 -0.1075  0.1936
  177loPI   C4A 2826  14.106   9.804   7.788 -0.4191 -0.2481  0.0601
  177loPI   C5A 2827  13.905   9.752   7.520 -0.0558  0.4383  0.0291
  177loPI   C6A 2828  13.991   9.534   7.057 -0.2497  0.2976  0.1652
  177loPI   C1B 2829  13.624  10.630   8.898 -0.1843  0.1878  0.0449
  177loPI   C2B 2830  13.476  10.705   8.504 -0.1160  0.1186 -0.1673
  177loPI   C3B 2831  13.520  10.917   8.134 -0.1030  0.0110  0.2817
  177loPI   C4B 2832  13.623  11.188   7.841  0.0879 -0.0215 -0.1847
  178loPI    C1 2833   6.927  14.917   9.808 -0.2343 -0.2589  0.2038
  178loPI    C2 2834   7.048  14.757  10.154  0.0200  0.1075  0.2913
  178loPI    C3 2835   6.930  15.139  10.141 -0.2038  0.0326  0.0134
  178loPI   PO4 2836   6.689  14.773   9.651 -0.1832 -0.2682 -0.0939
  178loPI   GL1 2837   6.834  14.597   9.232  0.2228 -0.1687  0.0800
  178loPI   GL2 2838   6.710  14.824   8.976  0.0531  0.0372  0.0214
  178loPI   C1A 2839   6.874  14.211   9.021  0.0114 -0.2337 -0.1027
  178loPI   C2A 2840   7.048  13.891   8.824  0.0421 -0.0497  0.1822
  178loPI   C3A 2841   7.395  13.933   8.675 -0.1504 -0.0823 -0.0970
  178loPI   C4A 2842   7.732  14.175   8.571 -0.1645  0.1022  0.0817
  178loPI   C5A 2843   7.979  14.110   8.196  0.1412 -0.0433  0.0352
  178loPI   C6A 2844   8.497  14.169   8.092 -0.0055  0.1423  0.0053
  178loPI   C1B 2845   7.089  14.658   8.708  0.1068 -0.0896 -0.0072
  178loPI   C2B 2846   7.373  14.531   8.413  0.1121  0.2097 -0.1243
  178loPI   C3B 2847   7.416  14.202   8.175 -0.4101  0.2128  0.0933
  178loPI   C4B 2848   7.597  14.237   7.766  0.1059  0.2183  0.1957
  179loPI    C1 2849  14.483   8.688   9.626 -0.0749  0.1013  0.1977
  179loPI    C2 2850  14.880   8.739   9.614 -0.0501 -0.0867  0.1821
  179loPI    C3 2851  14.716   8.512   9.900 -0.1220 -0.2175  0.0385
  179loPI   PO4 2852  14.414   8.696   9.432 -0.1938  0.4153  0.0588
  179loPI   GL1 2853  14.420   8.389   9.083  0.1287  0.1163  0.0107
  179loPI   GL2 2854  14.521   8.378   8.742  0.1206  0.1731 -0.1743
  179loPI   C1A 2855  14.097   8.606   8.812  0.0595 -0.0520 -0.3684
  179loPI   C2A 2856  13.745   8.601   8.483 -0.0573 -0.3165 -0.1748
  179loPI   C3A 2857  13.495   8.762   8.191 -0.1915  0.2061  0.0552
  179loPI   C4A 2858  13.416   9.042   7.957  0.0448  0.1112 -0.1265
  179loPI   C5A 2859  13.262   9.121   7.561 -0.2127  0.3784 -0.3120
  179loPI   C6A 2860  12.967   9.365   7.358  0.1915 -0.2485  0.0390
  179loPI   C1B 2861  14.330   8.450   8.346 -0.2173  0.3859 -0.0715
  179loPI   C2B 2862  14.354   8.214   7.976  0.0737  0.0028  0.4212
  179loPI   C3B 2863  14.342   8.101   7.533  0.0164  0.0011 -0.3668
  179loPI   C4B 2864  14.206   8.226   7.114  0.5669 -0.0278 -0.2226
  180loPI    C1 2865   7.546  18.112  10.250 -0.0350 -0.1104 -0.0895
  180loPI    C2 2866   7.773  17.818  10.399 -0.0380 -0.0988 -0.0621
  180loPI    C3 2867   7.917  18.191  10.376 -0.1030 -0.0637  0.0858
  180loPI   PO4 2868   7.466  17.993   9.938 -0.1151 -0.0240  0.1275
  180loPI   GL1 2869   7.644  17.974   9.473 -0.1280  0.2142 -0.0365
  180loPI   GL2 2870   7.854  17.747   9.380  0.2746  0.1370 -0.2163
  180loPI   C1A 2871   7.407  17.985   9.108 -0.0478 -0.0926  0.1720
  180loPI   C2A 2872   7.404  18.190   8.690 -0.0389  0.5633 -0.0428
  180loPI   C3A 2873   7.457  18.334   8.329 -0.2291  0.2560 -0.0129
  180loPI   C4A 2874   7.229  18.457   7.970  0.0352 -0.2132 -0.1838
  180loPI   C5A 2875   7.325  18.293   7.554  0.0676  0.1566 -0.1079
  180loPI   C6A 2876   7.667  18.318   7.338  0.4346  0.1602  0.3059
  180loPI   C1B 2877   8.251  17.623   9.309 -0.1361 -0.2529 -0.0146
  180loPI   C2B 2878   8.576  17.587   9.062  0.0896  0.1438  0.0426
  180loPI   C3B 2879   8.694  17.649   8.653 -0.0832 -0.1313  0.1333
  180loPI   C4B 2880   8.640  17.582   8.188 -0.2407 -0.1723  0.2717
  181loPI    C1 2881   4.521  15.501   9.533 -0.1193 -0.0719 -0.0675
  181loPI    C2 2882   4.447  15.560   9.922 -0.0750  0.1334 -0.0890
  181loPI    C3 2883   4.667  15.248   9.805 -0.1157  0.0529  0.0478
  181loPI   PO4 2884   4.586  15.706   9.374  0.1650 -0.0392  0.0829
  181loPI   GL1 2885   4.820  15.692   8.981  0.1534 -0.0794 -0.2814
  181loPI   GL2 2886   5.017  15.478   9.041 -0.1568  0.1813 -0.2505
  181loPI   C1A 2887   4.589  15.671   8.542  0.1663 -0.1343  0.0374
  181loPI   C2A 2888   4.430  15.776   8.159  0.2066  0.1016 -0.1415
  181loPI   C3A 2889   4.233  15.697   7.803  0.0588  0.1521  0.1054
  181loPI   C4A 2890   3.976  15.688   7.418 -0.2063  0.1834  0.0474
  181loPI   C5A 2891   3.881  15.399   7.005 -0.0980 -0.2597 -0.3807
  181loPI   C6A 2892   3.735  15.452   6.662  0.1213 -0.0276 -0.0428
  181loPI   C1B 2893   4.978  15.377   8.641  0.1277 -0.2004  0.3403
  181loPI   C2B 2894   4.979  15.438   8.189 -0.4635  0.0620 -0.1184
  181loPI   C3B 2895   5.223  15.600   7.917  0.2919 -0.0473  0.0254
  181loPI   C4B 2896   5.255  15.455   7.497  0.0091  0.1878 -0.1181
  182loPI    C1 2897  16.456   5.097  10.306  0.0414  0.0770  0.0264
  182loPI    C2 2898  16.275   5.401  10.119  0.2617  0.1515 -0.0692
  182loPI    C3 2899  16.070   5.174  10.377 -0.0065  0.1405 -0.2871
  182loPI   PO4 2900  16.634   5.082  10.088  0.0025 -0.1306  0.2041
  182loPI   GL1 2901  16.680   4.700   9.721  0.2375  0.2059  0.0595
  182loPI   GL2 2902  16.970   4.723   9.862 -0.2835 -0.1776  0.0330
  182loPI   C1A 2903  16.576   4.913   9.380 -0.2085 -0.2078 -0.1555
  182loPI   C2A 2904  16.614   5.100   8.924  0.0035  0.3781  0.1273
  182loPI   C3A 2905  16.818   4.976   8.669 -0.0138  0.0378 -0.7102
  182loPI   C4A 2906  16.946   4.856   8.240  0.0164 -0.2113 -0.3218
  182loPI   C5A 2907  17.077   5.121   7.861  0.0621 -0.1413  0.0071
  182loPI   C6A 2908  17.579   5.099   7.781 -0.2914 -0.0004  0.6485
  182loPI   C1B 2909  17.080   4.237   9.810 -0.0659  0.1520 -0.1317
  182loPI   C2B 2910  17.018   3.986   9.405 -0.0542 -0.0557 -0.3231
  182loPI   C3B 2911  16.779   4.022   9.017 -0.0071 -0.2589 -0.2497
  182loPI   C4B 2912  16.738   3.708   8.746 -0.3393  0.0647 -0.2323
  183loPI    C1 2913  15.763  15.083  10.344  0.0775  0.0217  0.0267
  183loPI    C2 2914  15.529  15.150  10.662  0.0492  0.1766 -0.0256
  183loPI    C3 2915  15.872  14.949  10.705 -0.1896 -0.2341  0.0163
  183loPI   PO4 2916  15.525  14.989  10.180  0.1543 -0.3468 -0.0639
  183loPI   GL1 2917  15.609  14.920   9.803  0.0279  0.1195  0.4007
  183loPI   GL2 2918  15.410  14.680   9.629 -0.0549 -0.0274 -0.0354
  183loPI   C1A 2919  15.471  15.184   9.438  0.2398  0.0462 -0.1978
  183loPI   C2A 2920  15.200  15.341   9.114 -0.0417 -0.0355  0.1488
  183loPI   C3A 2921  15.097  15.425   8.598  0.0315  0.3872 -0.2125
  183loPI   C4A 2922  14.764  15.795   8.492 -0.2266 -0.3467  0.0519
  183loPI   C5A 2923  14.432  16.062   8.304  0.0855  0.0048  0.0365
  183loPI   C6A 2924  14.258  16.432   8.252  0.1602 -0.1263  0.0863
  183loPI   C1B 2925  15.246  14.334   9.231  0.3012  0.1479 -0.1495
  183loPI   C2B 2926  14.891  14.390   8.908 -0.1685 -0.0860  0.0284
  183loPI   C3B 2927  14.711  14.438   8.537  0.1926  0.0224 -0.0417
  183loPI   C4B 2928  14.680  14.259   8.096  0.0277 -0.0041 -0.1588
  184loPI    C1 2929   5.482  14.341   9.418  0.2725 -0.0247 -0.0963
  184loPI    C2 2930   5.576  14.560   9.739  0.0845  0.0752 -0.1080
  184loPI    C3 2931   5.467  14.177   9.782  0.3201  0.0095 -0.0788
  184loPI   PO4 2932   5.309  14.536   9.257 -0.0420 -0.1829 -0.2606
  184loPI   GL1 2933   5.515  14.800   8.959 -0.0404 -0.1935  0.1816
  184loPI   GL2 2934   5.230  14.843   8.851  0.2765  0.0541  0.1361
  184loPI   C1A 2935   5.800  14.784   8.665  0.2608  0.1740 -0.3813
  184loPI   C2A 2936   5.751  14.787   8.276 -0.2540  0.0115 -0.3463
  184loPI   C3A 2937   5.736  14.731   7.782 -0.2392 -0.0368 -0.0209
  184loPI   C4A 2938   5.842  14.682   7.301  0.0992  0.2059  0.2071
  184loPI   C5A 2939   5.632  14.450   7.034 -0.0215  0.4014 -0.0371
  184loPI   C6A 2940   5.605  14.293   6.481 -0.1138  0.0503 -0.1800
  184loPI   C1B 2941   5.310  14.579   8.477  0.2432 -0.5753  0.2691
  184loPI   C2B 2942   5.390  14.471   8.075 -0.1168 -0.0281  0.0402
  184loPI   C3B 2943   5.262  14.521   7.558 -0.0921 -0.0659  0.1671
  184loPI   C4B 2944   5.168  14.595   7.187 -0.0761 -0.1453 -0.0421
  185loPI    C1 2945  14.523  11.964  10.296  0.0361  0.0420 -0.1235
  185loPI    C2 2946  14.259  11.763  10.518  0.2244 -0.0494  0.0208
  185loPI    C3 2947  14.434  12.091  10.664  0.2301 -0.0189 -0.0540
  185loPI   PO4 2948  14.378  11.930  10.081  0.1446  0.1687  0.2794
  185loPI   GL1 2949  14.599  11.894   9.708 -0.3487 -0.0082 -0.2485
  185loPI   GL2 2950  14.411  12.208   9.603  0.0480 -0.1372  0.2926
  185loPI   C1A 2951  14.688  11.603   9.390  0.2736 -0.0135 -0.0604
  185loPI   C2A 2952  14.754  11.172   9.291  0.2769 -0.0138 -0.2739
  185loPI   C3A 2953  14.828  10.898   8.944  0.1244  0.0243 -0.0837
  185loPI   C4A 2954  14.880  10.845   8.494  0.0005 -0.0596  0.0399
  185loPI   C5A 2955  14.811  11.268   8.298 -0.0983 -0.4313 -0.3903
  185loPI   C6A 2956  14.847  11.661   8.153 -0.0669 -0.3424  0.0440
  185loPI   C1B 2957  14.214  11.947   9.408 -0.0231  0.0751  0.1620
  185loPI   C2B 2958  13.899  11.983   9.013 -0.4579  0.1100  0.0117
  185loPI   C3B 2959  13.789  11.985   8.662 -0.0636  0.2209 -0.0527
  185loPI   C4B 2960  13.408  11.928   8.450 -0.2078  0.1000  0.2435
  186loPI    C1 2961  12.356   0.792  10.161 -0.1743  0.0119  0.0476
  186loPI    C2 2962  12.125   0.473  10.090  0.0733 -0.1427 -0.0829
  186loPI    C3 2963  12.423   0.449  10.356  0.0535  0.0007 -0.0466
  186loPI   PO4 2964  12.472   0.880   9.902  0.3951 -0.1548  0.1370
  186loPI   GL1 2965  12.524   0.636   9.461  0.2820  0.3903  0.1621
  186loPI   GL2 2966  12.155   0.634   9.541  0.0742 -0.0789 -0.0102
  186loPI   C1A 2967  12.502   0.385   9.153  0.1059  0.2233  0.1499
  186loPI   C2A 2968  12.793   0.003   9.096 -0.1583  0.1349 -0.0144
  186loPI   C3A 2969  12.817  -0.414   9.046  0.0072 -0.1000  0.1766
  186loPI   C4A 2970  12.854  -0.616   8.738  0.0525  0.2260  0.4195
  186loPI   C5A 2971  12.835  -0.804   8.361  0.0725 -0.3427 -0.1235
  186loPI   C6A 2972  12.506  -0.965   8.050 -0.2695 -0.2638  0.1575
  186loPI   C1B 2973  11.719   0.886   9.456  0.0128  0.1622 -0.1891
  186loPI   C2B 2974  11.745   1.092   9.077  0.0253  0.1225 -0.1351
  186loPI   C3B 2975  12.095   1.391   8.971 -0.1633  0.1128  0.2189
  186loPI   C4B 2976  12.306   1.502   8.414  0.0406 -0.0844  0.0525
  187loPI    C1 2977   2.164  14.315   9.811  0.1918 -0.0728  0.1347
  187loPI    C2 2978   2.114  13.957   9.982  0.0983 -0.0723  0.1087
  187loPI    C3 2979   2.087  14.290  10.202 -0.3331 -0.0558  0.0395
  187loPI   PO4 2980   2.062  14.323   9.575  0.0709  0.1636  0.1112
  187loPI   GL1 2981   1.906  14.278   9.052  0.0084 -0.0305 -0.0761
  187loPI   GL2 2982   2.174  14.525   9.116  0.1886 -0.0441  0.1397
  187loPI   C1A 2983   1.857  14.392   8.751 -0.2634 -0.0313 -0.3781
  187loPI   C2A 2984   1.565  14.408   8.439  0.0035 -0.1522 -0.0322
  187loPI   C3A 2985   1.254  14.670   8.189  0.1328  0.1281 -0.2032
  187loPI   C4A 2986   1.027  15.086   7.912 -0.3055  0.1115  0.1660
  187loPI   C5A 2987   0.912  15.411   7.613  0.1506  0.0906 -0.1581
  187loPI   C6A 2988   0.650  15.549   7.424  0.1030 -0.3748 -0.2066
  187loPI   C1B 2989   2.349  14.401   8.673  0.2839 -0.3656  0.1217
  187loPI   C2B 2990   2.252  14.165   8.352  0.1640 -0.2336  0.2234
  187loPI   C3B 2991   2.066  14.191   7.997 -0.0652 -0.0072  0.3855
  187loPI   C4B 2992   2.191  14.145   7.543 -0.4964 -0.0371 -0.0258
  188loPI    C1 2993   0.023   8.981  10.084  0.1340  0.0758  0.1264
  188loPI    C2 2994  -0.270   9.252  10.091  0.1664  0.1230 -0.1774
  188loPI    C3 2995   0.110   9.368  10.131  0.1643  0.0941 -0.0703
  188loPI   PO4 2996  -0.001   8.773   9.863 -0.2250 -0.0767 -0.3326
  188loPI   GL1 2997   0.194   8.818   9.491 -0.0680  0.1322 -0.0577
  188loPI   GL2 2998   0.364   8.512   9.340 -0.1006 -0.1631  0.1712
  188loPI   C1A 2999   0.223   8.825   9.033  0.2791  0.2087  0.5972
  188loPI   C2A 3000   0.106   8.739   8.632 -0.2543  0.0116 -0.3577
  188loPI   C3A 3001  -0.011   8.730   8.257 -0.0136 -0.0134  0.0116
  188loPI   C4A 3002  -0.195   8.918   7.854 -0.3014  0.0194  0.0053
  188loPI   C5A 3003  -0.418   9.003   7.504  0.3185  0.0025  0.2613
  188loPI   C6A 3004  -0.826   9.099   7.453 -0.2474 -0.0791  0.0343
  188loPI   C1B 3005   0.280   8.271   9.041  0.0291  0.2166 -0.0911
  188loPI   C2B 3006   0.343   8.200   8.607 -0.2194  0.1115  0.1028
  188loPI   C3B 3007   0.228   8.291   8.241 -0.3012  0.1668  0.1638
  188loPI   C4B 3008   0.110   8.408   7.837 -0.0983  0.4940 -0.0770
  189loPI    C1 3009  12.351   6.952   9.634  0.0321  0.3004  0.0819
  189loPI    C2 3010  12.483   7.004   9.261 -0.0435 -0.1612 -0.0159
  189loPI    C3 3011  12.734   7.044   9.570  0.1242 -0.2095 -0.1445
  189loPI   PO4 3012  12.116   7.167   9.600 -0.2489 -0.2563 -0.1842
  189loPI   GL1 3013  12.157   7.557   9.469  0.0131 -0.1910  0.1366
  189loPI   GL2 3014  12.322   7.513   9.258  0.1916  0.2347 -0.1269
  189loPI   C1A 3015  11.833   7.730   9.134 -0.1862  0.1388  0.0571
  189loPI   C2A 3016  11.648   7.950   8.791  0.1069  0.1677  0.2095
  189loPI   C3A 3017  11.600   8.106   8.385  0.0162  0.2179 -0.2484
  189loPI   C4A 3018  11.254   8.183   8.198 -0.1602 -0.0894  0.3289
  189loPI   C5A 3019  11.040   7.995   7.871  0.1343  0.1742  0.0660
  189loPI   C6A 3020  11.073   7.807   7.555  0.2243  0.0758 -0.1209
  189loPI   C1B 3021  12.143   7.586   8.756  0.0260 -0.2562  0.2470
  189loPI   C2B 3022  12.176   7.616   8.301  0.0163  0.0903  0.1862
  189loPI   C3B 3023  12.061   7.914   8.037 -0.1062 -0.0198  0.0836
  189loPI   C4B 3024  12.111   8.336   7.693 -0.2851  0.0343  0.0826
  190loPI    C1 3025  15.978   6.969  10.420  0.0591 -0.1226 -0.2967
  190loPI    C2 3026  15.704   6.999  10.710  0.0805 -0.3447 -0.2516
  190loPI    C3 3027  16.040   7.216  10.729 -0.0436 -0.1491 -0.2545
  190loPI   PO4 3028  15.823   6.747  10.017 -0.0363 -0.0019  0.0358
  190loPI   GL1 3029  15.933   6.937   9.603 -0.3890 -0.0774 -0.0104
  190loPI   GL2 3030  16.165   6.764   9.413 -0.2723  0.0554  0.3042
  190loPI   C1A 3031  15.678   6.964   9.251 -0.4983 -0.0949  0.0263
  190loPI   C2A 3032  15.435   6.942   8.829 -0.1697  0.0773 -0.4118
  190loPI   C3A 3033  15.264   6.885   8.437 -0.1341  0.4197 -0.4045
  190loPI   C4A 3034  15.213   7.286   8.175 -0.1007  0.1817 -0.4198
  190loPI   C5A 3035  15.524   7.545   7.874  0.0995  0.0926 -0.3060
  190loPI   C6A 3036  15.891   7.830   7.770 -0.2204 -0.1360 -0.1053
  190loPI   C1B 3037  16.208   6.572   9.022 -0.0601  0.4177  0.4966
  190loPI   C2B 3038  16.352   6.513   8.619 -0.1362 -0.1164 -0.0397
  190loPI   C3B 3039  16.185   6.692   8.329 -0.2013  0.0184 -0.3452
  190loPI   C4B 3040  16.041   6.853   7.874 -0.2300 -0.3138 -0.1652
  191loPI    C1 3041   2.119  16.528   9.735  0.2247  0.1933  0.1214
  191loPI    C2 3042   2.384  16.228   9.750  0.1134  0.0666 -0.3037
  191loPI    C3 3043   2.494  16.598   9.856  0.2700 -0.1068  0.1628
  191loPI   PO4 3044   2.011  16.559   9.571 -0.0342 -0.1006  0.2886
  191loPI   GL1 3045   1.853  16.561   9.140 -0.2557  0.4430 -0.1412
  191loPI   GL2 3046   1.955  16.645   8.956  0.0267 -0.0244  0.0416
  191loPI   C1A 3047   1.714  16.292   8.802  0.2942  0.0081 -0.0672
  191loPI   C2A 3048   1.667  16.272   8.380  0.2235  0.0082 -0.1540
  191loPI   C3A 3049   1.524  15.977   8.008 -0.1083 -0.0426  0.0017
  191loPI   C4A 3050   1.635  15.910   7.496 -0.1489 -0.1696 -0.3316
  191loPI   C5A 3051   1.540  16.182   7.119  0.0725 -0.1097  0.5880
  191loPI   C6A 3052   1.408  16.635   7.103 -0.0211  0.1109  0.2760
  191loPI   C1B 3053   2.100  16.708   8.601  0.0645 -0.0387  0.2510
  191loPI   C2B 3054   1.973  16.635   8.170  0.2339 -0.4026 -0.0604
  191loPI   C3B 3055   1.821  16.327   7.795 -0.2099 -0.0789 -0.1304
  191loPI   C4B 3056   1.481  16.369   7.557 -0.0238  0.1862 -0.0026
  192loPI    C1 3057   3.606   5.491   9.514 -0.1437 -0.1921 -0.1548
  192loPI    C2 3058   3.843   5.179   9.591  0.1740  0.0498 -0.1317
  192loPI    C3 3059   3.612   5.330   9.880  0.0742 -0.1154 -0.1234
  192loPI   PO4 3060   3.602   5.511   9.296 -0.3337 -0.3764 -0.0270
  192loPI   GL1 3061   3.420   5.207   9.049 -0.0004 -0.1016 -0.1633
  192loPI   GL2 3062   3.314   5.517   8.874 -0.3752  0.0884  0.0733
  192loPI   C1A 3063   3.420   5.173   8.539 -0.0521  0.2852 -0.0625
  192loPI   C2A 3064   3.383   5.213   8.130 -0.0814 -0.3099  0.2644
  192loPI   C3A 3065   3.177   5.063   7.781 -0.2964  0.2199  0.0310
  192loPI   C4A 3066   2.843   5.279   7.528 -0.0443 -0.1556  0.1390
  192loPI   C5A 3067   2.588   5.414   7.150 -0.0738  0.0816 -0.0930
  192loPI   C6A 3068   2.274   5.358   7.042  0.0552 -0.1629 -0.0551
  192loPI   C1B 3069   3.132   5.714   8.508 -0.0886 -0.0024  0.1206
  192loPI   C2B 3070   3.265   5.844   8.151 -0.1018 -0.3204 -0.0185
  192loPI   C3B 3071   3.502   5.946   7.637 -0.2109 -0.1922 -0.2928
  192loPI   C4B 3072   3.308   6.345   7.375 -0.0153 -0.0228 -0.0623
  193loPI    C1 3073   9.034   4.446   9.585 -0.1655  0.0638 -0.2291
  193loPI    C2 3074   8.743   4.417   9.313 -0.0514 -0.2004 -0.3266
  193loPI    C3 3075   8.652   4.430   9.702 -0.2184  0.2349 -0.3741
  193loPI   PO4 3076   9.225   4.574   9.454 -0.2089  0.4324  0.0084
  193loPI   GL1 3077   9.451   4.508   9.067 -0.1473 -0.1551  0.1890
  193loPI   GL2 3078   9.168   4.279   9.072  0.0944 -0.2050  0.2629
  193loPI   C1A 3079   9.345   4.599   8.599  0.1341 -0.1426  0.2767
  193loPI   C2A 3080   9.017   4.796   8.357 -0.2376 -0.0033  0.0725
  193loPI   C3A 3081   8.921   4.783   7.928  0.0383 -0.3181  0.0501
  193loPI   C4A 3082   8.854   4.694   7.417 -0.1824 -0.1746  0.2997
  193loPI   C5A 3083   8.939   4.943   7.127 -0.1158  0.0603 -0.4005
  193loPI   C6A 3084   8.674   5.327   7.033  0.1989 -0.0194  0.1924
  193loPI   C1B 3085   8.932   4.324   8.735 -0.0600  0.0719  0.0015
  193loPI   C2B 3086   9.054   4.207   8.335  0.1378  0.5596  0.0844
  193loPI   C3B 3087   9.321   4.214   8.040  0.2125  0.1532  0.3921
  193loPI   C4B 3088   9.408   4.316   7.597 -0.0869 -0.1549 -0.3045
  194loPI    C1 3089  16.249  13.159  10.214 -0.2139  0.1011 -0.1779
  194loPI    C2 3090  16.138  12.774  10.230  0.0981  0.0093 -0.1640
  194loPI    C3 3091  16.123  13.001  10.559  0.1674 -0.0650 -0.1091
  194loPI   PO4 3092  16.477  13.155  10.102 -0.2768 -0.1201 -0.0126
  194loPI   GL1 3093  16.574  12.850   9.760 -0.3448 -0.1501 -0.2327
  194loPI   GL2 3094  16.409  12.680   9.784  0.2159  0.1076 -0.0781
  194loPI   C1A 3095  16.429  13.074   9.454  0.0751  0.0059 -0.1030
  194loPI   C2A 3096  16.088  12.951   9.155 -0.2221  0.3242  0.0949
  194loPI   C3A 3097  16.233  12.893   8.705 -0.1107 -0.0509 -0.1124
  194loPI   C4A 3098  16.301  13.235   8.365 -0.0955  0.2176 -0.3251
  194loPI   C5A 3099  16.495  13.509   8.017  0.1855  0.3723  0.1585
  194loPI   C6A 3100  16.351  13.815   7.742 -0.0964 -0.0393  0.0418
  194loPI   C1B 3101  16.214  12.564   9.415  0.1568 -0.0684 -0.2094
  194loPI   C2B 3102  15.934  12.465   9.050 -0.1689 -0.1051  0.2623
  194loPI   C3B 3103  15.831  12.429   8.636  0.0374 -0.2671  0.1427
  194loPI   C4B 3104  15.504  12.271   8.431  0.4385  0.1794  0.0993
  195loPI    C1 3105   2.770   9.443   9.807  0.0640  0.0362 -0.1941
  195loPI    C2 3106   2.942   9.576  10.142  0.1223  0.1639 -0.2739
  195loPI    C3 3107   2.558   9.464  10.145  0.0621  0.3686 -0.2129
  195loPI   PO4 3108   3.006   9.609   9.539 -0.0711  0.5341  0.1531
  195loPI   GL1 3109   2.910   9.667   9.071 -0.3161  0.1294 -0.0103
  195loPI   GL2 3110   2.719   9.554   9.048 -0.1157  0.2682  0.1588
  195loPI   C1A 3111   3.161   9.463   8.739  0.2482  0.2885  0.2095
  195loPI   C2A 3112   3.252   9.459   8.261  0.0338 -0.0028  0.3398
  195loPI   C3A 3113   3.293   9.365   7.793 -0.2293 -0.0595 -0.2163
  195loPI   C4A 3114   3.117   9.408   7.347 -0.0269  0.0325  0.1869
  195loPI   C5A 3115   2.871   8.999   7.094  0.2231  0.1006  0.0857
  195loPI   C6A 3116   2.535   8.560   7.104  0.0057 -0.3039 -0.0114
  195loPI   C1B 3117   2.707   9.514   8.608  0.1452 -0.0520 -0.1201
  195loPI   C2B 3118   2.802   9.233   8.194 -0.0353 -0.0999 -0.1540
  195loPI   C3B 3119   2.899   9.045   7.752  0.4327  0.2562 -0.0511
  195loPI   C4B 3120   2.611   8.890   7.490 -0.0298  0.1057 -0.0464
  196loPI    C1 3121   1.198   7.150   9.862 -0.0818  0.0053 -0.0355
  196loPI    C2 3122   1.310   7.504  10.012  0.2350 -0.0803 -0.0630
  196loPI    C3 3123   1.301   7.180  10.247 -0.0485 -0.0573 -0.0393
  196loPI   PO4 3124   1.087   7.235   9.605  0.1468  0.0104 -0.2364
  196loPI   GL1 3125   0.947   7.111   9.195  0.2642  0.1031 -0.3835
  196loPI   GL2 3126   0.817   7.377   9.181 -0.2233 -0.1947 -0.1824
  196loPI   C1A 3127   0.766   6.980   8.840  0.1432  0.0434  0.2467
  196loPI   C2A 3128   0.854   7.072   8.497 -0.1301  0.0567 -0.0637
  196loPI   C3A 3129   0.708   7.467   8.198  0.0269  0.2629 -0.1648
  196loPI   C4A 3130   0.622   7.603   7.770 -0.0246  0.0850  0.5858
  196loPI   C5A 3131   0.862   7.899   7.458 -0.1993 -0.1158 -0.1418
  196loPI   C6A 3132   1.189   8.127   7.315 -0.0583  0.4144  0.6905
  196loPI   C1B 3133   0.763   7.505   8.764 -0.0510  0.0696 -0.1722
  196loPI   C2B 3134   0.592   7.742   8.559 -0.0395 -0.0321 -0.1489
  196loPI   C3B 3135   0.590   7.921   8.217  0.0626  0.1854  0.0252
  196loPI   C4B 3136   0.580   8.229   7.788 -0.3066  0.2797 -0.3664
  197loPI    C1 3137  15.485  11.344  10.136 -0.1034 -0.0043 -0.0107
  197loPI    C2 3138  15.437  11.096  10.446 -0.0500  0.1328  0.1085
  197loPI    C3 3139  15.794  11.264  10.378  0.0467 -0.2085 -0.2648
  197loPI   PO4 3140  15.423  11.208   9.922  0.1038  0.0955  0.1735
  197loPI   GL1 3141  15.640  11.233   9.576 -0.0842  0.0394  0.0750
  197loPI   GL2 3142  15.561  11.034   9.286  0.0057 -0.0349 -0.3013
  197loPI   C1A 3143  15.735  11.509   9.214 -0.1361 -0.2141 -0.2912
  197loPI   C2A 3144  15.718  11.307   8.908 -0.1126  0.2049  0.0588
  197loPI   C3A 3145  15.669  11.005   8.613  0.0915 -0.3599 -0.0138
  197loPI   C4A 3146  15.775  10.600   8.429 -0.1475 -0.0508  0.2044
  197loPI   C5A 3147  15.727  10.416   8.016 -0.1480  0.0090 -0.3910
  197loPI   C6A 3148  15.828  10.670   7.618  0.1040 -0.1565 -0.1603
  197loPI   C1B 3149  15.229  11.195   9.047 -0.0714 -0.0968  0.0359
  197loPI   C2B 3150  15.292  11.365   8.655  0.4747  0.1997  0.0206
  197loPI   C3B 3151  15.292  11.406   8.245 -0.0875 -0.0566 -0.0367
  197loPI   C4B 3152  15.097  11.322   7.881  0.2432  0.1793  0.1825
  198loPI    C1 3153  12.931   7.448   9.758  0.0398 -0.1307 -0.0936
  198loPI    C2 3154  12.890   7.172  10.045 -0.0705 -0.1753 -0.1518
  198loPI    C3 3155  13.246   7.342   9.980 -0.0667 -0.0913  0.0791
  198loPI   PO4 3156  12.716   7.542   9.568 -0.3892 -0.0465  0.0740
  198loPI   GL1 3157  12.798   7.632   9.160  0.0389  0.0516 -0.3512
  198loPI   GL2 3158  12.712   7.378   8.968  0.1140 -0.0404  0.0379
  198loPI   C1A 3159  13.057   7.765   8.849 -0.1068 -0.2167  0.1340
  198loPI   C2A 3160  13.100   7.600   8.413 -0.3017  0.0155 -0.3911
  198loPI   C3A 3161  13.048   7.534   7.984 -0.0375 -0.1459 -0.1010
  198loPI   C4A 3162  13.059   7.723   7.667  0.0558  0.2158 -0.0990
  198loPI   C5A 3163  13.250   7.624   7.242  0.0520  0.3523 -0.6094
  198loPI   C6A 3164  13.230   7.361   7.057 -0.0453  0.0296  0.0983
  198loPI   C1B 3165  12.667   7.582   8.558 -0.0709  0.3040  0.1571
  198loPI   C2B 3166  12.630   7.730   8.185 -0.0532  0.2936 -0.1415
  198loPI   C3B 3167  12.549   7.935   7.758  0.0021 -0.2328  0.2517
  198loPI   C4B 3168  12.371   7.844   7.357 -0.3314  0.0034  0.1052
  199loPI    C1 3169  12.207  13.120  10.871 -0.0725 -0.2068 -0.0365
  199loPI    C2 3170  12.329  13.353  10.569  0.1410 -0.0562  0.1621
  199loPI    C3 3171  12.193  13.518  10.907 -0.1317 -0.2239  0.1380
  199loPI   PO4 3172  12.053  12.899  10.635 -0.0932 -0.0395  0.0507
  199loPI   GL1 3173  12.163  12.959  10.167 -0.1552  0.1071  0.3059
  199loPI   GL2 3174  12.465  12.732  10.018  0.0272 -0.1022  0.0567
  199loPI   C1A 3175  12.049  12.982   9.714 -0.3729  0.0159  0.0760
  199loPI   C2A 3176  12.144  12.956   9.253 -0.2232 -0.3463  0.2726
  199loPI   C3A 3177  12.361  12.959   8.754  0.0983  0.1012 -0.5973
  199loPI   C4A 3178  12.300  13.069   8.356 -0.2310  0.0570 -0.1715
  199loPI   C5A 3179  12.301  13.392   7.990  0.0619  0.1636 -0.0383
  199loPI   C6A 3180  11.874  13.620   7.824 -0.1756 -0.2057  0.1159
  199loPI   C1B 3181  12.359  12.527   9.586 -0.3381  0.0187  0.1272
  199loPI   C2B 3182  12.521  12.634   9.188  0.1459 -0.1845  0.2249
  199loPI   C3B 3183  12.696  12.558   8.733  0.0223  0.0104 -0.4123
  199loPI   C4B 3184  12.764  12.706   8.291  0.1726  0.1442  0.2049
  200loPI    C1 3185   9.831  13.317  10.366  0.1271 -0.0580 -0.2759
  200loPI    C2 3186   9.585  13.614  10.471 -0.1075 -0.3607  0.0563
  200loPI    C3 3187   9.961  13.608  10.608 -0.0669 -0.1626 -0.0421
  200loPI   PO4 3188   9.919  13.321  10.112  0.0463  0.1637  0.0126
  200loPI   GL1 3189  10.057  12.935   9.886 -0.2592 -0.3110  0.1598
  200loPI   GL2 3190  10.328  13.097   9.978 -0.2423 -0.2440 -0.0209
  200loPI   C1A 3191  10.208  12.962   9.412  0.0717  0.2110 -0.3316
  200loPI   C2A 3192  10.414  12.819   9.006 -0.2052 -0.1565 -0.1314
  200loPI   C3A 3193  10.608  12.772   8.730  0.0760  0.1624  0.1233
  200loPI   C4A 3194  10.371  12.826   8.278  0.0618  0.1235 -0.1213
  200loPI   C5A 3195  10.214  12.712   7.853 -0.0274  0.0033 -0.0848
  200loPI   C6A 3196   9.976  12.541   7.490  0.4248  0.0296 -0.0919
  200loPI   C1B 3197  10.545  12.696   9.731  0.2553  0.0838 -0.0354
  200loPI   C2B 3198  10.731  12.602   9.373 -0.1239  0.2010  0.1995
  200loPI   C3B 3199  10.928  12.592   8.995 -0.4490  0.0905 -0.1940
  200loPI   C4B 3200  11.176  12.888   8.760  0.0881  0.2248 -0.2577
  201loPI    C1 3201   6.250  13.440  10.178  0.0672  0.1545 -0.0764
  201loPI    C2 3202   6.055  13.095  10.126  0.0312  0.1286  0.2169
  201loPI    C3 3203   5.863  13.413  10.274  0.1377  0.1885  0.2272
  201loPI   PO4 3204   6.355  13.517   9.916  0.2067 -0.3199 -0.2222
  201loPI   GL1 3205   6.211  13.580   9.437 -0.0525 -0.0758  0.0609
  201loPI   GL2 3206   6.030  13.357   9.221 -0.3072  0.4999 -0.0329
  201loPI   C1A 3207   6.235  13.884   9.090 -0.0782  0.2769  0.2426
  201loPI   C2A 3208   6.080  13.796   8.722 -0.0106  0.0819 -0.2052
  201loPI   C3A 3209   6.115  13.693   8.290 -0.1782  0.2413  0.3659
  201loPI   C4A 3210   6.281  13.798   7.839 -0.2738  0.0752 -0.0233
  201loPI   C5A 3211   6.529  14.073   7.473 -0.1117 -0.0926 -0.2918
  201loPI   C6A 3212   6.990  14.133   7.417 -0.2656 -0.2266  0.0307
  201loPI   C1B 3213   6.178  13.245   8.801 -0.0985 -0.1286  0.0712
  201loPI   C2B 3214   6.413  13.235   8.422  0.3956 -0.3225 -0.1921
  201loPI   C3B 3215   6.714  13.178   8.229  0.0505  0.1141  0.3783
  201loPI   C4B 3216   7.176  13.148   8.119  0.2278 -0.0038 -0.0625
  202loPI    C1 3217  16.853   7.338   9.778 -0.0076  0.1254 -0.2122
  202loPI    C2 3218  17.038   7.623   9.566  0.1592  0.0815 -0.1269
  202loPI    C3 3219  16.643   7.572   9.530  0.1355  0.2929 -0.1768
  202loPI   PO4 3220  17.225   7.123   9.708 -0.1351 -0.0620 -0.2324
  202loPI   GL1 3221  17.510   7.074   9.374 -0.0298  0.1290  0.0187
  202loPI   GL2 3222  17.779   6.995   9.386  0.0268 -0.0757 -0.2364
  202loPI   C1A 3223  17.786   7.356   9.074  0.0849  0.4303 -0.0174
  202loPI   C2A 3224  17.794   7.076   8.654  0.0378 -0.2423 -0.1815
  202loPI   C3A 3225  17.778   6.821   8.350 -0.2366  0.0526  0.1512
  202loPI   C4A 3226  17.799   6.481   8.022 -0.2203  0.1226  0.1783
  202loPI   C5A 3227  17.934   6.018   8.038 -0.2235 -0.1440  0.1254
  202loPI   C6A 3228  18.216   5.744   7.985  0.1668 -0.1412  0.1095
  202loPI   C1B 3229  17.589   6.621   9.101 -0.1313  0.5551 -0.0599
  202loPI   C2B 3230  17.481   6.581   8.664  0.1888  0.0298  0.4736
  202loPI   C3B 3231  17.204   6.444   8.328 -0.1976 -0.2436  0.1899
  202loPI   C4B 3232  17.046   6.488   7.836 -0.1027  0.0314 -0.0426
  203loPI    C1 3233   7.846  16.375  10.006  0.1480 -0.1711  0.0763
  203loPI    C2 3234   7.574  16.637  10.137  0.0004 -0.3780  0.1899
  203loPI    C3 3235   7.943  16.761  10.044 -0.1274 -0.0970  0.0456
  203loPI   PO4 3236   7.744  16.226   9.841  0.1195 -0.2298  0.1927
  203loPI   GL1 3237   7.564  16.307   9.429 -0.0077  0.2304  0.0124
  203loPI   GL2 3238   7.446  16.074   9.210 -0.2290 -0.0684  0.3945
  203loPI   C1A 3239   7.830  16.518   9.153 -0.4199  0.3443 -0.0240
  203loPI   C2A 3240   7.928  16.512   8.783 -0.2678  0.1281 -0.1001
  203loPI   C3A 3241   7.810  16.338   8.400  0.2949  0.4215 -0.0252
  203loPI   C4A 3242   7.775  16.383   7.922  0.1787 -0.0520  0.2548
  203loPI   C5A 3243   7.441  16.346   7.582  0.0048  0.0422 -0.1465
  203loPI   C6A 3244   7.244  16.621   7.345  0.2732 -0.0785  0.1018
  203loPI   C1B 3245   7.515  16.129   8.832 -0.0674  0.1910  0.2064
  203loPI   C2B 3246   7.474  16.018   8.372 -0.2245  0.0746  0.0845
  203loPI   C3B 3247   7.194  16.032   8.113 -0.2302  0.0828 -0.1344
  203loPI   C4B 3248   7.040  16.066   7.730  0.1103  0.1843 -0.1334
  204loPI    C1 3249   5.542  16.618   9.725 -0.1618  0.1780 -0.1160
  204loPI    C2 3250   5.528  16.989   9.875  0.0728  0.0945  0.1202
  204loPI    C3 3251   5.349  16.688  10.069  0.1960  0.0222  0.1234
  204loPI   PO4 3252   5.468  16.767   9.361  0.3513 -0.0453  0.1292
  204loPI   GL1 3253   5.359  17.008   9.006 -0.0940  0.0294 -0.2581
  204loPI   GL2 3254   5.431  17.284   9.021 -0.0281 -0.1402 -0.0039
  204loPI   C1A 3255   5.218  16.958   8.531  0.0605  0.1136 -0.1063
  204loPI   C2A 3256   5.582  17.015   8.111 -0.0811  0.2338  0.2716
  204loPI   C3A 3257   5.810  16.997   7.734 -0.1443 -0.0989  0.3457
  204loPI   C4A 3258   5.639  16.599   7.457 -0.1852  0.1391 -0.0896
  204loPI   C5A 3259   6.003  16.466   7.147 -0.1042  0.0120 -0.0246
  204loPI   C6A 3260   6.326  16.313   6.922  0.2017  0.1641 -0.3408
  204loPI   C1B 3261   5.610  17.345   8.619 -0.1119  0.1074  0.0244
  204loPI   C2B 3262   5.663  17.521   8.224  0.0485  0.2581 -0.1774
  204loPI   C3B 3263   5.854  17.615   7.854  0.0458 -0.0771  0.2281
  204loPI   C4B 3264   6.281  17.347   7.661 -0.0082 -0.1126  0.0675
  205loPI    C1 3265  13.682   1.809  10.350  0.0338  0.0274 -0.0272
  205loPI    C2 3266  13.787   2.179  10.457 -0.0456  0.1100 -0.2312
  205loPI    C3 3267  13.410   2.102  10.347 -0.0090 -0.0131 -0.2717
  205loPI   PO4 3268  13.912   1.737  10.226 -0.0191 -0.1805  0.1442
  205loPI   GL1 3269  14.063   1.400   9.966  0.0020  0.0804 -0.1344
  205loPI   GL2 3270  14.330   1.166  10.050 -0.0840 -0.2486 -0.0733
  205loPI   C1A 3271  14.162   1.363   9.473 -0.0573  0.1266  0.1259
  205loPI   C2A 3272  14.205   1.247   9.016  0.1812 -0.0046 -0.1981
  205loPI   C3A 3273  14.467   1.225   8.738  0.1235 -0.1895  0.2612
  205loPI   C4A 3274  14.671   0.972   8.452  0.1437  0.1075 -0.2395
  205loPI   C5A 3275  15.134   0.888   8.276  0.1140  0.1070 -0.3605
  205loPI   C6A 3276  15.401   1.048   8.052  0.1092 -0.0076 -0.2980
  205loPI   C1B 3277  14.422   0.905   9.689  0.0770  0.4101 -0.1111
  205loPI   C2B 3278  14.496   0.923   9.365 -0.0946 -0.1547 -0.0576
  205loPI   C3B 3279  14.687   0.806   9.065  0.0465 -0.1979  0.2421
  205loPI   C4B 3280  15.001   0.749   8.764 -0.1315 -0.0876 -0.2495
  206loPI    C1 3281  17.336   7.646   9.954  0.4307 -0.5077  0.0423
  206loPI    C2 3282  17.514   7.501  10.282 -0.0531 -0.6428  0.2544
  206loPI    C3 3283  17.157   7.359  10.169 -0.1860 -0.1525  0.0284
  206loPI   PO4 3284  17.362   7.934   9.930  0.0728  0.1213  0.0601
  206loPI   GL1 3285  17.409   7.967   9.494 -0.0008  0.0059  0.0759
  206loPI   GL2 3286  17.511   7.570   9.470  0.4097 -0.1508  0.3110
  206loPI   C1A 3287  17.329   8.116   9.160  0.2692 -0.2228 -0.1793
  206loPI   C2A 3288  17.036   8.270   8.910  0.0450  0.2189  0.1705
  206loPI   C3A 3289  17.163   8.580   8.502 -0.1357  0.1209  0.1725
  206loPI   C4A 3290  16.869   8.789   8.246  0.0024  0.3722 -0.1491
  206loPI   C5A 3291  16.847   8.779   7.845 -0.0010 -0.1678 -0.3644
  206loPI   C6A 3292  16.793   9.118   7.528 -0.0175 -0.3070 -0.1864
  206loPI   C1B 3293  17.290   7.482   9.066  0.0191 -0.2959  0.0061
  206loPI   C2B 3294  17.456   7.460   8.670 -0.0584 -0.0359  0.0559
  206loPI   C3B 3295  17.675   7.372   8.317  0.1092 -0.3231 -0.5062
  206loPI   C4B 3296  17.717   7.182   7.817 -0.1133  0.2128 -0.2381
  207loPI    C1 3297  13.383   5.733   9.471 -0.0419 -0.2317 -0.1698
  207loPI    C2 3298  13.781   5.705   9.498 -0.0317 -0.2526 -0.3336
  207loPI    C3 3299  13.614   5.897   9.189 -0.1425  0.0257 -0.1048
  207loPI   PO4 3300  13.298   5.419   9.486 -0.1801  0.2208  0.0348
  207loPI   GL1 3301  13.448   5.186   9.160  0.4326  0.1631  0.1904
  207loPI   GL2 3302  13.679   5.377   9.164 -0.1174 -0.0487  0.1919
  207loPI   C1A 3303  13.611   4.871   8.877  0.0838 -0.1810 -0.2834
  207loPI   C2A 3304  13.781   4.760   8.592  0.1055 -0.3450 -0.2720
  207loPI   C3A 3305  13.938   4.611   8.235 -0.0430 -0.0606 -0.4705
  207loPI   C4A 3306  14.054   4.982   7.961  0.0453  0.3096 -0.2045
  207loPI   C5A 3307  13.814   5.094   7.538 -0.1461  0.2939 -0.2003
  207loPI   C6A 3308  13.697   5.541   7.437 -0.2250  0.3510 -0.1549
  207loPI   C1B 3309  13.785   5.589   8.728  0.0320 -0.3675 -0.1509
  207loPI   C2B 3310  13.755   5.798   8.304  0.1345 -0.0786  0.0236
  207loPI   C3B 3311  13.681   5.782   7.885 -0.1258 -0.0412 -0.1638
  207loPI   C4B 3312  13.465   6.079   7.511  0.3195  0.4751  0.2752
  208loPI    C1 3313  14.197  12.921  10.820 -0.2982  0.0757 -0.0731
  208loPI    C2 3314  14.258  12.526  10.824  0.1647  0.1418  0.2029
  208loPI    C3 3315  14.413  12.755  11.113  0.1352  0.5597 -0.1025
  208loPI   PO4 3316  14.230  12.996  10.578  0.1531  0.1062  0.1323
  208loPI   GL1 3317  14.190  12.932  10.089  0.1216 -0.1504 -0.2427
  208loPI   GL2 3318  14.270  12.623   9.821 -0.2332  0.3225 -0.1730
  208loPI   C1A 3319  14.036  13.080   9.672  0.0374 -0.2004 -0.0011
  208loPI   C2A 3320  14.130  13.073   9.181 -0.0048 -0.1780 -0.0973
  208loPI   C3A 3321  14.213  13.128   8.641  0.0780 -0.2942 -0.3254
  208loPI   C4A 3322  14.435  12.744   8.425 -0.1340  0.0994 -0.0251
  208loPI   C5A 3323  14.429  12.315   8.408 -0.3797 -0.2844  0.0061
  208loPI   C6A 3324  14.526  12.041   8.125 -0.3279 -0.1044  0.1742
  208loPI   C1B 3325  14.295  12.693   9.403  0.1461 -0.1425 -0.0459
  208loPI   C2B 3326  14.466  12.801   8.987  0.0415 -0.0112  0.2236
  208loPI   C3B 3327  14.770  12.462   8.768  0.0880 -0.0843 -0.0602
  208loPI   C4B 3328  15.206  12.582   8.672 -0.2399  0.0691  0.0971
  209loPI    C1 3329  12.258  16.422  10.323  0.4033  0.0401 -0.0492
  209loPI    C2 3330  11.904  16.343  10.490  0.3119  0.3193 -0.1047
  209loPI    C3 3331  12.229  16.382  10.720  0.3207  0.0033 -0.0589
  209loPI   PO4 3332  12.159  16.580  10.118  0.1033  0.2880 -0.0134
  209loPI   GL1 3333  12.303  16.654   9.685  0.3827 -0.2369 -0.3539
  209loPI   GL2 3334  12.516  16.921   9.571  0.0926  0.3615 -0.1359
  209loPI   C1A 3335  11.918  16.799   9.560  0.2084 -0.0678 -0.0527
  209loPI   C2A 3336  11.784  17.007   9.237  0.0419  0.1566 -0.1585
  209loPI   C3A 3337  11.874  17.072   8.816 -0.0721 -0.0197 -0.2196
  209loPI   C4A 3338  11.876  16.860   8.423  0.1155 -0.0406  0.0139
  209loPI   C5A 3339  11.963  16.614   8.226  0.3677 -0.4806 -0.1308
  209loPI   C6A 3340  12.210  16.675   7.899  0.5310  0.1915 -0.0210
  209loPI   C1B 3341  12.379  16.702   9.196  0.1895  0.0877 -0.1317
  209loPI   C2B 3342  12.299  16.865   8.853 -0.2138  0.2287 -0.1302
  209loPI   C3B 3343  12.346  17.025   8.479  0.1260  0.1114 -0.0046
  209loPI   C4B 3344  12.442  17.125   7.970 -0.1988 -0.1732  0.0721
  210loPI    C1 3345   8.429   4.919   9.349 -0.0086 -0.1162  0.1082
  210loPI    C2 3346   8.374   4.939   9.745 -0.0858 -0.0115  0.0926
  210loPI    C3 3347   8.244   4.620   9.541 -0.1093 -0.0332  0.1414
  210loPI   PO4 3348   8.616   5.146   9.228 -0.0893  0.5092 -0.3858
  210loPI   GL1 3349   8.662   5.524   9.039  0.0257  0.2503 -0.1877
  210loPI   GL2 3350   8.950   5.654   9.149 -0.4220 -0.1140  0.1680
  210loPI   C1A 3351   8.450   5.785   8.791  0.1242 -0.1857 -0.0969
  210loPI   C2A 3352   8.243   6.228   8.556  0.1505  0.3271  0.1471
  210loPI   C3A 3353   8.070   6.313   8.217  0.0252 -0.0728 -0.0271
  210loPI   C4A 3354   8.001   6.479   7.759  0.0632  0.2669 -0.1450
  210loPI   C5A 3355   7.924   6.742   7.332 -0.1326  0.1176  0.2245
  210loPI   C6A 3356   7.732   7.081   7.137 -0.3023 -0.1862 -0.0163
  210loPI   C1B 3357   9.067   5.773   8.774 -0.3485  0.1597  0.3105
  210loPI   C2B 3358   9.123   5.814   8.315  0.2513 -0.0450 -0.1278
  210loPI   C3B 3359   9.094   5.823   7.926  0.1573  0.1269 -0.1351
  210loPI   C4B 3360   8.822   5.736   7.629 -0.1402  0.0923  0.0393
  211loPI    C1 3361  10.433  16.122  10.545 -0.1987  0.0223 -0.0169
  211loPI    C2 3362  10.059  16.157  10.683 -0.1940  0.0043  0.0000
  211loPI    C3 3363  10.192  15.802  10.554 -0.1171 -0.0347  0.1836
  211loPI   PO4 3364  10.393  16.356  10.338 -0.4006 -0.1088  0.4154
  211loPI   GL1 3365  10.460  16.215   9.837 -0.4393  0.2198 -0.0370
  211loPI   GL2 3366  10.768  16.204   9.823 -0.0531  0.0442 -0.3323
  211loPI   C1A 3367  10.574  16.125   9.382 -0.0919  0.0615  0.1340
  211loPI   C2A 3368  10.658  16.055   8.953 -0.1065 -0.4047  0.0369
  211loPI   C3A 3369  10.957  15.911   8.677  0.0648 -0.0375 -0.1782
  211loPI   C4A 3370  11.055  16.030   8.219  0.1843  0.0489  0.1947
  211loPI   C5A 3371  11.071  16.022   7.834 -0.1878 -0.0721 -0.1007
  211loPI   C6A 3372  10.928  16.073   7.309 -0.0865  0.1474  0.0937
  211loPI   C1B 3373  11.193  16.273   9.712 -0.2261 -0.0296  0.2349
  211loPI   C2B 3374  11.602  16.464   9.349  0.3654 -0.1777 -0.1893
  211loPI   C3B 3375  11.925  16.580   9.090  0.6172 -0.0760  0.1795
  211loPI   C4B 3376  11.943  16.382   8.669 -0.0478  0.1818 -0.1778
  212loPI    C1 3377   5.278   0.073   9.813 -0.0167 -0.3517  0.0338
  212loPI    C2 3378   5.262   0.473   9.790 -0.0713 -0.3626 -0.1318
  212loPI    C3 3379   5.376   0.296  10.131  0.0536 -0.2041 -0.0901
  212loPI   PO4 3380   5.278  -0.007   9.511 -0.0351  0.1449 -0.1836
  212loPI   GL1 3381   5.084  -0.130   9.160 -0.0098 -0.0333  0.0447
  212loPI   GL2 3382   5.120  -0.375   8.975 -0.0532 -0.0760  0.1978
  212loPI   C1A 3383   5.217   0.236   8.843 -0.1401 -0.0692  0.0385
  212loPI   C2A 3384   5.172   0.262   8.344  0.0633 -0.0363 -0.1469
  212loPI   C3A 3385   5.174   0.284   7.878  0.4836 -0.1017 -0.0659
  212loPI   C4A 3386   5.220   0.303   7.437  0.2064  0.1579  0.0963
  212loPI   C5A 3387   5.065   0.491   7.064 -0.1219  0.1938  0.1899
  212loPI   C6A 3388   4.866   0.805   6.896  0.1308 -0.3802  0.3354
  212loPI   C1B 3389   5.329  -0.358   8.626  0.2358 -0.2150  0.0130
  212loPI   C2B 3390   5.305  -0.189   8.126  0.1398  0.2300 -0.2427
  212loPI   C3B 3391   5.542   0.016   7.761 -0.1310  0.0707 -0.0132
  212loPI   C4B 3392   5.821   0.322   7.482  0.2575  0.2714  0.3272
  213loPI    C1 3393  12.865  13.720  10.326 -0.0045  0.0624  0.1273
  213loPI    C2 3394  12.680  14.072  10.279 -0.3224 -0.1270 -0.0731
  213loPI    C3 3395  12.499  13.734  10.165 -0.1091 -0.3783  0.3133
  213loPI   PO4 3396  13.135  13.753  10.184  0.1876 -0.3821  0.0596
  213loPI   GL1 3397  13.050  14.075   9.973 -0.3751 -0.2056 -0.0102
  213loPI   GL2 3398  13.150  14.412   9.910 -0.0357  0.3401  0.0325
  213loPI   C1A 3399  12.853  14.129   9.669  0.1370  0.0666 -0.0067
  213loPI   C2A 3400  12.680  14.258   9.222  0.2467  0.1026 -0.2338
  213loPI   C3A 3401  12.656  14.389   8.754 -0.0075 -0.2538  0.2303
  213loPI   C4A 3402  12.622  14.135   8.344 -0.0110  0.1604 -0.1819
  213loPI   C5A 3403  12.418  14.032   7.978  0.1832  0.1411 -0.1595
  213loPI   C6A 3404  12.332  13.752   7.678 -0.1352 -0.0321 -0.0017
  213loPI   C1B 3405  13.363  14.296   9.595 -0.2150 -0.1657 -0.0989
  213loPI   C2B 3406  13.389  14.167   9.100  0.2227 -0.2965 -0.2248
  213loPI   C3B 3407  13.288  14.325   8.731  0.1264 -0.2850  0.2001
  213loPI   C4B 3408  13.178  14.136   8.448 -0.0831 -0.0977 -0.2341
  214loPI    C1 3409   6.399   3.624   9.832 -0.0544  0.0565 -0.0400
  214loPI    C2 3410   6.383   3.870   9.517  0.0038  0.0035 -0.0844
  214loPI    C3 3411   6.452   4.017   9.882 -0.0874  0.0678 -0.0929
  214loPI   PO4 3412   6.521   3.405   9.717 -0.1896 -0.0058  0.1918
  214loPI   GL1 3413   6.395   3.264   9.275  0.0382  0.1335 -0.0521
  214loPI   GL2 3414   6.588   3.574   9.175 -0.1868  0.1447 -0.5952
  214loPI   C1A 3415   6.489   3.144   8.877  0.1923  0.0701 -0.0911
  214loPI   C2A 3416   6.494   2.927   8.378 -0.0542  0.1404  0.0386
  214loPI   C3A 3417   6.505   2.897   7.949 -0.1837  0.0286 -0.1682
  214loPI   C4A 3418   6.663   3.155   7.596  0.0113  0.2719 -0.2350
  214loPI   C5A 3419   6.525   3.182   7.214 -0.1000 -0.1227  0.1303
  214loPI   C6A 3420   6.532   3.228   6.788 -0.0863  0.1375 -0.1751
  214loPI   C1B 3421   6.481   3.599   8.636 -0.0482 -0.2419 -0.0317
  214loPI   C2B 3422   6.468   3.597   8.205  0.1277  0.1879 -0.1590
  214loPI   C3B 3423   6.095   3.608   7.879  0.1430  0.0114  0.0297
  214loPI   C4B 3424   5.658   3.445   7.722 -0.2038  0.2947 -0.1587
  215loPI    C1 3425  18.346  18.311   9.916  0.2078 -0.1322 -0.1395
  215loPI    C2 3426  18.711  18.307  10.079  0.1908  0.2421 -0.0835
  215loPI    C3 3427  18.419  18.523  10.247 -0.0468 -0.0190 -0.1534
  215loPI   PO4 3428  18.371  17.976   9.940  0.0242 -0.3363 -0.0165
  215loPI   GL1 3429  18.301  17.668   9.524 -0.0019  0.3645  0.0774
  215loPI   GL2 3430  18.010  17.486   9.503 -0.0350  0.3408  0.0276
  215loPI   C1A 3431  18.111  17.767   9.013  0.0345 -0.0623 -0.3754
  215loPI   C2A 3432  17.846  17.911   8.723  0.2522  0.1867 -0.0355
  215loPI   C3A 3433  17.673  18.091   8.422  0.0644  0.2850  0.0190
  215loPI   C4A 3434  17.667  18.203   7.994  0.1699 -0.2574 -0.0842
  215loPI   C5A 3435  17.713  18.346   7.604 -0.0029  0.1689  0.0909
  215loPI   C6A 3436  18.085  18.377   7.362  0.2574  0.3749  0.1587
  215loPI   C1B 3437  18.007  17.278   9.021 -0.3539  0.3759  0.0266
  215loPI   C2B 3438  18.046  17.254   8.576 -0.1501 -0.0086 -0.4297
  215loPI   C3B 3439  17.780  17.162   8.157 -0.2017 -0.2349  0.2058
  215loPI   C4B 3440  17.526  17.349   7.992  0.0413  0.0717  0.1032
  216loPI    C1 3441   9.379  16.435   9.834 -0.0194 -0.0592  0.1908
  216loPI    C2 3442   9.514  16.623   9.509  0.0179 -0.2755  0.0791
  216loPI    C3 3443   9.125  16.539   9.544 -0.0248 -0.0352  0.2041
  216loPI   PO4 3444   9.616  16.298   9.875 -0.1202  0.1307  0.1052
  216loPI   GL1 3445   9.580  16.001   9.622  0.1464 -0.0988  0.3221
  216loPI   GL2 3446   9.261  16.022   9.522 -0.0583  0.0577  0.5207
  216loPI   C1A 3447   9.610  15.879   9.097 -0.0040 -0.0025 -0.0001
  216loPI   C2A 3448   9.818  15.775   8.615  0.0535 -0.0718  0.1021
  216loPI   C3A 3449   9.653  15.890   8.255 -0.1033 -0.1046  0.2045
  216loPI   C4A 3450   9.716  16.228   7.896 -0.1791  0.0211 -0.0213
  216loPI   C5A 3451   9.667  16.504   7.570 -0.0878  0.4007  0.0596
  216loPI   C6A 3452   9.609  16.707   7.301 -0.0970  0.0616 -0.1351
  216loPI   C1B 3453   9.258  16.234   9.128  0.2352 -0.2506  0.1124
  216loPI   C2B 3454   9.470  16.664   8.988  0.0731  0.0515  0.0047
  216loPI   C3B 3455   9.241  16.936   8.764  0.3433 -0.2368  0.0034
  216loPI   C4B 3456   9.024  17.346   8.501 -0.3599  0.1133 -0.2289
  217loPI    C1 3457   3.337   4.184   9.402 -0.1063 -0.0693  0.2335
  217loPI    C2 3458   3.207   4.380   9.726  0.1586  0.1053  0.2370
  217loPI    C3 3459   3.572   4.215   9.725  0.0959 -0.0349  0.0847
  217loPI   PO4 3460   3.132   4.185   9.275  0.0626 -0.2581  0.0658
  217loPI   GL1 3461   3.094   4.452   8.904 -0.0204 -0.1087  0.0365
  217loPI   GL2 3462   3.262   4.650   8.911  0.3090  0.0937  0.4417
  217loPI   C1A 3463   3.251   4.234   8.570  0.0295  0.1676  0.0506
  217loPI   C2A 3464   3.217   4.220   8.140 -0.0071  0.1856 -0.2092
  217loPI   C3A 3465   3.155   4.199   7.651 -0.1301 -0.0440  0.0100
  217loPI   C4A 3466   3.069   4.641   7.406 -0.1287  0.2990  0.0170
  217loPI   C5A 3467   2.696   4.888   7.228 -0.2519 -0.2042 -0.3891
  217loPI   C6A 3468   2.532   4.930   6.862  0.0729  0.0514 -0.2633
  217loPI   C1B 3469   3.483   4.665   8.476  0.3455  0.1877 -0.2732
  217loPI   C2B 3470   3.524   4.641   7.977 -0.0668  0.2185 -0.1971
  217loPI   C3B 3471   3.531   4.624   7.577 -0.2083  0.0847  0.0009
  217loPI   C4B 3472   3.804   4.885   7.245  0.4201 -0.3193 -0.0844
  218loPI    C1 3473   1.732  13.343   9.371 -0.1704 -0.0310 -0.2345
  218loPI    C2 3474   1.658  13.206   9.740 -0.0590  0.0637 -0.1762
  218loPI    C3 3475   1.808  12.961   9.461  0.1184  0.0607 -0.0790
  218loPI   PO4 3476   1.475  13.541   9.296  0.1721  0.2353  0.1054
  218loPI   GL1 3477   1.292  13.833   8.887  0.0105  0.1750  0.0500
  218loPI   GL2 3478   1.486  14.095   8.871  0.2781  0.0548 -0.0779
  218loPI   C1A 3479   0.928  13.887   8.642  0.0779 -0.0850  0.0290
  218loPI   C2A 3480   0.637  13.993   8.505 -0.0416  0.0951 -0.3022
  218loPI   C3A 3481   0.443  13.710   8.305 -0.1043  0.1429 -0.2902
  218loPI   C4A 3482   0.334  13.718   7.881 -0.1553  0.1974 -0.0484
  218loPI   C5A 3483   0.384  13.328   7.672  0.0756  0.0493 -0.0263
  218loPI   C6A 3484   0.492  12.972   7.733  0.3526 -0.2393 -0.3830
  218loPI   C1B 3485   1.364  13.908   8.375 -0.0705  0.1621  0.0336
  218loPI   C2B 3486   1.495  14.183   7.973  0.1688  0.4589 -0.2930
  218loPI   C3B 3487   1.300  14.218   7.632 -0.0287  0.0018  0.1756
  218loPI   C4B 3488   1.663  14.022   7.426  0.0282  0.0380  0.0410
  219loPI    C1 3489  10.781  11.245  10.433 -0.0731 -0.2245 -0.0805
  219loPI    C2 3490  11.127  11.045  10.452  0.0016 -0.0731  0.2177
  219loPI    C3 3491  10.789  10.872  10.578  0.0370 -0.0749  0.3108
  219loPI   PO4 3492  10.830  11.456  10.191 -0.1102 -0.3682 -0.2362
  219loPI   GL1 3493  10.508  11.415   9.801  0.0369  0.0879 -0.2750
  219loPI   GL2 3494  10.613  11.728   9.825  0.2225  0.2283  0.2127
  219loPI   C1A 3495  10.414  11.637   9.316 -0.2864  0.1271  0.0056
  219loPI   C2A 3496  10.442  11.765   8.863  0.0607 -0.1146  0.1117
  219loPI   C3A 3497  10.430  11.548   8.508 -0.4141 -0.1228  0.0683
  219loPI   C4A 3498  10.421  11.672   8.018  0.2296 -0.0737  0.0070
  219loPI   C5A 3499  10.291  11.843   7.632  0.0387  0.3695 -0.3536
  219loPI   C6A 3500  10.020  12.022   7.386  0.4570 -0.5787 -0.0178
  219loPI   C1B 3501  10.890  11.569   9.557  0.3329 -0.2096  0.1008
  219loPI   C2B 3502  10.914  11.617   9.098  0.2666  0.0801  0.0082
  219loPI   C3B 3503  10.895  11.697   8.610  0.1676  0.2409 -0.0872
  219loPI   C4B 3504  10.814  11.935   8.225 -0.0200  0.0057  0.1671
  220loPI    C1 3505   8.581  11.768  10.303 -0.0326  0.0413  0.0990
  220loPI    C2 3506   8.359  11.437  10.274  0.1497 -0.0586 -0.2064
  220loPI    C3 3507   8.638  11.466  10.559 -0.1549  0.0117  0.0918
  220loPI   PO4 3508   8.478  11.832   9.968 -0.2488 -0.0589  0.2383
  220loPI   GL1 3509   8.427  11.870   9.623  0.6587  0.1447 -0.1223
  220loPI   GL2 3510   8.631  11.674   9.312  0.1133 -0.0322 -0.2535
  220loPI   C1A 3511   8.094  11.680   9.313 -0.1301  0.1956 -0.2321
  220loPI   C2A 3512   8.116  11.669   8.899  0.0219  0.0913 -0.0006
  220loPI   C3A 3513   8.165  11.891   8.496  0.2581 -0.3357 -0.0312
  220loPI   C4A 3514   8.290  12.057   8.080  0.2981 -0.2849 -0.2867
  220loPI   C5A 3515   8.006  12.283   7.752  0.0853  0.2693  0.0323
  220loPI   C6A 3516   7.905  12.702   7.481  0.1227 -0.2142  0.0654
  220loPI   C1B 3517   8.588  11.772   8.875 -0.0050  0.1308 -0.1168
  220loPI   C2B 3518   8.605  11.673   8.509 -0.0242 -0.2691  0.2345
  220loPI   C3B 3519   8.634  11.541   8.197  0.0683  0.0024  0.3123
  220loPI   C4B 3520   8.799  11.596   7.820 -0.0789  0.1201  0.0434
  221loPI    C1 3521   2.294   3.596   9.506  0.1602 -0.0803 -0.0309
  221loPI    C2 3522   2.283   3.598   9.906  0.1238  0.0394 -0.0320
  221loPI    C3 3523   2.325   3.253   9.709 -0.0856 -0.0458  0.0696
  221loPI   PO4 3524   2.122   3.902   9.518  0.0080  0.1867  0.1434
  221loPI   GL1 3525   1.864   4.051   9.152  0.1284 -0.0655  0.0260
  221loPI   GL2 3526   2.129   3.990   8.979 -0.3977  0.1499 -0.1458
  221loPI   C1A 3527   1.670   4.042   8.754  0.1721  0.1333  0.3309
  221loPI   C2A 3528   1.666   4.119   8.312  0.2464  0.2625 -0.2118
  221loPI   C3A 3529   1.696   4.299   7.914 -0.1006  0.1600 -0.2023
  221loPI   C4A 3530   1.373   4.482   7.615 -0.2668  0.1444  0.1575
  221loPI   C5A 3531   0.843   4.588   7.631 -0.0650  0.1508 -0.0278
  221loPI   C6A 3532   0.644   4.361   7.362  0.0913  0.4379 -0.3453
  221loPI   C1B 3533   2.190   4.056   8.543 -0.2879  0.1221 -0.0038
  221loPI   C2B 3534   2.189   4.046   8.118 -0.2095  0.1740 -0.2386
  221loPI   C3B 3535   2.130   3.965   7.663 -0.1666  0.0155  0.2070
  221loPI   C4B 3536   1.786   3.912   7.327  0.1693 -0.2407 -0.1531
  222loPI    C1 3537   7.182  17.610   9.852 -0.1620  0.2732 -0.0584
  222loPI    C2 3538   7.003  17.303  10.035 -0.0710  0.1258 -0.2135
  222loPI    C3 3539   7.337  17.461  10.189 -0.2314  0.2828 -0.0220
  222loPI   PO4 3540   7.296  17.473   9.540  0.2384  0.0906  0.0637
  222loPI   GL1 3541   7.574  17.209   9.354 -0.2985 -0.1242  0.0383
  222loPI   GL2 3542   7.579  17.513   9.057 -0.3774  0.1539 -0.0238
  222loPI   C1A 3543   7.556  16.869   8.962  0.0633 -0.0701 -0.4245
  222loPI   C2A 3544   7.402  16.546   8.615 -0.0556 -0.0719  0.3102
  222loPI   C3A 3545   7.345  16.488   8.219  0.1240 -0.2674  0.1307
  222loPI   C4A 3546   7.069  16.665   7.865 -0.1912 -0.1772  0.0620
  222loPI   C5A 3547   6.821  16.584   7.601  0.0911 -0.4445 -0.0106
  222loPI   C6A 3548   6.404  16.604   7.455  0.1701 -0.1523  0.0888
  222loPI   C1B 3549   7.621  17.705   8.661 -0.3362  0.0952 -0.0955
  222loPI   C2B 3550   7.950  17.727   8.289  0.0783  0.0194  0.0519
  222loPI   C3B 3551   7.927  17.771   7.925  0.0173 -0.1895  0.1435
  222loPI   C4B 3552   7.652  18.057   7.850  0.2495 -0.1785  0.0917
  223loPI    C1 3553  12.782  13.265  10.536  0.0428 -0.1535  0.0066
  223loPI    C2 3554  13.168  13.372  10.531  0.0547 -0.1964  0.0070
  223loPI    C3 3555  12.913  13.555  10.779  0.0328 -0.0253 -0.1394
  223loPI   PO4 3556  12.746  13.156  10.217  0.2727  0.1740  0.0517
  223loPI   GL1 3557  12.933  13.330   9.778  0.1011  0.0526 -0.5374
  223loPI   GL2 3558  12.826  13.640   9.784  0.0905  0.2102 -0.0069
  223loPI   C1A 3559  13.205  13.408   9.446  0.3528  0.0371 -0.1895
  223loPI   C2A 3560  13.175  13.469   9.012  0.1925  0.0440  0.2161
  223loPI   C3A 3561  13.339  13.728   8.738  0.0599  0.1414  0.0343
  223loPI   C4A 3562  13.647  14.028   8.502 -0.0480 -0.0583  0.1594
  223loPI   C5A 3563  13.562  14.416   8.288  0.0540  0.1109 -0.2851
  223loPI   C6A 3564  13.446  14.818   8.124 -0.1382  0.1278 -0.1431
  223loPI   C1B 3565  12.923  13.822   9.266  0.2614 -0.0324 -0.1054
  223loPI   C2B 3566  12.908  13.970   8.872  0.0233  0.0237  0.3769
  223loPI   C3B 3567  12.848  13.697   8.498  0.1653 -0.0614  0.2223
  223loPI   C4B 3568  12.725  13.600   7.990  0.5650  0.0916  0.2339
  224loPI    C1 3569   5.438   9.609   9.936 -0.1295  0.1899  0.0563
  224loPI    C2 3570   5.204   9.395   9.692 -0.0923  0.2704 -0.0509
  224loPI    C3 3571   5.174   9.349  10.088 -0.0697  0.0517 -0.0732
  224loPI   PO4 3572   5.642   9.706   9.684  0.3593  0.1449  0.2774
  224loPI   GL1 3573   5.452   9.606   9.258  0.0301  0.0197 -0.0510
  224loPI   GL2 3574   5.336   9.352   9.191 -0.2731  0.0872  0.1672
  224loPI   C1A 3575   5.604   9.634   8.779 -0.0687 -0.1752  0.2627
  224loPI   C2A 3576   5.578   9.604   8.331  0.1702 -0.1920  0.1153
  224loPI   C3A 3577   5.469   9.832   8.069  0.1754 -0.4133  0.0297
  224loPI   C4A 3578   5.313   9.862   7.635 -0.3289 -0.1213  0.0192
  224loPI   C5A 3579   5.494   9.616   7.193  0.3878 -0.3339 -0.1062
  224loPI   C6A 3580   5.612   9.719   6.757  0.1821  0.0844 -0.1323
  224loPI   C1B 3581   5.345   9.165   8.843 -0.0688 -0.2446  0.2252
  224loPI   C2B 3582   5.355   9.135   8.300 -0.2868  0.0238 -0.1127
  224loPI   C3B 3583   5.557   9.277   7.841  0.0448  0.3605  0.1621
  224loPI   C4B 3584   5.530   9.151   7.441 -0.0566 -0.6680 -0.1158
  225loPI    C1 3585   4.159  10.378   9.659  0.1404  0.2214  0.1024
  225loPI    C2 3586   3.991  10.603   9.944 -0.0216  0.0132  0.1744
  225loPI    C3 3587   4.285  10.349  10.038  0.1123  0.1406  0.1057
  225loPI   PO4 3588   3.994  10.464   9.423 -0.1558 -0.1137 -0.0627
  225loPI   GL1 3589   4.061  10.727   9.116 -0.0546 -0.1371  0.2008
  225loPI   GL2 3590   4.356  10.572   9.141  0.3317 -0.0800  0.2393
  225loPI   C1A 3591   4.147  10.896   8.749 -0.0436  0.4475  0.3321
  225loPI   C2A 3592   4.510  11.016   8.407 -0.3844  0.3368  0.0683
  225loPI   C3A 3593   4.508  10.881   8.034 -0.0066 -0.1414  0.3128
  225loPI   C4A 3594   4.612  10.462   7.873  0.2201  0.0998  0.1315
  225loPI   C5A 3595   4.358  10.061   7.528 -0.1062  0.0725 -0.0472
  225loPI   C6A 3596   4.050   9.924   7.298 -0.0001  0.0727 -0.0358
  225loPI   C1B 3597   4.608  10.624   8.738  0.1095  0.2513  0.0676
  225loPI   C2B 3598   5.002  10.548   8.410 -0.3326  0.3680  0.0345
  225loPI   C3B 3599   5.204  10.756   8.147 -0.3438 -0.2233  0.0494
  225loPI   C4B 3600   5.470  10.699   7.753 -0.1334  0.0417  0.1752
  226loPI    C1 3601   7.916  14.743   9.950 -0.2504  0.0376 -0.0387
  226loPI    C2 3602   8.143  15.034   9.795  0.0769 -0.1203  0.1319
  226loPI    C3 3603   7.896  15.114  10.099  0.0749  0.0040  0.0982
  226loPI   PO4 3604   7.760  14.556   9.809 -0.2662  0.1770 -0.0092
  226loPI   GL1 3605   7.684  14.408   9.481 -0.1352 -0.2538  0.0170
  226loPI   GL2 3606   7.855  14.794   9.379 -0.0103  0.2007  0.2248
  226loPI   C1A 3607   7.876  14.165   9.257  0.0875  0.2062  0.1504
  226loPI   C2A 3608   8.030  13.902   9.067 -0.0381 -0.1854  0.1508
  226loPI   C3A 3609   8.109  13.530   8.918  0.2639 -0.2678  0.0537
  226loPI   C4A 3610   7.990  13.254   8.720 -0.0226  0.1664 -0.1679
  226loPI   C5A 3611   7.882  12.883   8.602 -0.1262 -0.1748  0.1195
  226loPI   C6A 3612   7.739  12.489   8.414 -0.0435  0.0910  0.1756
  226loPI   C1B 3613   8.170  14.998   9.275 -0.2917 -0.2171 -0.1698
  226loPI   C2B 3614   8.343  15.098   8.858  0.1576  0.0677 -0.1815
  226loPI   C3B 3615   8.260  14.979   8.547  0.2632 -0.2166  0.0688
  226loPI   C4B 3616   8.446  14.772   8.228 -0.0666 -0.1236 -0.1614
  227loPI    C1 3617   2.729   8.640   9.705  0.2435 -0.0016  0.0339
  227loPI    C2 3618   2.754   8.948   9.450  0.0583 -0.1657 -0.1870
  227loPI    C3 3619   2.488   8.956   9.749  0.2198 -0.0086 -0.0445
  227loPI   PO4 3620   2.654   8.453   9.617 -0.1408  0.1896  0.0603
  227loPI   GL1 3621   2.780   8.513   9.199 -0.3866  0.4512  0.0626
  227loPI   GL2 3622   2.622   8.297   8.951  0.1033 -0.0659 -0.0425
  227loPI   C1A 3623   3.070   8.361   8.803  0.1516  0.0507  0.0552
  227loPI   C2A 3624   3.146   8.333   8.325  0.2446 -0.1023  0.1406
  227loPI   C3A 3625   3.398   8.147   8.021  0.0580 -0.2516  0.1489
  227loPI   C4A 3626   3.415   8.229   7.663  0.3121 -0.1935 -0.0552
  227loPI   C5A 3627   3.317   8.257   7.215  0.1708 -0.1000 -0.0171
  227loPI   C6A 3628   3.080   8.481   6.992 -0.1450 -0.0718 -0.3266
  227loPI   C1B 3629   2.428   8.505   8.566 -0.0755  0.1147  0.2514
  227loPI   C2B 3630   2.653   8.693   8.221 -0.1692 -0.0696  0.0639
  227loPI   C3B 3631   2.906   8.563   7.895 -0.1070  0.4422  0.0915
  227loPI   C4B 3632   2.937   8.500   7.484  0.0616  0.0519  0.3584
  228loPI    C1 3633  11.833   0.776  10.343  0.0860 -0.1612  0.0674
  228loPI    C2 3634  11.763   0.881  10.723 -0.1015 -0.0303 -0.0019
  228loPI    C3 3635  12.138   0.872  10.584 -0.0571  0.2539  0.0922
  228loPI   PO4 3636  11.608   0.854  10.246  0.0567 -0.0559 -0.2912
  228loPI   GL1 3637  11.416   0.721   9.802  0.1657  0.1195  0.1056
  228loPI   GL2 3638  11.675   0.452   9.817 -0.1909  0.0212 -0.4798
  228loPI   C1A 3639  11.273   0.444   9.439 -0.0920 -0.0846 -0.0892
  228loPI   C2A 3640  11.411   0.574   9.047 -0.5078 -0.0410 -0.1070
  228loPI   C3A 3641  11.650   0.757   8.670 -0.1209 -0.0315  0.2099
  228loPI   C4A 3642  11.992   0.618   8.320  0.4484  0.2163 -0.2616
  228loPI   C5A 3643  12.161   0.543   7.979 -0.5743  0.1624 -0.0219
  228loPI   C6A 3644  11.984   0.465   7.586 -0.1990 -0.1643  0.1012
  228loPI   C1B 3645  11.759   0.304   9.449 -0.4572  0.0490 -0.0491
  228loPI   C2B 3646  11.935   0.476   9.098 -0.0104 -0.0886 -0.2114
  228loPI   C3B 3647  11.894   0.259   8.699  0.1723 -0.1155 -0.1841
  228loPI   C4B 3648  12.103   0.099   8.488  0.1064  0.0190 -0.2144
  229loPI    C1 3649  13.165   4.247  10.044  0.0335 -0.1599  0.0823
  229loPI    C2 3650  13.521   4.077   9.979 -0.0358 -0.2090 -0.1820
  229loPI    C3 3651  13.217   3.858  10.118 -0.0067 -0.2025 -0.1073
  229loPI   PO4 3652  13.231   4.430   9.777  0.0289 -0.1229  0.1405
  229loPI   GL1 3653  13.528   4.266   9.493  0.0149 -0.0576  0.1251
  229loPI   GL2 3654  13.696   4.028   9.556  0.4089 -0.0036 -0.1844
  229loPI   C1A 3655  13.539   4.375   9.055 -0.1984 -0.2191  0.0562
  229loPI   C2A 3656  13.666   4.188   8.655 -0.0684 -0.2280 -0.0571
  229loPI   C3A 3657  13.699   4.152   8.263 -0.1616 -0.0837 -0.1249
  229loPI   C4A 3658  13.584   4.158   7.861  0.2863  0.0532  0.4003
  229loPI   C5A 3659  13.472   3.770   7.628  0.0462 -0.0129  0.1452
  229loPI   C6A 3660  13.417   3.351   7.380 -0.0274 -0.3654 -0.1130
  229loPI   C1B 3661  13.420   3.919   9.178  0.3215 -0.1313  0.1094
  229loPI   C2B 3662  13.199   4.181   8.822 -0.1846  0.2118 -0.2697
  229loPI   C3B 3663  13.192   4.154   8.309  0.1183 -0.0390 -0.2142
  229loPI   C4B 3664  13.183   3.845   8.024 -0.2217 -0.0775 -0.0830
  230loPI    C1 3665   4.084   8.047   9.162 -0.0300  0.2213 -0.1344
  230loPI    C2 3666   4.148   8.017   9.556  0.0997 -0.2483 -0.1847
  230loPI    C3 3667   3.777   8.074   9.418  0.0629 -0.0112  0.0047
  230loPI   PO4 3668   4.270   7.838   9.100 -0.0331 -0.2932 -0.4621
  230loPI   GL1 3669   4.617   7.965   8.872  0.0747 -0.1896 -0.3434
  230loPI   GL2 3670   4.811   7.760   8.844 -0.1215 -0.0090 -0.2575
  230loPI   C1A 3671   4.362   7.980   8.460 -0.3626  0.1315 -0.1163
  230loPI   C2A 3672   4.568   8.166   8.140  0.3251  0.1478 -0.0943
  230loPI   C3A 3673   4.679   8.292   7.804  0.0108 -0.5403  0.3471
  230loPI   C4A 3674   5.037   8.174   7.578  0.1574 -0.3553  0.2150
  230loPI   C5A 3675   5.412   8.404   7.431  0.1687 -0.0305 -0.1959
  230loPI   C6A 3676   5.796   8.462   7.583 -0.1054 -0.0022 -0.1094
  230loPI   C1B 3677   4.845   7.799   8.326  0.1861  0.2985 -0.1763
  230loPI   C2B 3678   4.755   7.794   7.884  0.1171 -0.0421  0.0736
  230loPI   C3B 3679   4.614   7.833   7.432 -0.0666 -0.1598 -0.1063
  230loPI   C4B 3680   4.251   7.859   7.187 -0.1355  0.1597  0.1286
  231loPI    C1 3681   7.335   7.885   9.526 -0.1432 -0.0159  0.1381
  231loPI    C2 3682   7.443   7.684   9.854  0.0727  0.0777  0.1262
  231loPI    C3 3683   7.470   8.083   9.846  0.0675  0.0759 -0.0050
  231loPI   PO4 3684   7.406   7.742   9.337  0.0008  0.2037 -0.0904
  231loPI   GL1 3685   7.716   7.819   9.106  0.2853  0.1395  0.3740
  231loPI   GL2 3686   7.957   7.631   9.149  0.0897  0.2057  0.0676
  231loPI   C1A 3687   7.603   8.041   8.722  0.0312  0.3533  0.0118
  231loPI   C2A 3688   7.561   8.010   8.282 -0.4279 -0.2490  0.2316
  231loPI   C3A 3689   7.619   8.038   7.813 -0.0470  0.3888 -0.0451
  231loPI   C4A 3690   7.619   8.018   7.429  0.1615  0.3368  0.1596
  231loPI   C5A 3691   7.767   8.166   6.984 -0.0578 -0.0966 -0.2545
  231loPI   C6A 3692   7.870   8.520   6.757 -0.1591 -0.0895  0.2470
  231loPI   C1B 3693   8.059   7.670   8.675  0.3640  0.1176 -0.2250
  231loPI   C2B 3694   8.104   7.694   8.205  0.1132  0.1234  0.2612
  231loPI   C3B 3695   8.174   7.883   7.810  0.2077  0.0460  0.0521
  231loPI   C4B 3696   8.176   8.159   7.488  0.4033 -0.1599 -0.1264
  232loPI    C1 3697  19.004  14.203   9.892  0.0728 -0.0358  0.1482
  232loPI    C2 3698  18.716  13.987  10.067 -0.0112 -0.0611 -0.0192
  232loPI    C3 3699  19.021  14.127  10.284 -0.0682 -0.1661  0.1301
  232loPI   PO4 3700  18.860  14.190   9.521 -0.0912  0.3661 -0.3049
  232loPI   GL1 3701  18.809  14.492   9.154  0.3439  0.0412 -0.1015
  232loPI   GL2 3702  18.497  14.677   9.311 -0.0889  0.1896  0.0015
  232loPI   C1A 3703  18.706  14.403   8.673 -0.0921  0.1898  0.2987
  232loPI   C2A 3704  18.644  14.369   8.185 -0.1001 -0.1521 -0.2624
  232loPI   C3A 3705  18.685  14.029   7.984 -0.2673  0.2676 -0.3124
  232loPI   C4A 3706  18.466  13.689   7.770 -0.0216 -0.0383 -0.0680
  232loPI   C5A 3707  18.253  13.569   7.453  0.2239 -0.3643  0.1816
  232loPI   C6A 3708  18.280  13.535   6.988 -0.1077  0.1598 -0.2451
  232loPI   C1B 3709  18.175  14.578   9.023  0.2333  0.0543 -0.1610
  232loPI   C2B 3710  18.150  14.567   8.533 -0.4199 -0.2002  0.0871
  232loPI   C3B 3711  18.178  14.526   8.106 -0.1715 -0.4506 -0.1647
  232loPI   C4B 3712  18.339  14.385   7.737  0.2762  0.0989 -0.1897
  233loPI    C1 3713   5.609   5.518   9.987  0.0182 -0.1428 -0.0916
  233loPI    C2 3714   5.824   5.355  10.282  0.0196 -0.1021 -0.0700
  233loPI    C3 3715   5.497   5.568  10.368  0.0446 -0.0534 -0.0953
  233loPI   PO4 3716   5.871   5.641   9.768 -0.0812  0.0442 -0.1514
  233loPI   GL1 3717   5.997   6.041   9.406  0.0436  0.0020  0.0423
  233loPI   GL2 3718   6.297   5.973   9.173 -0.1408 -0.1901 -0.1467
  233loPI   C1A 3719   5.731   6.060   9.116 -0.1379 -0.0033 -0.0963
  233loPI   C2A 3720   5.592   6.046   8.653 -0.2415 -0.0675  0.2455
  233loPI   C3A 3721   5.536   5.700   8.298 -0.0166  0.2216 -0.0744
  233loPI   C4A 3722   5.619   5.609   7.843  0.1399  0.0031  0.2842
  233loPI   C5A 3723   5.442   5.718   7.443  0.2418 -0.1772 -0.0510
  233loPI   C6A 3724   5.075   5.672   7.322  0.0262  0.0180  0.0190
  233loPI   C1B 3725   6.144   5.966   8.800  0.2006 -0.0082 -0.2932
  233loPI   C2B 3726   6.008   5.759   8.441  0.2814 -0.1387 -0.1733
  233loPI   C3B 3727   5.872   5.978   8.053 -0.0437 -0.1631 -0.0634
  233loPI   C4B 3728   5.762   6.062   7.659 -0.3598  0.0070  0.4819
  234loPI    C1 3729   1.360  11.213   9.302  0.2695 -0.0475  0.0191
  234loPI    C2 3730   1.424  11.291   9.689 -0.0936 -0.2150  0.1176
  234loPI    C3 3731   1.051  11.234   9.556  0.0238 -0.1120 -0.2682
  234loPI   PO4 3732   1.578  11.033   9.303 -0.1679  0.0848 -0.0965
  234loPI   GL1 3733   2.036  11.040   9.223  0.1568 -0.0044  0.3350
  234loPI   GL2 3734   2.375  10.937   9.175  0.1022  0.1150  0.1982
  234loPI   C1A 3735   2.018  10.817   8.739 -0.1370 -0.2871  0.0187
  234loPI   C2A 3736   2.054  10.945   8.273  0.1306 -0.2409 -0.1817
  234loPI   C3A 3737   2.081  10.947   7.869 -0.2867  0.0372  0.1820
  234loPI   C4A 3738   1.853  11.005   7.562  0.0858 -0.4168 -0.0345
  234loPI   C5A 3739   1.651  11.173   7.233 -0.2006 -0.0606  0.0133
  234loPI   C6A 3740   1.632  11.546   7.037  0.0952  0.0723  0.1436
  234loPI   C1B 3741   2.584  11.015   8.761 -0.0461  0.1394 -0.0450
  234loPI   C2B 3742   2.613  11.229   8.458  0.0538  0.3035 -0.0861
  234loPI   C3B 3743   2.682  11.212   8.032 -0.0925  0.3262 -0.0806
  234loPI   C4B 3744   2.796  11.369   7.590  0.1448 -0.1688 -0.0406
  235loPI    C1 3745   8.648   7.327   9.712 -0.1131  0.1743 -0.0769
  235loPI    C2 3746   8.270   7.458   9.706 -0.1454  0.0904  0.0697
  235loPI    C3 3747   8.454   7.392  10.055  0.0738  0.3246  0.0020
  235loPI   PO4 3748   8.665   7.240   9.510  0.0401 -0.2402 -0.3346
  235loPI   GL1 3749   8.953   7.192   9.188  0.0384  0.0795 -0.1288
  235loPI   GL2 3750   9.224   7.061   9.065  0.1500  0.0261  0.2690
  235loPI   C1A 3751   8.649   7.163   8.857 -0.1325  0.0860 -0.1102
  235loPI   C2A 3752   8.352   7.280   8.523  0.0230  0.0549  0.4971
  235loPI   C3A 3753   8.399   7.239   8.074 -0.1149 -0.0857  0.0682
  235loPI   C4A 3754   8.401   7.474   7.738 -0.0605  0.1554  0.2068
  235loPI   C5A 3755   8.711   7.598   7.596 -0.1297  0.2327  0.2305
  235loPI   C6A 3756   8.902   7.543   7.279 -0.1818 -0.2673  0.1772
  235loPI   C1B 3757   9.695   7.021   8.934 -0.0554 -0.0119 -0.2333
  235loPI   C2B 3758  10.067   6.875   8.840  0.1497 -0.0775  0.0938
  235loPI   C3B 3759  10.196   6.801   8.428 -0.0780  0.0960 -0.0253
  235loPI   C4B 3760  10.407   6.641   8.029 -0.0727 -0.3868  0.1551
  236loPI    C1 3761   3.355  14.968   9.556 -0.1485  0.1076  0.3471
  236loPI    C2 3762   3.343  15.172   9.900  0.0770  0.1603  0.3254
  236loPI    C3 3763   3.543  15.319   9.587  0.1542 -0.0451  0.2766
  236loPI   PO4 3764   3.118  14.986   9.452  0.1299 -0.1925  0.0026
  236loPI   GL1 3765   2.978  15.292   9.185 -0.2704  0.0284  0.3166
  236loPI   GL2 3766   3.134  15.449   8.979  0.0398  0.1825  0.0706
  236loPI   C1A 3767   2.781  15.276   8.790  0.3321 -0.0574  0.0865
  236loPI   C2A 3768   2.408  15.282   8.598 -0.2896  0.0948  0.0871
  236loPI   C3A 3769   2.399  14.966   8.331 -0.2850 -0.1264  0.0602
  236loPI   C4A 3770   2.398  14.693   8.050  0.1657 -0.1701  0.1686
  236loPI   C5A 3771   2.660  14.529   7.759 -0.2344  0.1795  0.3461
  236loPI   C6A 3772   2.982  14.317   7.462  0.2280  0.0047 -0.1192
  236loPI   C1B 3773   3.108  15.498   8.484 -0.1502 -0.2354 -0.3273
  236loPI   C2B 3774   3.047  15.534   8.014 -0.3444  0.2886  0.0678
  236loPI   C3B 3775   2.918  15.398   7.568  0.0676  0.0793 -0.1680
  236loPI   C4B 3776   3.040  15.232   7.194 -0.1066 -0.0611 -0.1103
  237loPI    C1 3777  16.987  10.595  10.318  0.1030 -0.2126 -0.2324
  237loPI    C2 3778  17.243  10.868  10.461  0.0440 -0.1768 -0.1948
  237loPI    C3 3779  17.205  10.514  10.644 -0.0955 -0.0976 -0.0680
  237loPI   PO4 3780  17.009  10.614  10.079 -0.1428 -0.3632 -0.0062
  237loPI   GL1 3781  17.263  10.885   9.791  0.1117  0.0578 -0.0541
  237loPI   GL2 3782  17.514  11.107   9.800  0.4181  0.0834  0.1989
  237loPI   C1A 3783  17.060  11.142   9.462 -0.0615  0.0044  0.0189
  237loPI   C2A 3784  16.713  11.191   9.219  0.2499 -0.1514 -0.1921
  237loPI   C3A 3785  16.677  11.570   9.042  0.0002 -0.0172  0.0501
  237loPI   C4A 3786  16.702  11.736   8.613 -0.1029 -0.2569  0.1502
  237loPI   C5A 3787  16.785  11.724   8.194  0.2714  0.0870  0.3201
  237loPI   C6A 3788  16.975  11.856   7.870 -0.1995 -0.1582 -0.0239
  237loPI   C1B 3789  17.533  11.343   9.349  0.1106  0.1213  0.1118
  237loPI   C2B 3790  17.308  11.367   9.088 -0.1384 -0.3650  0.0506
  237loPI   C3B 3791  17.092  11.297   8.758 -0.0073  0.2575 -0.2131
  237loPI   C4B 3792  16.996  11.130   8.367 -0.1079  0.0162 -0.1110
  238loPI    C1 3793   6.351  10.400  10.114  0.3049 -0.1926  0.2977
  238loPI    C2 3794   6.296  10.004  10.098 -0.3078 -0.1141  0.2204
  238loPI    C3 3795   6.124  10.219  10.388 -0.0405  0.1086  0.2185
  238loPI   PO4 3796   6.335  10.512   9.920  0.0413 -0.3237  0.0471
  238loPI   GL1 3797   6.555  10.665   9.584 -0.3248  0.0347  0.2916
  238loPI   GL2 3798   6.816  10.690   9.653 -0.0201 -0.3737 -0.2203
  238loPI   C1A 3799   6.398  10.696   9.201  0.1688  0.1796 -0.1407
  238loPI   C2A 3800   6.347  10.766   8.790  0.2564  0.3979 -0.0897
  238loPI   C3A 3801   6.486  11.062   8.442  0.0755  0.1805  0.0715
  238loPI   C4A 3802   6.798  10.948   8.076  0.0854 -0.2349 -0.2306
  238loPI   C5A 3803   7.169  10.602   8.120  0.1212 -0.6793 -0.1199
  238loPI   C6A 3804   7.373  10.272   7.985 -0.3296  0.0166  0.0284
  238loPI   C1B 3805   6.845  10.856   9.222 -0.4825 -0.2817 -0.1596
  238loPI   C2B 3806   6.915  10.919   8.850 -0.1722  0.2367  0.0062
  238loPI   C3B 3807   7.114  11.127   8.453 -0.0517  0.1729  0.0101
  238loPI   C4B 3808   7.249  11.362   8.064  0.2214 -0.1973  0.0430
  239loPI    C1 3809  10.155  17.673  10.199  0.2069 -0.0661  0.1422
  239loPI    C2 3810  10.020  18.045  10.146  0.2925 -0.0724 -0.1372
  239loPI    C3 3811   9.926  17.844  10.479  0.3210  0.2306  0.0582
  239loPI   PO4 3812  10.454  17.695  10.134  0.0204 -0.1404  0.0976
  239loPI   GL1 3813  10.710  17.788   9.695 -0.0312 -0.4644 -0.0069
  239loPI   GL2 3814  10.503  17.457   9.689 -0.2545  0.2179 -0.0461
  239loPI   C1A 3815  10.870  17.801   9.259 -0.3050 -0.0726  0.1275
  239loPI   C2A 3816  10.975  17.731   8.863 -0.1648 -0.0583 -0.1078
  239loPI   C3A 3817  11.259  17.810   8.608 -0.2917 -0.0672  0.0359
  239loPI   C4A 3818  11.339  17.655   8.256  0.2446 -0.1917 -0.0332
  239loPI   C5A 3819  11.287  17.497   7.950  0.0404  0.2476 -0.3132
  239loPI   C6A 3820  11.075  17.466   7.671  0.2650  0.4377  0.4078
  239loPI   C1B 3821  10.478  17.364   9.338 -0.0071 -0.3722 -0.0156
  239loPI   C2B 3822  10.271  17.174   9.009 -0.0883  0.2250  0.2654
  239loPI   C3B 3823  10.244  17.034   8.517  0.0841 -0.3119  0.1715
  239loPI   C4B 3824   9.908  16.836   8.243 -0.0921 -0.4753 -0.0906
  240loPI    C1 3825  19.035   8.262   9.921 -0.1831 -0.2003  0.0710
  240loPI    C2 3826  18.686   8.211   9.733 -0.0901 -0.0078 -0.1600
  240loPI    C3 3827  18.726   8.500  10.007 -0.1281 -0.0688 -0.0897
  240loPI   PO4 3828  19.288   8.294   9.790 -0.0283 -0.0396 -0.0692
  240loPI   GL1 3829  19.096   8.299   9.430 -0.0193 -0.0601 -0.2895
  240loPI   GL2 3830  18.886   8.575   9.451  0.2203  0.0024 -0.0568
  240loPI   C1A 3831  19.015   8.011   9.064 -0.0147 -0.1398 -0.1883
  240loPI   C2A 3832  19.055   8.059   8.665  0.3029 -0.1222  0.1007
  240loPI   C3A 3833  18.997   7.986   8.223  0.1512 -0.2154  0.0561
  240loPI   C4A 3834  19.072   7.953   7.819  0.0920 -0.2567 -0.2669
  240loPI   C5A 3835  19.460   7.829   7.499  0.1815  0.3375 -0.0080
  240loPI   C6A 3836  19.610   7.470   7.276 -0.0685  0.2507  0.2687
  240loPI   C1B 3837  18.788   8.636   9.005  0.0294  0.0377  0.0855
  240loPI   C2B 3838  18.792   8.649   8.584 -0.0149  0.2310 -0.0731
  240loPI   C3B 3839  18.596   8.975   8.308 -0.0762 -0.3347 -0.0553
  240loPI   C4B 3840  18.318   9.159   8.121  0.1995 -0.1383  0.1497
  241loPI    C1 3841   0.003  18.275   9.901 -0.0256  0.1245 -0.1364
  241loPI    C2 3842  -0.155  18.633   9.983 -0.0631  0.1128 -0.1566
  241loPI    C3 3843   0.001  18.412  10.277 -0.0349  0.1478 -0.1450
  241loPI   PO4 3844  -0.143  18.158   9.742  0.1854  0.0113 -0.2701
  241loPI   GL1 3845   0.141  18.002   9.475  0.1308 -0.0468  0.0033
  241loPI   GL2 3846   0.014  18.212   9.328  0.2030  0.1994  0.2197
  241loPI   C1A 3847  -0.200  17.721   9.263 -0.0837  0.0370 -0.0462
  241loPI   C2A 3848  -0.214  17.646   8.767 -0.4802 -0.0090  0.3131
  241loPI   C3A 3849  -0.036  17.292   8.512 -0.0854 -0.1399  0.2174
  241loPI   C4A 3850   0.125  17.171   8.052  0.0936 -0.0478 -0.3603
  241loPI   C5A 3851   0.465  17.249   7.703  0.3162  0.1894 -0.1167
  241loPI   C6A 3852   0.371  17.335   7.292 -0.2452  0.2551  0.2524
  241loPI   C1B 3853   0.057  18.065   8.943 -0.1895  0.2233 -0.4929
  241loPI   C2B 3854  -0.118  18.206   8.655 -0.0627  0.2951  0.1616
  241loPI   C3B 3855   0.055  18.225   8.272 -0.1533 -0.1932  0.1909
  241loPI   C4B 3856   0.205  18.063   7.877  0.0419 -0.0805  0.0863
  242loPI    C1 3857   4.592  18.228   9.621 -0.0713 -0.0754  0.1353
  242loPI    C2 3858   4.271  18.458   9.681  0.1006  0.2686 -0.2189
  242loPI    C3 3859   4.276  18.083   9.818 -0.4685  0.2419 -0.2479
  242loPI   PO4 3860   4.659  18.399   9.409 -0.1116 -0.1685 -0.0503
  242loPI   GL1 3861   4.901  18.303   9.023 -0.0232  0.1264  0.2327
  242loPI   GL2 3862   5.138  18.270   8.962 -0.0621 -0.2236 -0.1682
  242loPI   C1A 3863   4.801  18.130   8.530 -0.0431 -0.0461  0.2457
  242loPI   C2A 3864   5.029  18.074   8.174 -0.1703  0.0247  0.0857
  242loPI   C3A 3865   5.358  17.806   7.885  0.1611  0.1573 -0.2732
  242loPI   C4A 3866   5.511  17.825   7.504 -0.2626 -0.0007 -0.0898
  242loPI   C5A 3867   5.685  18.011   7.252 -0.1700 -0.0193 -0.0922
  242loPI   C6A 3868   5.878  18.342   6.941 -0.1156  0.4292  0.1759
  242loPI   C1B 3869   5.317  18.306   8.507  0.3280  0.0091 -0.0956
  242loPI   C2B 3870   5.387  18.426   8.077  0.0948  0.0375 -0.0109
  242loPI   C3B 3871   5.401  18.367   7.645 -0.3834 -0.0512  0.1986
  242loPI   C4B 3872   5.220  18.330   7.256  0.0500 -0.0593 -0.2342
  243loPI    C1 3873   1.143   5.785   9.308 -0.1455  0.1959  0.0907
  243loPI    C2 3874   1.079   6.087   9.562 -0.4234  0.0906  0.1501
  243loPI    C3 3875   0.770   5.912   9.378 -0.2429  0.0144 -0.0862
  243loPI   PO4 3876   1.427   5.768   9.281  0.1306  0.1153 -0.1890
  243loPI   GL1 3877   1.757   5.692   8.940  0.1009  0.6346  0.1094
  243loPI   GL2 3878   1.975   5.508   9.064 -0.2635 -0.1465 -0.1246
  243loPI   C1A 3879   1.637   5.962   8.589  0.0136 -0.1392 -0.1734
  243loPI   C2A 3880   1.808   6.119   8.156  0.1354  0.0129  0.0628
  243loPI   C3A 3881   1.756   5.962   7.725 -0.3052  0.0563 -0.1906
  243loPI   C4A 3882   2.009   6.014   7.438 -0.1972  0.1389 -0.3113
  243loPI   C5A 3883   2.181   6.397   7.394 -0.0059 -0.1994  0.0198
  243loPI   C6A 3884   2.239   6.840   7.562 -0.1204  0.0422 -0.0517
  243loPI   C1B 3885   1.966   5.343   8.642 -0.0900  0.3582  0.1236
  243loPI   C2B 3886   1.708   5.432   8.363  0.1708  0.0122  0.1930
  243loPI   C3B 3887   1.559   5.617   8.068  0.0878 -0.0648 -0.0253
  243loPI   C4B 3888   1.462   5.587   7.650 -0.1002  0.1600  0.0834
  244loPI    C1 3889   9.157  11.084  10.168 -0.0535  0.0036  0.0524
  244loPI    C2 3890   9.122  10.686  10.138  0.1478 -0.0139  0.0380
  244loPI    C3 3891   9.358  10.846  10.419 -0.1019  0.1016  0.1845
  244loPI   PO4 3892   9.103  11.137   9.902  0.0298 -0.1868 -0.0314
  244loPI   GL1 3893   9.172  11.378   9.582 -0.3472  0.1256  0.0217
  244loPI   GL2 3894   8.917  11.183   9.432  0.0851 -0.2061 -0.3122
  244loPI   C1A 3895   9.345  11.312   9.184 -0.2485 -0.0984  0.1164
  244loPI   C2A 3896   9.528  11.628   8.882 -0.0043 -0.3523  0.1416
  244loPI   C3A 3897   9.501  11.879   8.559 -0.1308  0.0836 -0.2905
  244loPI   C4A 3898   9.431  12.199   8.235 -0.0769 -0.1723  0.0005
  244loPI   C5A 3899   9.664  12.244   7.807  0.3219  0.1964  0.0821
  244loPI   C6A 3900   9.754  11.774   7.673 -0.2683  0.0032  0.0179
  244loPI   C1B 3901   8.880  11.368   9.051  0.3388 -0.1911 -0.0155
  244loPI   C2B 3902   9.081  11.580   8.653  0.2978  0.2202  0.2839
  244loPI   C3B 3903   9.013  11.965   8.408  0.2761 -0.2812 -0.2246
  244loPI   C4B 3904   8.831  12.055   8.142 -0.1117  0.2403 -0.1105
  245loPI    C1 3905   9.039   6.188   9.474 -0.1202 -0.0316  0.0687
  245loPI    C2 3906   9.281   6.171   9.792  0.2217 -0.0533 -0.1857
  245loPI    C3 3907   9.091   5.842   9.668  0.0560 -0.0359  0.0164
  245loPI   PO4 3908   9.186   6.334   9.274  0.0071 -0.1775 -0.0391
  245loPI   GL1 3909   9.396   6.642   8.910  0.0478 -0.2410 -0.4559
  245loPI   GL2 3910   9.268   6.392   8.784 -0.1206  0.0046  0.4041
  245loPI   C1A 3911   9.306   6.833   8.476  0.1088 -0.0847 -0.1266
  245loPI   C2A 3912   9.410   7.092   8.138 -0.1948  0.2091  0.2816
  245loPI   C3A 3913   9.382   7.320   7.740  0.2293 -0.1866  0.1655
  245loPI   C4A 3914   9.690   7.628   7.502 -0.0917 -0.2702  0.1291
  245loPI   C5A 3915  10.040   7.784   7.231 -0.1660  0.1548 -0.2444
  245loPI   C6A 3916  10.046   8.222   7.185  0.0036 -0.1513  0.0760
  245loPI   C1B 3917   9.217   6.338   8.300  0.3867  0.5026 -0.1958
  245loPI   C2B 3918   9.199   6.351   7.900  0.2488 -0.0081  0.3611
  245loPI   C3B 3919   9.061   6.109   7.504 -0.1374  0.0338  0.3544
  245loPI   C4B 3920   8.974   6.305   7.102  0.1251  0.3763  0.0751
  246loPI    C1 3921   8.628  10.237  10.017  0.1210  0.1178 -0.1696
  246loPI    C2 3922   8.541  10.587  10.189  0.1863 -0.0830  0.2881
  246loPI    C3 3923   8.790  10.332  10.371  0.0741 -0.4042  0.0013
  246loPI   PO4 3924   8.608  10.238   9.740 -0.1387  0.0635  0.2334
  246loPI   GL1 3925   8.955  10.316   9.489 -0.0186 -0.0015  0.1756
  246loPI   GL2 3926   9.222  10.273   9.437 -0.2268  0.0220  0.1788
  246loPI   C1A 3927   8.919  10.393   9.117  0.0500 -0.3942  0.2858
  246loPI   C2A 3928   9.126  10.560   8.879  0.1981  0.3723  0.3225
  246loPI   C3A 3929   9.198  10.970   8.714 -0.2095  0.2805  0.3126
  246loPI   C4A 3930   9.544  11.303   8.494 -0.3585 -0.0541 -0.2037
  246loPI   C5A 3931   9.366  11.596   8.204  0.2286 -0.1571 -0.0919
  246loPI   C6A 3932   9.251  11.877   7.815  0.0147 -0.3504 -0.2466
  246loPI   C1B 3933   9.473  10.305   9.100 -0.0587  0.0287 -0.0310
  246loPI   C2B 3934   9.593  10.364   8.720  0.1244 -0.3383  0.0318
  246loPI   C3B 3935   9.702  10.393   8.291  0.1756  0.0944 -0.0916
  246loPI   C4B 3936   9.723  10.451   7.855  0.0822 -0.0293 -0.2914
  247loPI    C1 3937   2.155  17.636   9.384  0.0119  0.0688 -0.0143
  247loPI    C2 3938   2.293  17.415   9.688  0.0243  0.1101  0.0101
  247loPI    C3 3939   1.920  17.559   9.698 -0.1167 -0.2300 -0.1792
  247loPI   PO4 3940   2.179  17.519   9.215 -0.2421  0.0487 -0.0218
  247loPI   GL1 3941   2.392  17.404   8.873  0.0841  0.0434 -0.4371
  247loPI   GL2 3942   2.539  17.080   8.900 -0.3799  0.0850 -0.0370
  247loPI   C1A 3943   2.002  17.190   8.654 -0.0307 -0.1098  0.0671
  247loPI   C2A 3944   1.882  17.121   8.194  0.2723 -0.1656  0.0200
  247loPI   C3A 3945   1.825  17.261   7.726  0.3352 -0.2562 -0.1487
  247loPI   C4A 3946   1.411  17.262   7.545  0.0362  0.3109 -0.1203
  247loPI   C5A 3947   1.152  17.350   7.209 -0.2371  0.1550 -0.1017
  247loPI   C6A 3948   1.186  17.447   6.776 -0.2719  0.1295  0.0168
  247loPI   C1B 3949   2.444  17.210   8.430  0.1120 -0.1062 -0.0803
  247loPI   C2B 3950   2.311  17.252   8.021 -0.0661 -0.0388 -0.2232
  247loPI   C3B 3951   2.223  17.470   7.588  0.2172  0.1285 -0.0472
  247loPI   C4B 3952   1.937  17.568   7.322  0.0634  0.0058 -0.1848
  248loPI    C1 3953   4.141  18.069   9.294 -0.0186 -0.0130 -0.1310
  248loPI    C2 3954   3.811  18.235   9.448  0.0095 -0.0586 -0.0211
  248loPI    C3 3955   3.781  17.914   9.211 -0.0296 -0.0234 -0.0644
  248loPI   PO4 3956   4.249  18.286   9.214 -0.0009 -0.0968 -0.2496
  248loPI   GL1 3957   4.443  18.482   8.844  0.0801  0.1035 -0.2149
  248loPI   GL2 3958   4.625  18.696   8.999 -0.2085  0.1150  0.1347
  248loPI   C1A 3959   4.366  18.519   8.383 -0.2171  0.1782  0.0902
  248loPI   C2A 3960   4.463  18.165   8.082 -0.3118 -0.0347  0.0388
  248loPI   C3A 3961   4.321  17.969   7.666 -0.2740 -0.1172 -0.1563
  248loPI   C4A 3962   4.459  17.599   7.470  0.0257  0.0884  0.1719
  248loPI   C5A 3963   4.786  17.340   7.329 -0.0729 -0.1119 -0.3010
  248loPI   C6A 3964   5.154  17.423   7.303  0.0936 -0.2261  0.0913
  248loPI   C1B 3965   4.836  18.593   8.627  0.0830  0.0169  0.0569
  248loPI   C2B 3966   4.853  18.533   8.182  0.1111 -0.0356  0.2125
  248loPI   C3B 3967   4.901  18.490   7.716 -0.2404 -0.0056  0.2402
  248loPI   C4B 3968   4.601  18.219   7.385 -0.0701  0.0011  0.0501
  249loPI    C1 3969   5.726   5.146   9.244 -0.4905  0.0487  0.1924
  249loPI    C2 3970   5.771   5.543   9.221  0.2264 -0.0167  0.2342
  249loPI    C3 3971   5.510   5.386   9.480 -0.3515  0.4276 -0.0555
  249loPI   PO4 3972   5.883   5.106   8.998 -0.0118  0.1603  0.3324
  249loPI   GL1 3973   6.058   5.177   8.612  0.1109 -0.1678 -0.1113
  249loPI   GL2 3974   6.316   5.047   8.720  0.0122  0.1268 -0.1970
  249loPI   C1A 3975   5.741   5.228   8.375 -0.0012 -0.2291  0.0761
  249loPI   C2A 3976   5.694   5.128   7.958 -0.1541 -0.1977 -0.2050
  249loPI   C3A 3977   6.071   5.069   7.720 -0.2507  0.0748  0.1403
  249loPI   C4A 3978   6.501   5.289   7.671  0.1381 -0.4176  0.1069
  249loPI   C5A 3979   6.540   5.521   7.215  0.0920 -0.2263 -0.1595
  249loPI   C6A 3980   6.220   5.408   6.786 -0.1788 -0.0611 -0.0490
  249loPI   C1B 3981   6.326   5.034   8.220  0.0272 -0.3603 -0.2294
  249loPI   C2B 3982   6.775   5.030   7.991 -0.1306 -0.2883  0.2032
  249loPI   C3B 3983   7.067   5.224   7.691 -0.3256 -0.0680  0.1528
  249loPI   C4B 3984   7.460   5.392   7.353  0.4238  0.3895  0.0302
  250loPI    C1 3985  11.194   5.234   9.660  0.2800 -0.0705 -0.0329
  250loPI    C2 3986  11.265   5.602   9.519  0.0644 -0.0131  0.0044
  250loPI    C3 3987  11.425   5.487   9.867  0.0305  0.0894  0.0543
  250loPI   PO4 3988  11.288   5.061   9.464  0.2262  0.2059 -0.0585
  250loPI   GL1 3989  11.024   4.783   9.151 -0.2224  0.0806  0.2621
  250loPI   GL2 3990  10.782   4.863   9.260 -0.4376 -0.1184 -0.0050
  250loPI   C1A 3991  10.954   4.963   8.743  0.2542 -0.0964  0.0988
  250loPI   C2A 3992  10.848   5.001   8.257 -0.1337 -0.1629  0.1604
  250loPI   C3A 3993  10.944   5.007   7.801 -0.0727 -0.0497 -0.0003
  250loPI   C4A 3994  10.912   5.300   7.409 -0.3150 -0.0887  0.1374
  250loPI   C5A 3995  11.153   5.660   7.352 -0.1023  0.2230  0.1050
  250loPI   C6A 3996  11.631   5.692   7.233  0.1304 -0.2979 -0.2549
  250loPI   C1B 3997  10.774   4.415   8.966 -0.2872 -0.1099 -0.2850
  250loPI   C2B 3998  10.894   4.413   8.583 -0.3879 -0.0445 -0.0751
  250loPI   C3B 3999  10.795   4.432   8.199  0.0653  0.1422 -0.3119
  250loPI   C4B 4000  10.694   4.578   7.838  0.0042 -0.0886  0.2168
  251loPI    C1 4001   0.965   0.405   9.815 -0.0654 -0.0403 -0.0105
  251loPI    C2 4002   1.120   0.771   9.855  0.0895 -0.0888 -0.1525
  251loPI    C3 4003   0.977   0.578  10.175  0.3811 -0.0682 -0.0060
  251loPI   PO4 4004   0.768   0.290   9.604  0.1533 -0.2205  0.2786
  251loPI   GL1 4005   0.864   0.448   9.132  0.1359  0.2451  0.0203
  251loPI   GL2 4006   0.842   0.722   9.363 -0.3935  0.1676 -0.1595
  251loPI   C1A 4007   0.760   0.363   8.684  0.0376 -0.0135 -0.3166
  251loPI   C2A 4008   0.550   0.415   8.319  0.0129 -0.2305  0.1247
  251loPI   C3A 4009   0.398   0.730   8.022  0.1831 -0.2670  0.2877
  251loPI   C4A 4010   0.055   0.906   7.646  0.3046  0.2163  0.1040
  251loPI   C5A 4011  -0.170   1.199   7.504  0.0026  0.5144  0.3246
  251loPI   C6A 4012  -0.316   1.488   7.236 -0.0581 -0.1760  0.2854
  251loPI   C1B 4013   0.641   1.053   9.037  0.2385 -0.1288  0.1295
  251loPI   C2B 4014   0.611   1.165   8.698  0.2713  0.1762 -0.3408
  251loPI   C3B 4015   0.416   1.141   8.350  0.0569 -0.1664 -0.3145
  251loPI   C4B 4016   0.189   1.247   7.954 -0.3640  0.1251  0.2180
  252loPI    C1 4017  12.494  17.310  10.056 -0.0822 -0.1218  0.0408
  252loPI    C2 4018  12.450  17.606  10.321  0.3674  0.0237 -0.0387
  252loPI    C3 4019  12.284  17.249  10.391 -0.0603  0.2481  0.1255
  252loPI   PO4 4020  12.478  17.391   9.854  0.2919  0.0873 -0.1904
  252loPI   GL1 4021  12.204  17.284   9.553  0.1059  0.1025  0.0327
  252loPI   GL2 4022  12.123  17.638   9.430  0.1496 -0.2777 -0.1317
  252loPI   C1A 4023  12.338  17.274   9.138 -0.2117  0.0652  0.5827
  252loPI   C2A 4024  12.249  17.468   8.732 -0.0458 -0.0871  0.1201
  252loPI   C3A 4025  12.029  17.389   8.350  0.0370 -0.1145  0.0242
  252loPI   C4A 4026  11.795  17.546   7.979 -0.3285  0.1666  0.0324
  252loPI   C5A 4027  11.617  17.432   7.597  0.1053 -0.1449 -0.0808
  252loPI   C6A 4028  11.385  17.666   7.308 -0.0679  0.5013  0.3091
  252loPI   C1B 4029  11.880  17.534   9.094 -0.2737 -0.2176  0.2187
  252loPI   C2B 4030  11.770  17.705   8.829  0.3299 -0.0401 -0.2885
  252loPI   C3B 4031  11.753  17.820   8.413  0.0205  0.4234  0.0644
  252loPI   C4B 4032  12.092  17.876   8.129  0.0258  0.0642  0.4124
  253loPI    C1 4033   8.886   9.003   9.618  0.2591 -0.0171  0.0695
  253loPI    C2 4034   8.745   8.959   9.990  0.2421 -0.0074  0.0643
  253loPI    C3 4035   8.593   9.241   9.750 -0.1864 -0.4184 -0.1638
  253loPI   PO4 4036   9.130   8.974   9.645  0.4388 -0.1219  0.0544
  253loPI   GL1 4037   9.447   8.874   9.420  0.1094  0.1842  0.0087
  253loPI   GL2 4038   9.639   9.183   9.446 -0.3479 -0.1984 -0.2240
  253loPI   C1A 4039   9.506   8.896   9.047  0.1810  0.0078  0.0764
  253loPI   C2A 4040   9.501   8.691   8.581  0.2553 -0.0522 -0.0594
  253loPI   C3A 4041   9.270   8.664   8.251  0.1294 -0.2892 -0.1835
  253loPI   C4A 4042   9.435   8.819   7.831 -0.1642  0.0540  0.0485
  253loPI   C5A 4043   9.739   8.628   7.463 -0.0500  0.1231  0.4815
  253loPI   C6A 4044   9.954   8.883   7.196 -0.3776  0.2240  0.0392
  253loPI   C1B 4045   9.819   9.299   9.132 -0.3867 -0.0942  0.1317
  253loPI   C2B 4046   9.845   9.341   8.755  0.3109  0.0389 -0.0059
  253loPI   C3B 4047   9.861   9.411   8.308 -0.1061  0.0245 -0.0137
  253loPI   C4B 4048   9.938   9.610   7.894  0.0601 -0.0308  0.0402
  254loPI    C1 4049   7.842   9.111   9.828  0.0056  0.0066  0.1511
  254loPI    C2 4050   8.097   9.369   9.659 -0.2674  0.2771  0.1418
  254loPI    C3 4051   8.163   9.236  10.030  0.1789 -0.0916 -0.0586
  254loPI   PO4 4052   7.609   9.151   9.649 -0.1489  0.1179 -0.0828
  254loPI   GL1 4053   7.684   9.001   9.284  0.0040  0.7238  0.0631
  254loPI   GL2 4054   7.464   8.925   9.063  0.1695 -0.0150  0.0530
  254loPI   C1A 4055   7.911   9.101   8.904 -0.1813 -0.1777 -0.0323
  254loPI   C2A 4056   7.917   9.091   8.453 -0.2327  0.2052 -0.4075
  254loPI   C3A 4057   7.697   9.043   8.058 -0.1890  0.3046  0.0496
  254loPI   C4A 4058   7.878   9.072   7.635  0.0472  0.2206  0.0305
  254loPI   C5A 4059   8.015   9.077   7.274 -0.0810 -0.0367  0.0201
  254loPI   C6A 4060   7.966   9.368   6.897  0.3014 -0.0814  0.1284
  254loPI   C1B 4061   7.378   8.977   8.626  0.1440  0.1236  0.4108
  254loPI   C2B 4062   7.336   9.288   8.264  0.2477  0.2914 -0.1638
  254loPI   C3B 4063   7.328   9.308   7.857  0.2470  0.1428  0.1120
  254loPI   C4B 4064   7.103   9.167   7.434  0.1235  0.2290 -0.2848
  255loPI    C1 4065  12.951  16.753  10.527  0.0448  0.0937 -0.0440
  255loPI    C2 4066  12.753  17.098  10.484  0.1083  0.1075 -0.2320
  255loPI    C3 4067  12.553  16.762  10.568  0.0344  0.1694 -0.1589
  255loPI   PO4 4068  13.032  16.625  10.377  0.1339 -0.0464  0.2175
  255loPI   GL1 4069  13.132  16.625   9.977 -0.0528  0.3632  0.0766
  255loPI   GL2 4070  13.361  16.842  10.017 -0.2909 -0.0977 -0.1545
  255loPI   C1A 4071  13.378  16.392   9.644  0.0486  0.0085 -0.3264
  255loPI   C2A 4072  13.533  16.396   9.263  0.0405 -0.0861  0.1567
  255loPI   C3A 4073  13.664  16.517   8.857 -0.0935 -0.3125  0.1626
  255loPI   C4A 4074  13.715  16.637   8.415  0.2175 -0.1024  0.4636
  255loPI   C5A 4075  13.415  16.753   8.077 -0.1108  0.0044 -0.1183
  255loPI   C6A 4076  13.123  16.778   7.766  0.0944  0.0938 -0.0297
  255loPI   C1B 4077  13.550  16.903   9.582 -0.0575 -0.0199  0.2686
  255loPI   C2B 4078  13.662  16.969   9.163  0.1662  0.0026 -0.0459
  255loPI   C3B 4079  13.731  17.061   8.715 -0.2975 -0.0575 -0.0390
  255loPI   C4B 4080  13.938  17.113   8.313  0.5419  0.1658 -0.1072
  256loPI    C1 4081   5.063   3.820   9.402 -0.1090  0.0125 -0.0879
  256loPI    C2 4082   4.887   4.179   9.398 -0.0654  0.0373  0.1083
  256loPI    C3 4083   5.230   4.127   9.597  0.0692 -0.0489 -0.1417
  256loPI   PO4 4084   5.018   3.734   9.137 -0.3284 -0.1564 -0.0703
  256loPI   GL1 4085   4.940   3.358   8.911 -0.4176 -0.5233 -0.0217
  256loPI   GL2 4086   4.852   3.091   8.907  0.0203 -0.2461 -0.0369
  256loPI   C1A 4087   5.102   3.624   8.550 -0.2558  0.0385 -0.4546
  256loPI   C2A 4088   5.311   3.940   8.576  0.5617 -0.0750  0.3353
  256loPI   C3A 4089   5.618   4.164   8.385  0.2205  0.3400 -0.2077
  256loPI   C4A 4090   5.806   4.046   7.943 -0.0793 -0.0893 -0.0375
  256loPI   C5A 4091   5.975   4.256   7.638  0.0357 -0.2649 -0.0352
  256loPI   C6A 4092   6.201   4.580   7.415 -0.0894 -0.2305  0.0123
  256loPI   C1B 4093   4.842   3.105   8.459  0.0963  0.0009 -0.2166
  256loPI   C2B 4094   4.919   3.413   8.117  0.1207 -0.0315 -0.2263
  256loPI   C3B 4095   5.155   3.567   7.685 -0.4770  0.2377 -0.0632
  256loPI   C4B 4096   5.437   3.934   7.581  0.1831 -0.2447  0.3055
  257loPI    C1 4097  15.719  10.568  10.051 -0.0194  0.1357 -0.0313
  257loPI    C2 4098  15.937  10.791  10.302 -0.1321 -0.1657  0.3438
  257loPI    C3 4099  16.007  10.399  10.271 -0.1806 -0.1478 -0.0336
  257loPI   PO4 4100  15.686  10.759   9.753  0.1434 -0.0617  0.3453
  257loPI   GL1 4101  15.731  10.588   9.257  0.3073  0.1874 -0.4519
  257loPI   GL2 4102  15.840  10.330   9.009  0.0603 -0.0750  0.0506
  257loPI   C1A 4103  15.946  10.820   8.957 -0.0552  0.0304 -0.0151
  257loPI   C2A 4104  16.143  10.910   8.584 -0.2315  0.0873  0.1151
  257loPI   C3A 4105  16.029  10.877   8.131 -0.0127 -0.0795 -0.0589
  257loPI   C4A 4106  16.219  11.030   7.805  0.0404 -0.3441 -0.2025
  257loPI   C5A 4107  16.185  10.977   7.347 -0.3426 -0.2083 -0.2105
  257loPI   C6A 4108  16.395  11.264   6.993  0.0287  0.1314  0.0133
  257loPI   C1B 4109  16.169  10.387   8.776 -0.1383 -0.0432 -0.0583
  257loPI   C2B 4110  16.178  10.313   8.379 -0.0431  0.2959  0.1100
  257loPI   C3B 4111  16.232  10.423   7.980 -0.2510  0.0759  0.1134
  257loPI   C4B 4112  16.416  10.544   7.635  0.0044  0.3172  0.3549
  258loPI    C1 4113   1.831   5.544   9.669  0.0565 -0.1228 -0.1646
  258loPI    C2 4114   1.718   5.320   9.981 -0.0699  0.0223 -0.1046
  258loPI    C3 4115   1.817   5.704  10.036  0.2065 -0.0334 -0.1968
  258loPI   PO4 4116   1.750   5.422   9.471 -0.0664 -0.1446 -0.1030
  258loPI   GL1 4117   1.523   5.311   9.104 -0.1061 -0.0064 -0.2037
  258loPI   GL2 4118   1.720   5.038   9.083  0.0293 -0.2936 -0.1449
  258loPI   C1A 4119   1.335   5.344   8.710  0.1557  0.2740 -0.1282
  258loPI   C2A 4120   1.243   5.686   8.462 -0.2145 -0.0145  0.1936
  258loPI   C3A 4121   1.176   6.018   8.049 -0.1652 -0.2520 -0.1219
  258loPI   C4A 4122   0.979   6.405   7.871 -0.3037  0.1089  0.2439
  258loPI   C5A 4123   0.685   6.650   7.568  0.1946  0.2200 -0.0773
  258loPI   C6A 4124   0.509   6.885   7.242  0.1415 -0.0901  0.0757
  258loPI   C1B 4125   1.705   4.940   8.565  0.1911  0.0414  0.2884
  258loPI   C2B 4126   1.664   4.914   8.159 -0.0770  0.1329  0.0282
  258loPI   C3B 4127   1.801   4.809   7.716 -0.2025 -0.0740 -0.0974
  258loPI   C4B 4128   1.835   4.954   7.329  0.2505 -0.1287  0.1778
  259loPI    C1 4129   7.571   3.889   9.856 -0.0958 -0.0592  0.0177
  259loPI    C2 4130   7.342   4.177  10.013 -0.1706 -0.0290 -0.1447
  259loPI    C3 4131   7.556   3.939  10.253 -0.2613  0.0342  0.0007
  259loPI   PO4 4132   7.458   3.872   9.570 -0.1791 -0.2775  0.3300
  259loPI   GL1 4133   7.466   3.531   9.293  0.2577 -0.2590  0.0794
  259loPI   GL2 4134   7.767   3.403   9.180 -0.0055  0.0926 -0.0874
  259loPI   C1A 4135   7.424   3.484   8.871 -0.0087 -0.1312 -0.0170
  259loPI   C2A 4136   7.732   3.370   8.615  0.0587 -0.2225  0.1598
  259loPI   C3A 4137   7.944   3.512   8.276 -0.2457 -0.0164 -0.0097
  259loPI   C4A 4138   8.091   3.640   7.802  0.3075 -0.1609 -0.0360
  259loPI   C5A 4139   7.933   3.626   7.426 -0.2184  0.1476 -0.0515
  259loPI   C6A 4140   7.900   3.656   6.939 -0.0489  0.3057 -0.0446
  259loPI   C1B 4141   7.936   3.026   8.968  0.0604  0.0066 -0.0129
  259loPI   C2B 4142   8.114   2.968   8.678 -0.2449  0.0640  0.1173
  259loPI   C3B 4143   8.158   3.056   8.205 -0.1922  0.2392 -0.2762
  259loPI   C4B 4144   8.350   3.264   8.008 -0.2735  0.1871 -0.1181
  260loPI    C1 4145   2.573  17.862   9.683  0.0315  0.1039  0.2401
  260loPI    C2 4146   2.967  17.798   9.686  0.0329  0.0706 -0.1364
  260loPI    C3 4147   2.724  17.557   9.893  0.1808 -0.1230 -0.1843
  260loPI   PO4 4148   2.549  18.004   9.463  0.0173 -0.1396  0.1106
  260loPI   GL1 4149   2.597  18.165   8.999 -0.0526 -0.1753 -0.0104
  260loPI   GL2 4150   2.468  17.863   8.981  0.1482  0.0458 -0.1881
  260loPI   C1A 4151   2.246  18.301   8.778 -0.0160  0.2137  0.4305
  260loPI   C2A 4152   2.227  18.343   8.392  0.4242 -0.2178  0.0331
  260loPI   C3A 4153   2.126  18.371   7.969 -0.2211  0.3153 -0.0176
  260loPI   C4A 4154   1.996  18.598   7.537  0.1823  0.0630  0.3452
  260loPI   C5A 4155   2.294  18.674   7.284 -0.0215 -0.0000  0.0951
  260loPI   C6A 4156   2.650  18.861   7.519 -0.2224  0.2001 -0.2440
  260loPI   C1B 4157   2.588  17.938   8.511 -0.1987 -0.2920 -0.2710
  260loPI   C2B 4158   2.633  18.158   8.123  0.1205  0.1374  0.1146
  260loPI   C3B 4159   2.897  18.242   7.697  0.1204 -0.2544  0.0598
  260loPI   C4B 4160   3.182  18.180   7.468 -0.0568  0.3326 -0.2518
  261loPI    C1 4161  11.715   5.287   9.526 -0.0224 -0.2961  0.0813
  261loPI    C2 4162  11.796   4.896   9.560  0.2472 -0.2394  0.1152
  261loPI    C3 4163  12.072   5.167   9.661  0.1301 -0.0407 -0.0880
  261loPI   PO4 4164  11.672   5.386   9.308  0.0753 -0.2727 -0.0019
  261loPI   GL1 4165  11.794   5.416   8.928  0.1376  0.1496 -0.0818
  261loPI   GL2 4166  12.195   5.453   8.832  0.0332 -0.0373 -0.1582
  261loPI   C1A 4167  11.870   5.378   8.504  0.2453 -0.2257  0.0694
  261loPI   C2A 4168  11.664   5.476   8.092  0.1005 -0.2374  0.1188
  261loPI   C3A 4169  11.622   5.774   7.769 -0.1331 -0.4349  0.0355
  261loPI   C4A 4170  11.433   6.162   7.380  0.2960 -0.1537  0.0131
  261loPI   C5A 4171  11.322   6.582   7.372 -0.0084  0.1271  0.1413
  261loPI   C6A 4172  11.243   7.011   7.296 -0.3683  0.0034  0.0719
  261loPI   C1B 4173  12.279   5.177   8.498  0.1542  0.3536  0.1815
  261loPI   C2B 4174  12.367   5.204   7.989 -0.1157 -0.0545 -0.2571
  261loPI   C3B 4175  12.263   5.366   7.624 -0.1935 -0.0535  0.1313
  261loPI   C4B 4176  12.103   5.497   7.298  0.1606  0.0703  0.0988
  262loPI    C1 4177  16.019   5.793  10.020  0.1043 -0.0973 -0.0213
  262loPI    C2 4178  15.906   6.152   9.886 -0.0534 -0.1322  0.0164
  262loPI    C3 4179  15.931   6.084  10.279 -0.3609 -0.2631  0.0163
  262loPI   PO4 4180  15.863   5.633   9.872  0.1160 -0.2269  0.0708
  262loPI   GL1 4181  15.878   5.785   9.488 -0.1775 -0.1683 -0.0699
  262loPI   GL2 4182  15.637   5.969   9.449 -0.1902  0.1312  0.0439
  262loPI   C1A 4183  15.811   5.589   9.193 -0.0843  0.3260  0.4531
  262loPI   C2A 4184  15.832   5.656   8.705  0.1641 -0.0200  0.0248
  262loPI   C3A 4185  15.810   5.744   8.214 -0.1112  0.2014 -0.2815
  262loPI   C4A 4186  15.758   5.778   7.843 -0.2298 -0.2019  0.1091
  262loPI   C5A 4187  15.936   5.962   7.431 -0.1268 -0.2988  0.0171
  262loPI   C6A 4188  15.755   6.226   7.157 -0.0445  0.0769  0.1076
  262loPI   C1B 4189  15.512   5.888   8.994 -0.2057  0.0510 -0.1440
  262loPI   C2B 4190  15.487   6.017   8.576 -0.2058  0.2074 -0.1465
  262loPI   C3B 4191  15.528   6.155   8.146  0.0840 -0.0155 -0.1665
  262loPI   C4B 4192  15.285   6.041   7.793  0.0081  0.1354 -0.0926
  263loPI    C1 4193  10.772  15.847  10.335 -0.0689  0.0472  0.0744
  263loPI    C2 4194  11.104  15.803  10.116 -0.0260  0.0623  0.1361
  263loPI    C3 4195  11.062  15.602  10.459  0.0309  0.2550  0.2570
  263loPI   PO4 4196  10.579  15.783  10.170 -0.0553  0.1750  0.2341
  263loPI   GL1 4197  10.358  15.675   9.717  0.1115 -0.0701 -0.0420
  263loPI   GL2 4198  10.083  15.948   9.637 -0.1989 -0.0164  0.3328
  263loPI   C1A 4199  10.633  15.651   9.404  0.1932 -0.0341  0.1648
  263loPI   C2A 4200  11.072  15.777   9.151  0.0328 -0.1189 -0.2862
  263loPI   C3A 4201  11.341  16.077   9.065  0.1588  0.0897 -0.1391
  263loPI   C4A 4202  11.467  16.461   8.856 -0.1188 -0.0301 -0.0050
  263loPI   C5A 4203  11.463  16.633   8.511 -0.2724 -0.3192 -0.3501
  263loPI   C6A 4204  11.499  16.649   8.095  0.1677 -0.0495  0.2900
  263loPI   C1B 4205  10.215  15.995   9.145 -0.0382 -0.0633  0.1959
  263loPI   C2B 4206  10.267  15.863   8.617  0.2750 -0.1500  0.4455
  263loPI   C3B 4207  10.676  15.681   8.368  0.1091  0.0547  0.1236
  263loPI   C4B 4208  11.086  15.551   8.131  0.0916  0.2280  0.0302
  264loPI    C1 4209   4.891   0.980   9.677 -0.1361 -0.0386  0.1009
  264loPI    C2 4210   4.585   1.008   9.933 -0.1103  0.0433  0.1233
  264loPI    C3 4211   4.881   1.276   9.946 -0.0186 -0.0573  0.1264
  264loPI   PO4 4212   4.785   0.965   9.429  0.0186  0.2982 -0.0530
  264loPI   GL1 4213   4.786   0.828   9.012  0.2268 -0.0430 -0.1246
  264loPI   GL2 4214   5.121   0.799   8.982  0.1099 -0.1058 -0.3200
  264loPI   C1A 4215   4.824   0.525   8.646 -0.0950 -0.0694  0.0181
  264loPI   C2A 4216   4.574   0.330   8.387  0.0959  0.3297  0.3316
  264loPI   C3A 4217   4.554   0.188   8.011  0.0166 -0.1944 -0.0934
  264loPI   C4A 4218   4.464   0.124   7.676  0.2845  0.3724 -0.0767
  264loPI   C5A 4219   4.548   0.101   7.271  0.0403 -0.1433  0.4183
  264loPI   C6A 4220   4.465  -0.195   6.977 -0.4096 -0.1132  0.0595
  264loPI   C1B 4221   5.443   0.710   8.717  0.1068  0.0560 -0.0037
  264loPI   C2B 4222   5.561   0.608   8.318 -0.0331 -0.0719 -0.1384
  264loPI   C3B 4223   5.621   0.498   7.889  0.2612 -0.1454 -0.0794
  264loPI   C4B 4224   5.788   0.850   7.505  0.0107  0.2767  0.2520
  265loPI    C1 4225  10.277   7.853   9.733 -0.0593 -0.1161 -0.1051
  265loPI    C2 4226   9.941   8.044   9.837 -0.0042 -0.1371  0.1153
  265loPI    C3 4227  10.273   8.088  10.057  0.1895  0.0261 -0.2020
  265loPI   PO4 4228  10.114   7.556   9.548  0.1806  0.1136 -0.3446
  265loPI   GL1 4229  10.039   7.440   9.096  0.1270 -0.1863 -0.2997
  265loPI   GL2 4230  10.349   7.283   9.083  0.1150  0.3286  0.6934
  265loPI   C1A 4231   9.934   7.426   8.670  0.1607 -0.1684  0.0062
  265loPI   C2A 4232   9.870   7.280   8.284 -0.1808  0.0525  0.0325
  265loPI   C3A 4233   9.937   7.082   7.829 -0.1119 -0.1473 -0.0546
  265loPI   C4A 4234   9.720   7.060   7.401  0.0295 -0.1266 -0.2596
  265loPI   C5A 4235   9.351   7.302   7.146 -0.2426  0.0295 -0.1539
  265loPI   C6A 4236   9.331   7.744   7.138 -0.0819  0.0651 -0.1760
  265loPI   C1B 4237  10.413   7.265   8.609  0.2514 -0.1121 -0.1174
  265loPI   C2B 4238  10.343   7.185   8.129 -0.2822 -0.2632  0.0354
  265loPI   C3B 4239  10.521   7.110   7.798  0.0274  0.3458 -0.1365
  265loPI   C4B 4240  10.954   7.242   7.693  0.0110 -0.2524 -0.0304
  266loPI    C1 4241   1.557   1.126   9.609  0.1361  0.1525  0.1616
  266loPI    C2 4242   1.348   1.432   9.458  0.1919  0.1375  0.0528
  266loPI    C3 4243   1.735   1.479   9.548  0.2190  0.0789 -0.0322
  266loPI   PO4 4244   1.355   0.958   9.431 -0.4144 -0.0833 -0.2158
  266loPI   GL1 4245   1.147   0.996   9.084  0.2481 -0.0554 -0.0509
  266loPI   GL2 4246   1.366   1.276   8.960  0.0720 -0.1304 -0.0762
  266loPI   C1A 4247   1.014   0.781   8.741  0.0299  0.0657 -0.0914
  266loPI   C2A 4248   0.817   0.885   8.301  0.3811  0.2403 -0.0409
  266loPI   C3A 4249   0.808   1.086   7.852  0.0473 -0.1182  0.1861
  266loPI   C4A 4250   0.511   1.101   7.495  0.4252  0.1185 -0.2308
  266loPI   C5A 4251   0.372   0.926   7.145  0.3205 -0.0037 -0.1913
  266loPI   C6A 4252   0.306   0.844   6.785 -0.1187  0.0156 -0.0091
  266loPI   C1B 4253   1.115   1.215   8.602  0.1791  0.1225 -0.0040
  266loPI   C2B 4254   0.959   1.381   8.337  0.2256  0.2270 -0.2309
  266loPI   C3B 4255   0.843   1.624   8.114  0.2403  0.2810 -0.3295
  266loPI   C4B 4256   0.660   1.966   8.021  0.1116  0.1357 -0.3408
  267loPI    C1 4257   2.327   6.049   9.492 -0.1954 -0.0054 -0.0072
  267loPI    C2 4258   2.260   5.656   9.452  0.2312 -0.0925  0.0814
  267loPI    C3 4259   2.210   5.833   9.807 -0.1021 -0.0341  0.0083
  267loPI   PO4 4260   2.420   6.110   9.227  0.2728 -0.0618 -0.0136
  267loPI   GL1 4261   2.171   6.000   8.907  0.0878  0.1701 -0.0278
  267loPI   GL2 4262   2.320   5.708   8.716 -0.0791  0.0841  0.1282
  267loPI   C1A 4263   2.200   6.123   8.497 -0.0784  0.0746 -0.1783
  267loPI   C2A 4264   2.380   6.403   8.246  0.1690  0.2416 -0.0197
  267loPI   C3A 4265   2.505   6.550   7.820  0.0605 -0.1460  0.1460
  267loPI   C4A 4266   2.758   6.394   7.480 -0.0293  0.0562  0.1139
  267loPI   C5A 4267   2.974   6.667   7.108  0.1175 -0.1194 -0.1538
  267loPI   C6A 4268   2.861   6.620   6.757 -0.1248  0.0136 -0.0196
  267loPI   C1B 4269   2.234   5.695   8.306 -0.0763  0.2183  0.3126
  267loPI   C2B 4270   2.362   5.560   7.903  0.0739 -0.0792 -0.0386
  267loPI   C3B 4271   2.371   5.357   7.596  0.0820  0.1986  0.2080
  267loPI   C4B 4272   2.267   5.038   7.624  0.2015  0.3134  0.3128
  268loPI    C1 4273  11.011   6.264   9.569 -0.2175 -0.0210  0.0188
  268loPI    C2 4274  11.327   6.100   9.753 -0.1395  0.2186  0.1037
  268loPI    C3 4275  10.987   6.160   9.955 -0.2010  0.0738  0.0456
  268loPI   PO4 4276  11.093   6.255   9.358 -0.2031  0.0793  0.0424
  268loPI   GL1 4277  11.328   6.087   9.020  0.0789 -0.0875  0.0051
  268loPI   GL2 4278  11.474   5.772   9.060  0.0933  0.0603 -0.3015
  268loPI   C1A 4279  11.121   6.073   8.658  0.3255  0.2108 -0.4572
  268loPI   C2A 4280  11.026   6.289   8.290  0.3265  0.1039 -0.1179
  268loPI   C3A 4281  10.758   6.194   7.954  0.0869 -0.0447  0.1237
  268loPI   C4A 4282  10.524   6.488   7.557 -0.1421  0.1661 -0.2215
  268loPI   C5A 4283  10.157   6.449   7.307  0.1094  0.4686  0.0467
  268loPI   C6A 4284   9.801   6.637   7.125  0.0756  0.0415  0.1785
  268loPI   C1B 4285  11.434   5.655   8.696 -0.0314 -0.0170 -0.1934
  268loPI   C2B 4286  11.302   5.861   8.232 -0.4616  0.0351  0.0280
  268loPI   C3B 4287  11.103   5.868   7.917 -0.3256 -0.0907  0.2398
  268loPI   C4B 4288  10.692   5.737   7.708  0.0301 -0.1078 -0.1651
  269loPI    C1 4289   7.163  16.118   9.813 -0.0899 -0.0524  0.1640
  269loPI    C2 4290   7.465  15.878   9.706  0.0364  0.2164 -0.0948
  269loPI    C3 4291   7.377  15.927  10.093  0.2187  0.0088 -0.0251
  269loPI   PO4 4292   7.116  16.168   9.583 -0.0499 -0.1517 -0.0412
  269loPI   GL1 4293   6.919  16.108   9.304  0.1377 -0.0597 -0.2304
  269loPI   GL2 4294   7.070  15.780   9.291  0.2650 -0.0604 -0.0949
  269loPI   C1A 4295   7.021  16.215   8.896  0.3382  0.1747 -0.1841
  269loPI   C2A 4296   6.957  16.323   8.553  0.3447 -0.1065  0.1447
  269loPI   C3A 4297   6.774  16.348   8.138  0.2911 -0.1371 -0.1532
  269loPI   C4A 4298   6.552  16.172   7.825 -0.0240 -0.0528  0.1178
  269loPI   C5A 4299   6.570  15.732   7.593  0.3634  0.2604  0.1866
  269loPI   C6A 4300   6.481  15.287   7.718 -0.0430  0.1135 -0.0930
  269loPI   C1B 4301   6.971  15.703   8.868  0.0740 -0.0636  0.1344
  269loPI   C2B 4302   7.007  15.656   8.390 -0.0430  0.3018 -0.0962
  269loPI   C3B 4303   6.809  15.575   8.050  0.0441  0.0819  0.1421
  269loPI   C4B 4304   7.005  15.531   7.710  0.1064  0.0606  0.1355
  270loPI    C1 4305   7.192   6.347   9.727  0.2874 -0.2640 -0.0948
  270loPI    C2 4306   7.257   6.055   9.992  0.0987 -0.0712  0.1706
  270loPI    C3 4307   7.549   6.315   9.905  0.2162 -0.2401  0.0546
  270loPI   PO4 4308   7.048   6.214   9.590 -0.1460 -0.2766 -0.0410
  270loPI   GL1 4309   7.139   5.969   9.269 -0.0467 -0.1864  0.0442
  270loPI   GL2 4310   7.286   5.728   9.126 -0.0294  0.0045 -0.1616
  270loPI   C1A 4311   7.053   6.058   8.871  0.3035  0.1100  0.0087
  270loPI   C2A 4312   7.060   5.906   8.417  0.1462  0.0108  0.0745
  270loPI   C3A 4313   6.960   6.031   8.082 -0.0521 -0.1616  0.2599
  270loPI   C4A 4314   6.720   6.296   7.806  0.1755 -0.1843 -0.0054
  270loPI   C5A 4315   7.004   6.195   7.433 -0.0114 -0.1781  0.2399
  270loPI   C6A 4316   7.107   6.358   7.103  0.0247 -0.4141 -0.2415
  270loPI   C1B 4317   7.341   5.528   8.669  0.1162 -0.1078  0.1228
  270loPI   C2B 4318   7.522   5.346   8.355 -0.1589 -0.2882  0.2393
  270loPI   C3B 4319   7.391   5.025   8.081 -0.1414 -0.3887  0.3329
  270loPI   C4B 4320   7.434   4.902   7.657 -0.4142 -0.1938 -0.2246
  271loPI    C1 4321   5.888  10.108   9.560  0.0390  0.0043  0.0858
  271loPI    C2 4322   5.883  10.198   9.950 -0.1977 -0.3759  0.1763
  271loPI    C3 4323   5.546  10.218   9.735 -0.0411 -0.0312 -0.0466
  271loPI   PO4 4324   6.181  10.194   9.476 -0.1645 -0.0596  0.0588
  271loPI   GL1 4325   6.371  10.014   9.057  0.1203  0.0196 -0.4104
  271loPI   GL2 4326   6.415   9.770   9.327  0.0374  0.2981 -0.1748
  271loPI   C1A 4327   6.350  10.226   8.704  0.0581  0.1016  0.2907
  271loPI   C2A 4328   6.451   9.945   8.336  0.0155  0.2630  0.1284
  271loPI   C3A 4329   6.453   9.839   7.824 -0.0154  0.0682  0.1720
  271loPI   C4A 4330   6.735   9.739   7.508 -0.0943 -0.1978  0.3938
  271loPI   C5A 4331   6.758   9.448   7.235 -0.0058 -0.0356 -0.0351
  271loPI   C6A 4332   6.669   8.991   7.216 -0.1377  0.0218 -0.1418
  271loPI   C1B 4333   6.352   9.502   8.946 -0.3360  0.1546 -0.0015
  271loPI   C2B 4334   6.540   9.521   8.548 -0.0686 -0.2207  0.0277
  271loPI   C3B 4335   6.478   9.458   8.147  0.2219 -0.1115  0.2860
  271loPI   C4B 4336   6.233   9.229   7.959 -0.0519 -0.0659  0.0643
  272loPI    C1 4337  16.111  16.288  10.325  0.1597 -0.0934  0.1141
  272loPI    C2 4338  16.081  15.948  10.533 -0.1499 -0.0981  0.0664
  272loPI    C3 4339  15.796  16.227  10.563 -0.0739  0.0068 -0.1640
  272loPI   PO4 4340  16.248  16.110  10.069  0.1933 -0.0115  0.2550
  272loPI   GL1 4341  16.404  15.800   9.685 -0.1407  0.2696 -0.2918
  272loPI   GL2 4342  16.046  15.926   9.606  0.1334 -0.0945  0.1452
  272loPI   C1A 4343  16.559  15.945   9.202  0.1133  0.1286 -0.0441
  272loPI   C2A 4344  16.422  15.924   8.778  0.0197  0.1919 -0.0983
  272loPI   C3A 4345  16.325  16.146   8.406 -0.1284  0.0902 -0.1214
  272loPI   C4A 4346  16.226  16.398   8.160  0.2415  0.2077  0.3867
  272loPI   C5A 4347  15.849  16.632   8.158 -0.0159 -0.0848  0.0913
  272loPI   C6A 4348  15.413  16.718   8.094 -0.2183  0.0809  0.0974
  272loPI   C1B 4349  16.064  15.854   9.149 -0.3910  0.0238  0.0792
  272loPI   C2B 4350  15.961  15.652   8.737 -0.0783 -0.0354 -0.0087
  272loPI   C3B 4351  15.994  15.783   8.366  0.1618  0.1653  0.0245
  272loPI   C4B 4352  16.062  15.949   8.010  0.0962  0.0244  0.2374
  273loPI    C1 4353  12.998   6.563   9.720 -0.0777  0.2108  0.2302
  273loPI    C2 4354  13.186   6.916   9.727 -0.0784  0.2186 -0.0279
  273loPI    C3 4355  13.357   6.595   9.894  0.0874  0.2630 -0.1104
  273loPI   PO4 4356  12.895   6.529   9.574 -0.1887  0.0584  0.3042
  273loPI   GL1 4357  13.054   6.324   9.137  0.1072  0.3786  0.1003
  273loPI   GL2 4358  12.792   6.599   9.092 -0.1575 -0.1248  0.0295
  273loPI   C1A 4359  13.160   6.512   8.759  0.1580  0.3857  0.1314
  273loPI   C2A 4360  13.313   6.684   8.398  0.0227  0.0311 -0.1550
  273loPI   C3A 4361  13.519   6.839   7.992 -0.0014  0.1896 -0.1336
  273loPI   C4A 4362  13.733   6.615   7.663  0.0109 -0.0837  0.0919
  273loPI   C5A 4363  13.942   6.804   7.322 -0.0117 -0.1975 -0.0259
  273loPI   C6A 4364  13.784   7.213   7.081 -0.1390  0.1069 -0.3756
  273loPI   C1B 4365  12.683   6.597   8.679  0.3432 -0.1338  0.0963
  273loPI   C2B 4366  12.853   6.568   8.297  0.3642 -0.3739 -0.0959
  273loPI   C3B 4367  12.919   6.381   7.942 -0.1048 -0.2582 -0.1664
  273loPI   C4B 4368  12.867   6.116   7.521 -0.1881 -0.1318  0.1475
  274loPI    C1 4369  18.209  13.702  10.305 -0.0640  0.1600  0.1269
  274loPI    C2 4370  18.545  13.783  10.505  0.1178  0.1898 -0.1834
  274loPI    C3 4371  18.258  13.564  10.677  0.2624  0.2260  0.1114
  274loPI   PO4 4372  18.249  13.850  10.145 -0.3239 -0.0410 -0.0367
  274loPI   GL1 4373  18.174  13.969   9.785 -0.0840  0.2003  0.0718
  274loPI   GL2 4374  18.422  13.860   9.593  0.1083  0.1065  0.3234
  274loPI   C1A 4375  17.796  13.968   9.673  0.0587  0.2614  0.2393
  274loPI   C2A 4376  17.597  13.903   9.275  0.1221  0.1884  0.1721
  274loPI   C3A 4377  17.456  13.852   8.817  0.1514  0.0953 -0.2242
  274loPI   C4A 4378  17.362  13.935   8.374 -0.0545  0.0290  0.4386
  274loPI   C5A 4379  17.339  13.906   7.983 -0.0302 -0.3722  0.2775
  274loPI   C6A 4380  17.516  13.826   7.639  0.1544  0.2765 -0.1998
  274loPI   C1B 4381  18.345  13.686   9.240  0.0295  0.2802 -0.3086
  274loPI   C2B 4382  17.946  13.701   8.966  0.0563 -0.2176 -0.1409
  274loPI   C3B 4383  17.865  13.635   8.600 -0.2240  0.1255 -0.0175
  274loPI   C4B 4384  17.741  13.664   8.169  0.0968 -0.3267  0.0440
  275loPI    C1 4385   3.876   0.909   9.768 -0.1870  0.0060 -0.2160
  275loPI    C2 4386   3.872   1.256   9.569 -0.3367  0.2459  0.1935
  275loPI    C3 4387   4.074   1.225   9.912 -0.0962 -0.1573  0.0222
  275loPI   PO4 4388   3.865   0.721   9.538  0.0785  0.2732 -0.1542
  275loPI   GL1 4389   3.859   0.724   9.103 -0.1564 -0.1146  0.0666
  275loPI   GL2 4390   4.039   0.912   9.013  0.3566  0.0926  0.0133
  275loPI   C1A 4391   3.587   0.450   8.773 -0.0593  0.0373  0.1559
  275loPI   C2A 4392   3.157   0.322   8.659  0.1691 -0.4662  0.1516
  275loPI   C3A 4393   2.951   0.306   8.273  0.1472 -0.3555 -0.0052
  275loPI   C4A 4394   2.624   0.458   8.087 -0.0005 -0.0460  0.2280
  275loPI   C5A 4395   2.585   0.696   7.682 -0.4977 -0.2575 -0.1055
  275loPI   C6A 4396   2.638   0.492   7.273  0.0226  0.3912 -0.0604
  275loPI   C1B 4397   3.872   0.810   8.635  0.0434  0.2773 -0.0696
  275loPI   C2B 4398   3.720   0.578   8.222  0.0979  0.0020  0.3358
  275loPI   C3B 4399   3.674   0.655   7.895 -0.2281 -0.1396  0.2679
  275loPI   C4B 4400   3.914   0.896   7.531  0.2784 -0.0293 -0.0297
  276loPI    C1 4401   9.660   4.879   9.342 -0.2137  0.0576  0.0827
  276loPI    C2 4402   9.822   4.914   9.705 -0.2439 -0.1286  0.1153
  276loPI    C3 4403   9.774   4.552   9.542 -0.1529 -0.0409 -0.1100
  276loPI   PO4 4404   9.856   4.966   9.160 -0.1010 -0.2712 -0.2362
  276loPI   GL1 4405   9.958   5.337   8.920  0.0644  0.1278  0.1834
  276loPI   GL2 4406   9.883   5.527   8.668 -0.1552 -0.3679  0.1519
  276loPI   C1A 4407   9.760   5.048   8.529  0.2326  0.5472 -0.2535
  276loPI   C2A 4408   9.567   5.003   8.307  0.0575  0.1352 -0.4149
  276loPI   C3A 4409   9.407   5.022   7.866  0.2959  0.0630  0.1057
  276loPI   C4A 4410   9.321   4.828   7.527 -0.0093 -0.1768 -0.2297
  276loPI   C5A 4411   9.487   4.909   7.123  0.1449  0.1083 -0.0784
  276loPI   C6A 4412   9.328   4.671   6.714  0.0999  0.3037 -0.0277
  276loPI   C1B 4413   9.763   5.445   8.176  0.1614  0.0087  0.0375
  276loPI   C2B 4414   9.635   5.507   7.711 -0.0939 -0.0121 -0.1761
  276loPI   C3B 4415   9.452   5.780   7.449 -0.0493 -0.1331 -0.3505
  276loPI   C4B 4416   9.378   5.890   6.922  0.0866 -0.2401  0.0326
  277loPI    C1 4417   7.543  13.511  10.025 -0.2176  0.2873 -0.0758
  277loPI    C2 4418   7.586  13.834  10.259  0.1134  0.0631  0.1832
  277loPI    C3 4419   7.313  13.555  10.349 -0.0434  0.1763  0.0648
  277loPI   PO4 4420   7.782  13.635   9.829 -0.4397 -0.1810  0.1242
  277loPI   GL1 4421   7.715  13.662   9.489  0.1121  0.3437 -0.0344
  277loPI   GL2 4422   8.047  13.476   9.435 -0.0317  0.0377  0.0744
  277loPI   C1A 4423   7.603  13.644   9.035 -0.0372 -0.0971 -0.1538
  277loPI   C2A 4424   7.737  13.645   8.570  0.2663 -0.0013 -0.3647
  277loPI   C3A 4425   7.691  13.711   8.124 -0.0371 -0.1747  0.2030
  277loPI   C4A 4426   7.790  13.739   7.639 -0.2951  0.1431 -0.2281
  277loPI   C5A 4427   8.164  13.629   7.376 -0.2152 -0.0648 -0.0121
  277loPI   C6A 4428   8.483  13.590   6.989  0.2289  0.0442 -0.0352
  277loPI   C1B 4429   8.085  13.106   9.170 -0.1371 -0.3816  0.3171
  277loPI   C2B 4430   7.758  12.848   9.072  0.0643  0.0044 -0.0158
  277loPI   C3B 4431   7.586  12.492   8.864 -0.0062  0.3587 -0.1300
  277loPI   C4B 4432   7.225  12.410   8.583 -0.0953  0.2642 -0.4319
  278loPI    C1 4433  12.442  18.542  10.135 -0.0954  0.0503  0.0645
  278loPI    C2 4434  12.668  18.825   9.965  0.1363 -0.2206 -0.0865
  278loPI    C3 4435  12.521  18.880  10.333 -0.0614  0.2143 -0.2242
  278loPI   PO4 4436  12.547  18.369  10.057 -0.3426  0.0603  0.0609
  278loPI   GL1 4437  12.889  18.349   9.822 -0.0258  0.1717 -0.0522
  278loPI   GL2 4438  13.142  18.445   9.985 -0.0346  0.1749 -0.1551
  278loPI   C1A 4439  12.958  18.100   9.486 -0.1038 -0.0292 -0.0796
  278loPI   C2A 4440  13.011  17.792   9.120 -0.0454 -0.0269  0.2506
  278loPI   C3A 4441  13.233  17.693   8.775  0.0570  0.0710 -0.1352
  278loPI   C4A 4442  13.468  17.467   8.499  0.3359 -0.0808  0.0607
  278loPI   C5A 4443  13.393  17.243   8.169  0.1757 -0.1304  0.1372
  278loPI   C6A 4444  13.575  17.328   7.824 -0.1373  0.1597  0.0909
  278loPI   C1B 4445  13.444  18.332   9.688  0.0427  0.0273 -0.2617
  278loPI   C2B 4446  13.668  18.242   9.338 -0.0534  0.0573 -0.0818
  278loPI   C3B 4447  13.586  18.054   8.968  0.0705 -0.0048  0.0890
  278loPI   C4B 4448  13.427  18.106   8.547  0.3477 -0.0541 -0.1898
  279loPI    C1 4449   4.978  10.598   9.686 -0.2241 -0.3566 -0.1383
  279loPI    C2 4450   4.593  10.597   9.578 -0.3009 -0.0677  0.1194
  279loPI    C3 4451   4.695  10.689   9.954  0.0264 -0.0461  0.0282
  279loPI   PO4 4452   5.076  10.403   9.688  0.0973  0.3716 -0.3528
  279loPI   GL1 4453   5.157  10.201   9.269  0.3739  0.0516 -0.1316
  279loPI   GL2 4454   4.849  10.389   9.175 -0.1534  0.0341  0.1521
  279loPI   C1A 4455   5.594  10.126   9.149 -0.0452  0.3711  0.2274
  279loPI   C2A 4456   5.916  10.083   8.852 -0.1652 -0.1499 -0.0258
  279loPI   C3A 4457   5.918  10.028   8.426  0.1527  0.0058  0.0276
  279loPI   C4A 4458   6.230  10.252   8.007  0.0621  0.1809  0.3238
  279loPI   C5A 4459   6.277  10.219   7.574  0.0069 -0.0381 -0.3077
  279loPI   C6A 4460   6.089   9.862   7.215 -0.1856  0.0684 -0.1669
  279loPI   C1B 4461   4.672  10.121   8.840 -0.0398  0.0858  0.0237
  279loPI   C2B 4462   4.616  10.220   8.378 -0.0845  0.1610 -0.0908
  279loPI   C3B 4463   4.370  10.077   8.059 -0.1604 -0.0547  0.2061
  279loPI   C4B 4464   4.221   9.730   7.892 -0.0723  0.0076  0.2138
  280loPI    C1 4465   0.525  17.453   9.844  0.0871  0.2526  0.0713
  280loPI    C2 4466   0.554  17.695  10.161 -0.1786  0.1331  0.1902
  280loPI    C3 4467   0.426  17.319  10.208 -0.1781  0.1008 -0.0537
  280loPI   PO4 4468   0.678  17.627   9.669 -0.2074  0.2031  0.0364
  280loPI   GL1 4469   0.920  17.536   9.311 -0.4148  0.1739 -0.0988
  280loPI   GL2 4470   1.192  17.646   9.138 -0.2032 -0.0057  0.3241
  280loPI   C1A 4471   1.028  17.298   8.839 -0.2162  0.2139  0.1368
  280loPI   C2A 4472   1.173  16.981   8.592  0.3676 -0.0441 -0.1218
  280loPI   C3A 4473   1.169  16.485   8.520 -0.4974  0.2658  0.3458
  280loPI   C4A 4474   1.062  16.361   8.132  0.0100 -0.1110  0.0024
  280loPI   C5A 4475   1.083  16.703   7.825 -0.3034 -0.0405 -0.0869
  280loPI   C6A 4476   1.027  16.917   7.355 -0.0914 -0.0443  0.1390
  280loPI   C1B 4477   1.437  17.824   8.702 -0.1722 -0.0142 -0.0825
  280loPI   C2B 4478   1.297  17.887   8.277 -0.0378  0.0360  0.1403
  280loPI   C3B 4479   1.119  17.692   7.877  0.1892 -0.3709 -0.2426
  280loPI   C4B 4480   0.945  17.238   7.733 -0.1493  0.2873 -0.0465
  281loPI    C1 4481  18.076  15.603  10.130 -0.0086  0.0008 -0.1732
  281loPI    C2 4482  18.047  15.206  10.171 -0.0761  0.0312  0.0898
  281loPI    C3 4483  18.016  15.443  10.492  0.0104  0.2472 -0.0594
  281loPI   PO4 4484  18.030  15.688   9.878  0.2511 -0.2353 -0.2590
  281loPI   GL1 4485  18.125  16.013   9.550  0.1393  0.0268 -0.0094
  281loPI   GL2 4486  17.773  16.128   9.639  0.0503 -0.2065  0.2700
  281loPI   C1A 4487  17.941  15.764   9.199  0.0141 -0.1374  0.0377
  281loPI   C2A 4488  17.752  15.647   8.817  0.1623  0.1278  0.1799
  281loPI   C3A 4489  17.555  15.825   8.374 -0.2048 -0.2011  0.1898
  281loPI   C4A 4490  17.557  15.894   7.979  0.2843  0.0327  0.0363
  281loPI   C5A 4491  17.934  15.919   7.762 -0.1285 -0.0195 -0.0644
  281loPI   C6A 4492  18.004  15.915   7.369  0.1444  0.1297  0.0484
  281loPI   C1B 4493  17.816  16.268   9.110 -0.0008 -0.1507 -0.2039
  281loPI   C2B 4494  17.873  16.125   8.671 -0.4852  0.2089  0.2838
  281loPI   C3B 4495  17.837  16.204   8.196  0.0852  0.0353  0.1880
  281loPI   C4B 4496  17.996  16.463   7.877 -0.1221  0.1103 -0.2794
  282loPI    C1 4497  16.785  12.126   9.906 -0.0545 -0.0036  0.0444
  282loPI    C2 4498  16.862  11.996  10.276 -0.1387 -0.0572  0.0433
  282loPI    C3 4499  16.883  11.743   9.967  0.1071  0.0280 -0.0118
  282loPI   PO4 4500  16.919  12.354   9.847  0.0254 -0.2775  0.1261
  282loPI   GL1 4501  17.322  12.598   9.713  0.4252 -0.1550  0.1018
  282loPI   GL2 4502  17.286  12.840   9.509 -0.0595  0.2406 -0.1322
  282loPI   C1A 4503  16.861  12.755   9.395 -0.0394 -0.0942 -0.0584
  282loPI   C2A 4504  16.613  12.738   9.049  0.2673 -0.1865 -0.0457
  282loPI   C3A 4505  16.364  12.409   8.791  0.0213 -0.2748  0.1131
  282loPI   C4A 4506  16.459  12.159   8.469 -0.2229 -0.1175  0.4218
  282loPI   C5A 4507  16.381  12.028   8.104  0.0086  0.2209 -0.1556
  282loPI   C6A 4508  16.477  12.030   7.645 -0.0591  0.1170 -0.3241
  282loPI   C1B 4509  17.202  12.909   9.088 -0.3371 -0.2873  0.1951
  282loPI   C2B 4510  17.025  12.651   8.753 -0.1657  0.0866  0.0017
  282loPI   C3B 4511  16.644  12.680   8.427  0.1902 -0.2858  0.3266
  282loPI   C4B 4512  16.373  12.533   8.048  0.1016 -0.0511 -0.1632
  283loPI    C1 4513  12.955   2.690   9.885  0.3018 -0.0052 -0.1332
  283loPI    C2 4514  13.107   2.858   9.556 -0.0689  0.1396 -0.2366
  283loPI    C3 4515  12.797   3.029   9.742  0.0708  0.0026  0.1306
  283loPI   PO4 4516  12.961   2.393   9.712  0.0699  0.0754  0.0551
  283loPI   GL1 4517  12.790   2.465   9.355 -0.3221  0.1113 -0.2917
  283loPI   GL2 4518  12.829   2.672   9.203  0.1814 -0.1883 -0.1931
  283loPI   C1A 4519  12.604   2.317   8.949  0.0029  0.1635  0.0491
  283loPI   C2A 4520  12.764   2.186   8.655 -0.1752  0.1516 -0.1484
  283loPI   C3A 4521  12.611   1.956   8.237  0.1570  0.1596  0.0200
  283loPI   C4A 4522  12.468   2.120   7.901  0.0161  0.2453  0.0564
  283loPI   C5A 4523  12.113   2.098   7.689 -0.0933 -0.0480 -0.0285
  283loPI   C6A 4524  11.741   2.441   7.483  0.0046  0.0013  0.0845
  283loPI   C1B 4525  12.945   2.790   8.844 -0.0625 -0.0154  0.2686
  283loPI   C2B 4526  12.832   2.959   8.372 -0.1157  0.0174 -0.0486
  283loPI   C3B 4527  12.673   3.143   8.104  0.2370  0.1899 -0.0222
  283loPI   C4B 4528  12.750   3.437   7.957 -0.2360 -0.0463 -0.0987
  284loPI    C1 4529  19.017  16.026  10.108  0.0643 -0.1526  0.0239
  284loPI    C2 4530  18.801  15.891  10.416  0.0271 -0.1829 -0.0157
  284loPI    C3 4531  19.198  15.926  10.450  0.0285 -0.2333  0.0194
  284loPI   PO4 4532  19.020  15.851   9.920 -0.1007  0.0131 -0.0052
  284loPI   GL1 4533  19.152  15.856   9.491  0.2287  0.1294 -0.0332
  284loPI   GL2 4534  19.277  15.496   9.412  0.0730 -0.1663 -0.2016
  284loPI   C1A 4535  18.982  15.669   9.073 -0.2761 -0.0562 -0.0164
  284loPI   C2A 4536  18.783  15.555   8.784  0.1671 -0.1803  0.2095
  284loPI   C3A 4537  18.547  15.386   8.378  0.4100 -0.1854 -0.5289
  284loPI   C4A 4538  18.519  15.290   7.951  0.1146 -0.0469  0.0461
  284loPI   C5A 4539  18.362  15.616   7.701 -0.1267  0.0879 -0.3891
  284loPI   C6A 4540  18.631  15.956   7.408 -0.2233  0.1064  0.2524
  284loPI   C1B 4541  19.485  15.779   9.040 -0.0541 -0.2796  0.2012
  284loPI   C2B 4542  19.447  15.781   8.625  0.2568  0.1386  0.2015
  284loPI   C3B 4543  19.423  15.837   8.170 -0.1884 -0.2072  0.2521
  284loPI   C4B 4544  19.618  15.751   7.801 -0.1868  0.1283 -0.1258
  285loPI    C1 4545   7.712   4.401   9.756 -0.0276  0.0702  0.0357
  285loPI    C2 4546   7.897   4.738   9.867  0.1389 -0.1209  0.3523
  285loPI    C3 4547   7.499   4.710   9.894  0.1175  0.0759  0.2532
  285loPI   PO4 4548   7.811   4.301   9.580 -0.2147  0.1127 -0.2145
  285loPI   GL1 4549   7.645   4.178   9.227  0.1972  0.1716 -0.0162
  285loPI   GL2 4550   7.807   3.879   9.105  0.2172 -0.1145 -0.1468
  285loPI   C1A 4551   7.461   3.957   8.825 -0.1168  0.1477  0.3647
  285loPI   C2A 4552   7.641   3.962   8.430 -0.2252 -0.2508 -0.2314
  285loPI   C3A 4553   7.798   4.068   7.988 -0.2831  0.1359  0.0214
  285loPI   C4A 4554   7.965   4.170   7.675 -0.1048 -0.0978  0.0299
  285loPI   C5A 4555   8.177   4.033   7.302  0.3468 -0.0087 -0.1172
  285loPI   C6A 4556   8.485   4.361   7.078 -0.0448  0.3587 -0.0005
  285loPI   C1B 4557   8.046   4.073   8.726  0.1646 -0.1355 -0.1975
  285loPI   C2B 4558   8.150   3.958   8.379  0.4444 -0.1446 -0.3647
  285loPI   C3B 4559   8.374   4.057   8.001 -0.1410  0.1427 -0.1818
  285loPI   C4B 4560   8.437   4.336   7.545  0.2940 -0.0221  0.1441
  286loPI    C1 4561   0.168  10.203   9.475 -0.1054 -0.0175  0.2038
  286loPI    C2 4562  -0.063  10.406   9.219  0.0007  0.0048  0.1250
  286loPI    C3 4563   0.279  10.566   9.350  0.1356 -0.1627 -0.0153
  286loPI   PO4 4564   0.134   9.897   9.322  0.3646  0.1400  0.0406
  286loPI   GL1 4565   0.384   9.878   9.019 -0.0311 -0.2097 -0.1447
  286loPI   GL2 4566   0.226  10.238   8.857 -0.1965  0.0885  0.2281
  286loPI   C1A 4567   0.516   9.639   8.701 -0.0959 -0.0510 -0.1775
  286loPI   C2A 4568   0.816   9.487   8.471  0.1095  0.6279 -0.1360
  286loPI   C3A 4569   0.694   9.298   8.095 -0.1518 -0.1220 -0.2198
  286loPI   C4A 4570   0.809   9.115   7.682 -0.2648  0.2748 -0.2022
  286loPI   C5A 4571   0.997   8.773   7.531 -0.1145 -0.1500 -0.1141
  286loPI   C6A 4572   0.817   8.421   7.363  0.0154 -0.1825 -0.2190
  286loPI   C1B 4573   0.371  10.077   8.542  0.0889  0.2715 -0.1628
  286loPI   C2B 4574   0.533  10.269   8.243 -0.3300 -0.0976  0.1320
  286loPI   C3B 4575   0.591  10.436   7.799  0.5261  0.0810  0.0931
  286loPI   C4B 4576   0.493  10.462   7.385  0.1531  0.0251 -0.0432
  287loPI    C1 4577  10.970   9.451   9.802 -0.2060  0.0613  0.0088
  287loPI    C2 4578  10.954   9.557  10.187  0.1138  0.1806 -0.0078
  287loPI    C3 4579  10.679   9.693   9.930  0.0896  0.3673  0.1152
  287loPI   PO4 4580  11.029   9.156   9.775 -0.0827 -0.0752  0.3128
  287loPI   GL1 4581  10.929   9.035   9.422  0.2419  0.0884 -0.1026
  287loPI   GL2 4582  11.046   9.418   9.261 -0.0479  0.4019  0.1217
  287loPI   C1A 4583  10.886   8.766   9.033  0.4163 -0.0358  0.0731
  287loPI   C2A 4584  11.014   8.626   8.644 -0.0926  0.1576  0.0129
  287loPI   C3A 4585  10.938   8.509   8.161  0.1573 -0.2765  0.0834
  287loPI   C4A 4586  10.987   8.502   7.760 -0.1033  0.0187 -0.0125
  287loPI   C5A 4587  11.106   8.413   7.343  0.1919  0.6404  0.0150
  287loPI   C6A 4588  10.987   8.001   7.077  0.3409 -0.0196 -0.1709
  287loPI   C1B 4589  11.077   9.569   8.860  0.1092  0.0285 -0.2564
  287loPI   C2B 4590  11.234   9.507   8.406 -0.0536  0.1254 -0.2798
  287loPI   C3B 4591  11.404   9.250   8.062  0.2212  0.0730 -0.0190
  287loPI   C4B 4592  11.358   8.816   7.696 -0.0925 -0.0876 -0.0877
  288loPI    C1 4593  18.446  19.002  10.293  0.2743 -0.1207 -0.1029
  288loPI    C2 4594  18.807  18.939  10.453  0.1323 -0.2021  0.1923
  288loPI    C3 4595  18.478  18.889  10.676 -0.0452  0.2862  0.0517
  288loPI   PO4 4596  18.503  18.951  10.043  0.2283 -0.0285 -0.0391
  288loPI   GL1 4597  18.613  18.650   9.608  0.3870  0.0251 -0.0047
  288loPI   GL2 4598  18.894  18.564   9.518 -0.0711 -0.1609 -0.1757
  288loPI   C1A 4599  18.191  18.655   9.475 -0.1271 -0.0480  0.1232
  288loPI   C2A 4600  18.152  18.582   8.965 -0.0504 -0.0713 -0.4216
  288loPI   C3A 4601  17.953  18.566   8.686 -0.3196 -0.1333  0.1810
  288loPI   C4A 4602  17.690  18.666   8.303 -0.1985  0.5178 -0.3348
  288loPI   C5A 4603  17.746  18.853   7.899  0.0415 -0.0033  0.1068
  288loPI   C6A 4604  17.937  19.033   7.536  0.0662 -0.2958 -0.1068
  288loPI   C1B 4605  18.687  18.655   9.133  0.0648 -0.0400 -0.0551
  288loPI   C2B 4606  18.582  18.716   8.706 -0.1027  0.3345 -0.3263
  288loPI   C3B 4607  18.719  18.485   8.381 -0.0186  0.0003  0.3414
  288loPI   C4B 4608  18.541  18.401   7.993 -0.0479  0.1147  0.2305
  289loPI    C1 4609   1.231  19.070   9.855 -0.1220  0.0335  0.0696
  289loPI    C2 4610   1.431  18.724   9.862 -0.0013  0.0964 -0.1516
  289loPI    C3 4611   1.570  19.040  10.065 -0.1147  0.0155  0.0554
  289loPI   PO4 4612   1.213  19.189   9.642  0.0771  0.1311 -0.0012
  289loPI   GL1 4613   0.983  19.137   9.213 -0.0316  0.0051 -0.0325
  289loPI   GL2 4614   1.341  19.273   9.077  0.0587  0.0120  0.0518
  289loPI   C1A 4615   1.051  18.970   8.805 -0.4529 -0.1927 -0.0151
  289loPI   C2A 4616   1.214  18.842   8.458  0.1772 -0.3517 -0.1203
  289loPI   C3A 4617   1.181  18.956   8.040  0.2251 -0.1656  0.0076
  289loPI   C4A 4618   1.195  19.331   7.716 -0.1022  0.1028  0.0354
  289loPI   C5A 4619   1.459  19.254   7.438 -0.2045  0.1165  0.1189
  289loPI   C6A 4620   1.767  19.360   7.229  0.2389 -0.0501 -0.2034
  289loPI   C1B 4621   1.205  19.436   8.760 -0.2618 -0.1818 -0.1112
  289loPI   C2B 4622   1.052  19.378   8.360 -0.2317 -0.0323 -0.0823
  289loPI   C3B 4623   0.895  19.654   7.952 -0.1298  0.2469 -0.2620
  289loPI   C4B 4624   0.896  19.796   7.596  0.1626 -0.0836 -0.2015
  290loPI    C1 4625  17.879   7.889  10.101 -0.0194 -0.0164  0.0674
  290loPI    C2 4626  17.739   8.262  10.070  0.1171  0.0377  0.0920
  290loPI    C3 4627  17.580   8.010  10.336 -0.0678  0.0346 -0.0197
  290loPI   PO4 4628  17.817   7.789   9.766 -0.0965 -0.1290  0.0202
  290loPI   GL1 4629  17.931   7.859   9.355 -0.0407  0.1740 -0.1751
  290loPI   GL2 4630  18.240   7.760   9.329 -0.1195  0.2927 -0.0568
  290loPI   C1A 4631  17.757   7.848   8.981 -0.1039  0.0668  0.1427
  290loPI   C2A 4632  17.797   7.807   8.586 -0.0457 -0.2314 -0.1001
  290loPI   C3A 4633  17.861   7.746   8.064 -0.0777 -0.0102  0.0903
  290loPI   C4A 4634  18.096   7.480   7.866  0.0894 -0.2069 -0.0660
  290loPI   C5A 4635  18.393   7.269   7.982  0.2531  0.0286  0.2243
  290loPI   C6A 4636  18.814   7.393   8.079 -0.0059  0.0618 -0.0553
  290loPI   C1B 4637  18.207   7.672   8.835 -0.1336 -0.1822 -0.1613
  290loPI   C2B 4638  18.323   7.845   8.389 -0.0600 -0.0848 -0.1749
  290loPI   C3B 4639  18.511   7.789   8.096 -0.0977 -0.0773  0.0654
  290loPI   C4B 4640  18.611   7.691   7.700 -0.2210  0.2970  0.0829
  291loPI    C1 4641   2.711   7.606   9.276  0.1646  0.0246  0.0229
  291loPI    C2 4642   2.665   7.997   9.348 -0.0092  0.0422 -0.1768
  291loPI    C3 4643   2.922   7.783   9.567  0.2636  0.3174 -0.2212
  291loPI   PO4 4644   2.378   7.625   9.182  0.0758  0.1100  0.0204
  291loPI   GL1 4645   2.318   7.840   8.853 -0.0907  0.2516  0.0752
  291loPI   GL2 4646   2.183   8.113   8.690 -0.1194 -0.1117 -0.0687
  291loPI   C1A 4647   2.205   7.622   8.499  0.3194  0.1738  0.3328
  291loPI   C2A 4648   1.950   7.556   8.118  0.0032  0.1913 -0.1861
  291loPI   C3A 4649   1.966   7.622   7.657  0.2761 -0.1005  0.0026
  291loPI   C4A 4650   1.946   7.479   7.216 -0.3627  0.2390 -0.1487
  291loPI   C5A 4651   1.715   7.245   7.064  0.0153 -0.2058 -0.2801
  291loPI   C6A 4652   1.403   6.983   7.216 -0.1252  0.0696  0.2606
  291loPI   C1B 4653   2.057   8.199   8.305  0.1447 -0.0368  0.1777
  291loPI   C2B 4654   2.007   8.084   7.908  0.4478  0.0064 -0.0148
  291loPI   C3B 4655   2.022   8.414   7.488 -0.0302  0.0683 -0.0885
  291loPI   C4B 4656   2.072   8.806   7.369 -0.1505 -0.1352  0.1170
  292loPI    C1 4657   1.700  11.566   9.334  0.2558 -0.1240 -0.1886
  292loPI    C2 4658   1.563  11.935   9.405 -0.1581 -0.2731 -0.1861
  292loPI    C3 4659   1.474  11.751   9.061  0.1104 -0.3440 -0.2198
  292loPI   PO4 4660   1.940  11.574   9.351  0.1695 -0.1809  0.0868
  292loPI   GL1 4661   2.131  11.634   8.925 -0.1997 -0.0407  0.0035
  292loPI   GL2 4662   2.152  11.331   8.827  0.1095 -0.0936 -0.2774
  292loPI   C1A 4663   1.749  11.710   8.652 -0.3272  0.0539  0.1584
  292loPI   C2A 4664   1.701  11.890   8.208 -0.0759  0.2031 -0.0212
  292loPI   C3A 4665   1.548  12.184   7.795  0.0252  0.1657 -0.1006
  292loPI   C4A 4666   1.294  12.512   7.499 -0.0317 -0.0616 -0.3427
  292loPI   C5A 4667   1.201  12.863   7.257  0.0068 -0.0221 -0.1186
  292loPI   C6A 4668   1.199  13.325   7.119  0.0988  0.1861 -0.1199
  292loPI   C1B 4669   2.190  11.500   8.390 -0.0604 -0.1502  0.0955
  292loPI   C2B 4670   2.271  11.416   7.996  0.0860 -0.1688 -0.3916
  292loPI   C3B 4671   2.296  11.343   7.586  0.0076 -0.0279 -0.2966
  292loPI   C4B 4672   2.505  10.992   7.410 -0.4242 -0.0366  0.3877
  293loPI    C1 4673  16.786  18.690  10.553 -0.0350 -0.0417  0.1872
  293loPI    C2 4674  17.169  18.660  10.663 -0.0173  0.0804  0.1600
  293loPI    C3 4675  16.907  18.850  10.899 -0.0591  0.0072  0.1730
  293loPI   PO4 4676  16.717  18.354  10.439  0.1005  0.2964 -0.0784
  293loPI   GL1 4677  16.427  18.253  10.080 -0.2391  0.2023  0.1643
  293loPI   GL2 4678  16.410  18.005   9.890  0.0459  0.2295 -0.3101
  293loPI   C1A 4679  16.425  18.436   9.640  0.2087 -0.1558 -0.4830
  293loPI   C2A 4680  16.334  18.396   9.243  0.1161  0.1187 -0.2309
  293loPI   C3A 4681  16.080  18.408   8.791  0.0478 -0.0739  0.3407
  293loPI   C4A 4682  15.858  18.520   8.339  0.5925 -0.4329  0.2638
  293loPI   C5A 4683  15.769  18.556   7.980 -0.1493 -0.1489  0.0729
  293loPI   C6A 4684  15.964  18.598   7.648  0.1371  0.0154 -0.1996
  293loPI   C1B 4685  16.397  17.953   9.440 -0.0303  0.2023 -0.1448
  293loPI   C2B 4686  16.177  17.912   9.108 -0.1394  0.0604  0.2709
  293loPI   C3B 4687  16.189  17.971   8.586 -0.0046  0.3573 -0.1541
  293loPI   C4B 4688  15.998  18.061   8.079 -0.1784 -0.0894 -0.0074
  294loPI    C1 4689   4.349   1.539   9.629 -0.2429 -0.1514  0.1940
  294loPI    C2 4690   4.387   1.932   9.691  0.0862 -0.1197 -0.1693
  294loPI    C3 4691   4.344   1.684  10.002  0.2522  0.1651  0.0873
  294loPI   PO4 4692   4.558   1.444   9.482 -0.0089  0.0779  0.0626
  294loPI   GL1 4693   4.657   1.513   9.158  0.3538  0.1123 -0.0857
  294loPI   GL2 4694   4.534   1.256   8.890  0.1557 -0.1130 -0.0180
  294loPI   C1A 4695   4.530   1.725   8.770  0.0641  0.2347 -0.3009
  294loPI   C2A 4696   4.414   1.795   8.354  0.0419 -0.1598  0.0411
  294loPI   C3A 4697   4.338   1.728   7.923  0.2064 -0.2710 -0.1789
  294loPI   C4A 4698   4.277   1.777   7.573  0.0132 -0.2232  0.1330
  294loPI   C5A 4699   4.007   1.904   7.264  0.0764 -0.0394 -0.1408
  294loPI   C6A 4700   3.686   2.030   7.115 -0.1256 -0.1058 -0.0035
  294loPI   C1B 4701   4.808   1.149   8.643 -0.2027 -0.2632  0.0246
  294loPI   C2B 4702   4.677   0.857   8.246  0.1537 -0.0339  0.0488
  294loPI   C3B 4703   4.806   0.630   7.958  0.3339 -0.0855 -0.0370
  294loPI   C4B 4704   4.747   0.494   7.522 -0.0209  0.3091  0.3883
  295loPI    C1 4705   0.541   2.916   9.698 -0.1115 -0.1821 -0.0682
  295loPI    C2 4706   0.241   3.085   9.902  0.0274 -0.0152  0.0008
  295loPI    C3 4707   0.346   3.230   9.544  0.0888 -0.0122  0.0199
  295loPI   PO4 4708   0.618   2.648   9.613  0.3036  0.1082  0.0798
  295loPI   GL1 4709   0.800   2.533   9.149  0.0621 -0.3007  0.2738
  295loPI   GL2 4710   1.128   2.732   9.213  0.3084 -0.0727  0.2531
  295loPI   C1A 4711   0.662   2.387   8.687  0.1208 -0.3002 -0.2158
  295loPI   C2A 4712   0.449   2.399   8.254 -0.0516 -0.0842 -0.3220
  295loPI   C3A 4713   0.485   2.541   7.853  0.1554  0.0379 -0.0238
  295loPI   C4A 4714   0.588   2.801   7.548  0.3631 -0.2011 -0.1806
  295loPI   C5A 4715   0.862   3.148   7.592  0.1811  0.2792  0.0581
  295loPI   C6A 4716   1.288   3.345   7.574  0.4487 -0.3358 -0.0101
  295loPI   C1B 4717   1.074   2.712   8.751 -0.1103  0.2730 -0.1019
  295loPI   C2B 4718   1.048   2.692   8.362 -0.3744  0.0678 -0.1095
  295loPI   C3B 4719   0.846   2.851   8.051  0.2133 -0.2641 -0.1813
  295loPI   C4B 4720   0.693   3.281   8.063 -0.0536 -0.0501 -0.0645
  296loPI    C1 4721  11.080   2.387  10.060  0.1228  0.0071 -0.1144
  296loPI    C2 4722  10.922   2.023  10.005  0.0634  0.0405 -0.1656
  296loPI    C3 4723  11.313   2.062  10.077  0.0201 -0.0558  0.1376
  296loPI   PO4 4724  10.965   2.549   9.819 -0.0676  0.0531  0.0530
  296loPI   GL1 4725  11.064   2.886   9.448  0.1011 -0.2514  0.2021
  296loPI   GL2 4726  11.426   2.890   9.443  0.0508 -0.1205 -0.2200
  296loPI   C1A 4727  10.913   2.961   9.058  0.0541  0.0135  0.1152
  296loPI   C2A 4728  10.969   3.180   8.553  0.1009 -0.2011  0.3379
  296loPI   C3A 4729  11.212   3.256   8.099 -0.1414  0.1471  0.4098
  296loPI   C4A 4730  11.407   3.169   7.721  0.1997  0.1952  0.1975
  296loPI   C5A 4731  11.246   2.779   7.737  0.0162 -0.3307  0.2088
  296loPI   C6A 4732  11.248   2.399   7.614  0.0468  0.2547 -0.0814
  296loPI   C1B 4733  11.239   2.575   9.168  0.2765  0.2376  0.1191
  296loPI   C2B 4734  11.317   2.135   9.054 -0.3122  0.0978  0.0533
  296loPI   C3B 4735  11.293   1.926   8.793  0.0207 -0.3646  0.1952
  296loPI   C4B 4736  11.248   1.562   8.507  0.4174  0.1260  0.1882
  297loPI    C1 4737  12.098   5.613   9.372  0.1275  0.0104 -0.1778
  297loPI    C2 4738  12.047   5.681   9.763  0.1214 -0.0607 -0.1661
  297loPI    C3 4739  11.798   5.846   9.497  0.0074 -0.1691 -0.1274
  297loPI   PO4 4740  12.309   5.637   9.331  0.0129 -0.1226  0.0715
  297loPI   GL1 4741  12.442   5.845   8.975  0.0775  0.0975  0.0542
  297loPI   GL2 4742  12.404   6.190   8.807  0.0166  0.2091 -0.1426
  297loPI   C1A 4743  12.399   5.782   8.503 -0.1171 -0.0876 -0.2401
  297loPI   C2A 4744  12.249   5.661   8.182  0.1501  0.3332 -0.2334
  297loPI   C3A 4745  12.113   5.761   7.815 -0.0744  0.2712  0.1474
  297loPI   C4A 4746  11.951   6.077   7.479 -0.0305  0.2635  0.0091
  297loPI   C5A 4747  11.854   6.464   7.245 -0.0289  0.2627 -0.0234
  297loPI   C6A 4748  11.922   6.846   7.177  0.0144  0.0854 -0.3762
  297loPI   C1B 4749  12.354   6.250   8.313 -0.2155 -0.0369  0.3285
  297loPI   C2B 4750  12.382   6.326   7.777 -0.2787  0.0591  0.0219
  297loPI   C3B 4751  12.389   6.296   7.298 -0.1368 -0.1026  0.1196
  297loPI   C4B 4752  12.290   6.655   6.903  0.0691 -0.1765  0.2052
  298loPI    C1 4753   3.262  11.699   9.459  0.1061 -0.0244 -0.0180
  298loPI    C2 4754   3.368  11.375   9.250  0.0166  0.0292 -0.1481
  298loPI    C3 4755   3.491  11.419   9.628  0.1268 -0.0992 -0.1684
  298loPI   PO4 4756   3.104  11.826   9.299  0.0130 -0.1278  0.0484
  298loPI   GL1 4757   3.105  11.641   8.881 -0.1035  0.0888  0.1314
  298loPI   GL2 4758   2.918  12.022   8.872  0.2976  0.0342  0.1249
  298loPI   C1A 4759   3.103  11.708   8.539 -0.1434  0.0200 -0.0344
  298loPI   C2A 4760   3.108  11.469   8.100 -0.0425 -0.3647 -0.1597
  298loPI   C3A 4761   3.257  11.227   7.760  0.1622 -0.0166  0.1832
  298loPI   C4A 4762   3.047  11.003   7.394  0.0729 -0.0662  0.2421
  298loPI   C5A 4763   3.151  10.640   7.108 -0.0997  0.1382  0.2367
  298loPI   C6A 4764   3.166  10.273   6.832  0.0393 -0.0924  0.0062
  298loPI   C1B 4765   2.760  12.094   8.523  0.1027  0.0902 -0.1435
  298loPI   C2B 4766   2.635  12.236   8.172 -0.0706  0.2326 -0.3125
  298loPI   C3B 4767   2.505  12.248   7.670 -0.3020  0.0532  0.0728
  298loPI   C4B 4768   2.464  12.290   7.275 -0.0420 -0.2708  0.0048
  299loPI    C1 4769  12.556   4.603   9.263  0.1400 -0.1831  0.0715
  299loPI    C2 4770  12.340   4.805   9.533  0.0275 -0.0935 -0.0840
  299loPI    C3 4771  12.682   4.628   9.642  0.1017  0.1378  0.0654
  299loPI   PO4 4772  12.516   4.648   9.065  0.0370 -0.0881  0.2061
  299loPI   GL1 4773  12.595   4.926   8.776 -0.2337  0.1194  0.1379
  299loPI   GL2 4774  12.972   5.062   8.778 -0.0922 -0.0603  0.0479
  299loPI   C1A 4775  12.695   4.845   8.419 -0.2491  0.0083 -0.0415
  299loPI   C2A 4776  12.885   4.806   8.105  0.0868 -0.1590  0.3065
  299loPI   C3A 4777  13.052   4.866   7.722  0.0172  0.0876  0.3085
  299loPI   C4A 4778  13.296   4.705   7.486  0.1604 -0.1411 -0.5580
  299loPI   C5A 4779  13.725   4.708   7.215  0.3156  0.2631 -0.4459
  299loPI   C6A 4780  14.173   4.566   7.169 -0.0712 -0.1420 -0.2440
  299loPI   C1B 4781  13.031   4.612   8.714  0.0484 -0.0080 -0.3435
  299loPI   C2B 4782  12.744   4.324   8.479 -0.1154  0.0989 -0.0590
  299loPI   C3B 4783  12.555   4.380   8.062 -0.1308  0.0350  0.1080
  299loPI   C4B 4784  12.268   4.276   7.638  0.1376  0.1070 -0.3420
  300loPI    C1 4785  10.295  13.899  10.401  0.1038 -0.0975  0.0806
  300loPI    C2 4786  10.477  14.175  10.626  0.0587  0.1653 -0.1992
  300loPI    C3 4787  10.083  14.114  10.663  0.1026 -0.0061  0.0050
  300loPI   PO4 4788  10.370  13.931  10.135  0.0420 -0.0809 -0.3638
  300loPI   GL1 4789  10.392  13.780   9.743 -0.0659  0.0113  0.0281
  300loPI   GL2 4790  10.158  13.541   9.736  0.1677  0.3316  0.0225
  300loPI   C1A 4791  10.497  13.763   9.318 -0.1569  0.2391  0.3009
  300loPI   C2A 4792  10.572  13.684   8.964  0.1383 -0.0970  0.2310
  300loPI   C3A 4793  10.563  13.717   8.576  0.1635  0.0156 -0.2703
  300loPI   C4A 4794  10.393  13.792   8.153 -0.1837  0.1263 -0.2321
  300loPI   C5A 4795  10.808  13.783   7.853 -0.0761  0.1723 -0.3023
  300loPI   C6A 4796  10.998  14.043   7.704 -0.0413  0.0687 -0.1881
  300loPI   C1B 4797  10.092  13.426   9.391  0.0007  0.0665 -0.2297
  300loPI   C2B 4798  10.185  13.330   8.929  0.0639  0.2449 -0.0338
  300loPI   C3B 4799  10.381  13.228   8.552  0.2202  0.2591 -0.0743
  300loPI   C4B 4800  10.532  13.318   8.179  0.0294  0.1066  0.3815
  301loPI    C1 4801  14.885   2.192  10.335 -0.0869 -0.0497 -0.1204
  301loPI    C2 4802  14.732   1.956  10.619  0.1640 -0.0989 -0.0239
  301loPI    C3 4803  14.730   2.353  10.667 -0.2644 -0.0765 -0.1894
  301loPI   PO4 4804  14.845   2.022  10.093 -0.0908  0.0241  0.0863
  301loPI   GL1 4805  14.898   1.670   9.847 -0.1620  0.0573 -0.0714
  301loPI   GL2 4806  14.673   1.496   9.827 -0.0578 -0.1276 -0.0330
  301loPI   C1A 4807  15.237   1.502   9.603  0.0594 -0.0504 -0.0119
  301loPI   C2A 4808  15.341   1.420   9.145  0.3389  0.3278 -0.0544
  301loPI   C3A 4809  15.740   1.362   8.956 -0.1497 -0.0019  0.0672
  301loPI   C4A 4810  15.803   1.306   8.525 -0.0120 -0.1862 -0.0290
  301loPI   C5A 4811  15.805   1.373   8.160  0.1984 -0.2248  0.1320
  301loPI   C6A 4812  15.759   1.663   7.790  0.1447  0.1648 -0.2018
  301loPI   C1B 4813  14.643   1.509   9.356 -0.0914  0.0668 -0.0989
  301loPI   C2B 4814  14.511   1.653   9.093 -0.3616  0.2566  0.1690
  301loPI   C3B 4815  14.379   1.924   8.746  0.0539 -0.1243 -0.2260
  301loPI   C4B 4816  14.405   2.111   8.381  0.1989  0.1214 -0.0947
  302loPI    C1 4817  16.980  16.230  10.188 -0.0644  0.0317 -0.1285
  302loPI    C2 4818  16.735  16.095  10.474 -0.1352  0.1177 -0.1479
  302loPI    C3 4819  16.904  16.456  10.509  0.0818  0.0116 -0.0791
  302loPI   PO4 4820  16.715  16.084   9.915  0.1369 -0.1880 -0.0923
  302loPI   GL1 4821  16.351  16.373   9.669 -0.1366  0.0178 -0.3268
  302loPI   GL2 4822  16.543  16.695   9.628  0.1681 -0.1251  0.0631
  302loPI   C1A 4823  16.247  16.288   9.311  0.0210 -0.0617  0.0195
  302loPI   C2A 4824  16.139  16.424   8.911 -0.1809  0.2678  0.1156
  302loPI   C3A 4825  15.894  16.346   8.565 -0.0325  0.1317 -0.0073
  302loPI   C4A 4826  15.665  16.178   8.234  0.0941 -0.0711  0.0042
  302loPI   C5A 4827  15.449  15.902   8.052  0.0388 -0.0565 -0.0797
  302loPI   C6A 4828  15.171  15.616   8.100 -0.0028  0.2122  0.1590
  302loPI   C1B 4829  16.494  17.057   9.249 -0.4021 -0.2837  0.3062
  302loPI   C2B 4830  16.469  17.264   8.902 -0.1313  0.0654  0.1709
  302loPI   C3B 4831  16.256  17.402   8.611  0.0025  0.1112  0.1623
  302loPI   C4B 4832  16.177  17.207   8.251 -0.0617  0.1511  0.1535
  303loPI    C1 4833   0.421   9.281   9.766 -0.3429  0.3214 -0.0935
  303loPI    C2 4834   0.747   9.493   9.862 -0.1725 -0.0011  0.0560
  303loPI    C3 4835   0.577   9.254  10.134 -0.0522 -0.4533 -0.2554
  303loPI   PO4 4836   0.506   9.166   9.613  0.0398  0.2435  0.2625
  303loPI   GL1 4837   0.610   9.247   9.212 -0.1513  0.1256 -0.0709
  303loPI   GL2 4838   0.225   9.351   9.227  0.0362  0.2984 -0.3621
  303loPI   C1A 4839   0.733   9.173   8.854  0.3714 -0.0127 -0.3465
  303loPI   C2A 4840   0.867   8.975   8.503 -0.0968 -0.2261 -0.1189
  303loPI   C3A 4841   0.981   8.836   8.116 -0.2703  0.0161  0.0506
  303loPI   C4A 4842   1.319   8.928   7.891  0.0116  0.0093 -0.1671
  303loPI   C5A 4843   1.444   9.011   7.432 -0.1284 -0.1013  0.3720
  303loPI   C6A 4844   1.664   8.826   7.058  0.1806  0.2419  0.2335
  303loPI   C1B 4845   0.252   9.269   8.758  0.1853  0.1521  0.2299
  303loPI   C2B 4846   0.318   9.123   8.318 -0.0003  0.1161  0.0561
  303loPI   C3B 4847   0.187   9.222   7.908 -0.3007 -0.3521 -0.2978
  303loPI   C4B 4848   0.209   9.632   7.884  0.4317  0.1022  0.0784
  304loPI    C1 4849   8.264   8.418  10.220 -0.1011 -0.0148  0.1098
  304loPI    C2 4850   8.609   8.378  10.022  0.0489  0.1192  0.3391
  304loPI    C3 4851   8.507   8.110  10.301 -0.1811 -0.0921  0.0578
  304loPI   PO4 4852   8.233   8.726   9.902 -0.1004 -0.0867  0.0091
  304loPI   GL1 4853   8.445   8.897   9.464  0.1410 -0.0781  0.1995
  304loPI   GL2 4854   8.148   9.036   9.313 -0.0062 -0.0312 -0.0272
  304loPI   C1A 4855   8.655   8.708   9.167  0.1240 -0.0247 -0.0090
  304loPI   C2A 4856   8.701   8.805   8.758  0.3467 -0.0326  0.0671
  304loPI   C3A 4857   8.751   9.012   8.383  0.0194  0.1098 -0.2231
  304loPI   C4A 4858   8.811   9.181   7.993  0.1391  0.1705 -0.0563
  304loPI   C5A 4859   8.696   9.567   7.793 -0.0270  0.0414 -0.0163
  304loPI   C6A 4860   8.654  10.006   7.704  0.2927  0.1823 -0.2551
  304loPI   C1B 4861   8.395   9.151   9.010 -0.2456  0.1216  0.0595
  304loPI   C2B 4862   8.371   9.225   8.614  0.0547  0.0893 -0.0825
  304loPI   C3B 4863   8.428   9.446   8.264  0.0276  0.0046 -0.1341
  304loPI   C4B 4864   8.258   9.768   7.960  0.0539 -0.0187 -0.2496
  305loPI    C1 4865  14.645  17.159  10.815  0.1049  0.1409 -0.0435
  305loPI    C2 4866  14.356  17.266  11.070  0.0743  0.2333 -0.1167
  305loPI    C3 4867  14.714  17.157  11.209 -0.1782 -0.4810  0.0167
  305loPI   PO4 4868  14.538  16.973  10.662 -0.0033  0.5584 -0.0964
  305loPI   GL1 4869  14.293  16.987  10.277  0.0657 -0.2656 -0.0890
  305loPI   GL2 4870  14.193  16.765  10.383 -0.2155 -0.0430  0.2216
  305loPI   C1A 4871  14.505  16.869   9.999 -0.1042  0.0383 -0.0338
  305loPI   C2A 4872  14.619  16.969   9.631 -0.1784  0.3228 -0.1176
  305loPI   C3A 4873  14.691  17.062   9.138  0.1804  0.2270  0.5321
  305loPI   C4A 4874  14.890  17.201   8.771  0.1326  0.1659 -0.0207
  305loPI   C5A 4875  14.829  17.295   8.384 -0.2101  0.2002  0.0655
  305loPI   C6A 4876  14.888  16.835   8.095  0.0490 -0.1719 -0.2883
  305loPI   C1B 4877  14.295  16.336  10.160 -0.0815 -0.3774 -0.0796
  305loPI   C2B 4878  14.401  16.287   9.706  0.1882  0.3708 -0.1152
  305loPI   C3B 4879  14.627  16.480   9.502  0.1506  0.5386  0.3523
  305loPI   C4B 4880  14.766  16.596   9.001 -0.2394 -0.2991 -0.2282
  306loPI    C1 4881  16.192   4.710   9.886 -0.1371  0.0030 -0.1206
  306loPI    C2 4882  16.044   4.691  10.257  0.1039 -0.0330 -0.0244
  306loPI    C3 4883  16.018   4.374  10.014 -0.1337  0.0201 -0.0711
  306loPI   PO4 4884  16.086   4.972   9.870  0.1410  0.1236  0.1508
  306loPI   GL1 4885  16.311   5.293   9.615  0.2995 -0.1356 -0.0444
  306loPI   GL2 4886  16.349   5.604   9.620  0.1708  0.0543  0.1644
  306loPI   C1A 4887  16.164   5.142   9.262 -0.0203  0.1210 -0.0229
  306loPI   C2A 4888  15.831   5.020   8.964 -0.0533  0.2574 -0.4046
  306loPI   C3A 4889  15.757   5.165   8.671  0.1520 -0.2286  0.2633
  306loPI   C4A 4890  15.672   5.280   8.337  0.2119 -0.1026  0.3804
  306loPI   C5A 4891  15.697   5.182   7.902 -0.0763  0.0775  0.3801
  306loPI   C6A 4892  15.681   5.163   7.467 -0.1367 -0.2259  0.3283
  306loPI   C1B 4893  16.274   5.718   9.134  0.0314  0.2314  0.2091
  306loPI   C2B 4894  16.296   5.483   8.803 -0.4595 -0.1471 -0.0708
  306loPI   C3B 4895  16.325   5.509   8.361 -0.0277  0.1375  0.2505
  306loPI   C4B 4896  16.306   5.733   8.060  0.2215  0.2071  0.0550
  307loPI    C1 4897  17.651  13.170  10.268  0.1431 -0.1547 -0.2329
  307loPI    C2 4898  17.447  12.858  10.123 -0.2267 -0.0980  0.1426
  307loPI    C3 4899  17.547  12.868  10.510  0.4366 -0.0870 -0.0165
  307loPI   PO4 4900  17.834  13.182  10.116 -0.0162 -0.0228  0.0848
  307loPI   GL1 4901  17.911  12.991   9.765  0.2099 -0.1301  0.0449
  307loPI   GL2 4902  17.818  12.696   9.696 -0.2647 -0.0096 -0.0962
  307loPI   C1A 4903  18.108  13.084   9.385  0.2521  0.1204 -0.0912
  307loPI   C2A 4904  18.137  13.196   8.954 -0.0566  0.1441  0.2913
  307loPI   C3A 4905  17.903  13.095   8.535 -0.2559 -0.0873  0.0662
  307loPI   C4A 4906  17.725  13.044   8.158  0.0654 -0.1818  0.0742
  307loPI   C5A 4907  17.380  13.217   7.854 -0.0578 -0.2134 -0.0117
  307loPI   C6A 4908  17.044  13.504   7.797 -0.1313 -0.2734  0.0773
  307loPI   C1B 4909  17.808  12.662   9.310 -0.1413 -0.3513 -0.1304
  307loPI   C2B 4910  17.762  12.603   8.879 -0.2693 -0.0761  0.1211
  307loPI   C3B 4911  17.478  12.772   8.585  0.3281  0.1451 -0.1853
  307loPI   C4B 4912  17.256  12.874   8.303  0.2535  0.0001  0.2234
  308loPI    C1 4913   2.708  16.714   9.404  0.0973 -0.3066  0.0631
  308loPI    C2 4914   2.377  16.929   9.469  0.0988 -0.3051  0.0665
  308loPI    C3 4915   2.381  16.647   9.184  0.1791 -0.1188 -0.1197
  308loPI   PO4 4916   2.878  16.990   9.317  0.0554  0.1417  0.4716
  308loPI   GL1 4917   3.036  17.183   8.937  0.0664  0.0709  0.0988
  308loPI   GL2 4918   3.283  16.907   8.782  0.0356  0.1674  0.4834
  308loPI   C1A 4919   2.927  17.036   8.512 -0.0788 -0.2200 -0.5092
  308loPI   C2A 4920   2.783  17.031   8.106 -0.0632  0.3564  0.0017
  308loPI   C3A 4921   2.674  17.091   7.712 -0.2243 -0.1921 -0.1197
  308loPI   C4A 4922   2.658  17.319   7.364  0.0846  0.1777  0.2123
  308loPI   C5A 4923   2.365  17.711   7.187 -0.2099  0.0503 -0.5356
  308loPI   C6A 4924   2.276  18.079   6.980  0.3327 -0.0635  0.1057
  308loPI   C1B 4925   3.480  16.894   8.362  0.0324 -0.3178  0.2483
  308loPI   C2B 4926   3.390  16.789   7.880  0.0104  0.0271 -0.1249
  308loPI   C3B 4927   3.216  16.562   7.473 -0.1598  0.1927 -0.1750
  308loPI   C4B 4928   3.143  16.245   7.176 -0.2214 -0.1737  0.1008
  309loPI    C1 4929   6.875  12.708  10.023 -0.0528 -0.1115  0.1177
  309loPI    C2 4930   7.209  12.557   9.864 -0.1137  0.0036 -0.1257
  309loPI    C3 4931   7.208  12.685  10.243  0.0875 -0.0960 -0.0897
  309loPI   PO4 4932   6.766  12.843   9.836  0.0017  0.0882 -0.1024
  309loPI   GL1 4933   7.195  12.966   9.553  0.4684 -0.3680  0.0754
  309loPI   GL2 4934   7.048  13.070   9.350 -0.2024 -0.3201 -0.1245
  309loPI   C1A 4935   7.476  12.759   9.481  0.1571  0.0271  0.0338
  309loPI   C2A 4936   7.490  12.349   9.336 -0.0073  0.1343  0.2513
  309loPI   C3A 4937   7.307  12.071   8.948 -0.1546 -0.0131  0.2716
  309loPI   C4A 4938   7.209  11.790   8.500  0.0091 -0.0711  0.1840
  309loPI   C5A 4939   7.232  11.853   8.013 -0.3716 -0.1845  0.1879
  309loPI   C6A 4940   7.509  11.619   7.682  0.0535  0.1735  0.1974
  309loPI   C1B 4941   7.110  13.447   9.084  0.0535  0.0808 -0.2048
  309loPI   C2B 4942   7.161  13.452   8.622 -0.3295 -0.0290 -0.1472
  309loPI   C3B 4943   7.160  13.628   8.099  0.1193  0.1815 -0.1675
  309loPI   C4B 4944   7.290  13.862   7.772 -0.1078 -0.2026  0.0372
  310loPI    C1 4945  16.562   2.947  10.679  0.0081  0.1611 -0.0337
  310loPI    C2 4946  16.451   3.317  10.782 -0.1196  0.0824  0.1158
  310loPI    C3 4947  16.570   3.059  11.063 -0.0968 -0.0122  0.0198
  310loPI   PO4 4948  16.750   3.030  10.391 -0.0433 -0.0716  0.1291
  310loPI   GL1 4949  16.971   3.213  10.049 -0.1626  0.1297  0.0918
  310loPI   GL2 4950  17.349   3.230  10.326  0.2298  0.0337 -0.0638
  310loPI   C1A 4951  16.915   2.968   9.679  0.0029  0.0812  0.1852
  310loPI   C2A 4952  16.723   2.950   9.224 -0.1176 -0.3756  0.0523
  310loPI   C3A 4953  16.843   2.702   8.880  0.3363 -0.2804 -0.1746
  310loPI   C4A 4954  16.703   2.750   8.447 -0.0463 -0.1492 -0.0430
  310loPI   C5A 4955  16.497   2.865   8.034  0.0502  0.1459 -0.3950
  310loPI   C6A 4956  16.098   3.042   7.925  0.1549  0.2232 -0.3493
  310loPI   C1B 4957  17.430   3.382   9.830 -0.2122 -0.2177 -0.1155
  310loPI   C2B 4958  17.589   3.404   9.383  0.0311 -0.5284  0.0097
  310loPI   C3B 4959  17.519   3.223   8.906 -0.1012  0.1260 -0.1329
  310loPI   C4B 4960  17.221   2.945   8.638  0.1177 -0.0706 -0.0003
  311loPI    C1 4961  10.074   3.208   9.996  0.1941 -0.0530  0.2023
  311loPI    C2 4962   9.731   3.023   9.905  0.1670  0.1326 -0.0849
  311loPI    C3 4963   9.726   3.359  10.123  0.1580  0.1829 -0.1621
  311loPI   PO4 4964  10.197   3.164   9.689 -0.1419 -0.1653  0.0422
  311loPI   GL1 4965  10.216   2.902   9.369 -0.0079 -0.0843 -0.0237
  311loPI   GL2 4966  10.542   2.835   9.360 -0.0605 -0.1815  0.0923
  311loPI   C1A 4967   9.974   2.772   8.965  0.2156 -0.2281 -0.0843
  311loPI   C2A 4968  10.163   2.762   8.485  0.3556 -0.1628 -0.1221
  311loPI   C3A 4969  10.409   2.637   8.214 -0.0193 -0.1704  0.3411
  311loPI   C4A 4970  10.570   2.448   7.928  0.1328  0.0624 -0.0274
  311loPI   C5A 4971  10.821   2.114   7.769  0.1011  0.1563 -0.1689
  311loPI   C6A 4972  11.189   1.887   7.752  0.2172 -0.1924 -0.0652
  311loPI   C1B 4973  10.459   2.692   8.959  0.1406  0.1280 -0.2510
  311loPI   C2B 4974  10.611   2.527   8.643 -0.0793  0.1347  0.0798
  311loPI   C3B 4975  10.428   2.121   8.343  0.0660  0.3044 -0.3423
  311loPI   C4B 4976  10.069   2.154   8.092  0.1197 -0.1960 -0.1168
  312loPI    C1 4977   0.923   8.599   9.725  0.1631 -0.0455  0.0003
  312loPI    C2 4978   0.970   8.898   9.987  0.1947 -0.0901  0.0458
  312loPI    C3 4979   1.127   8.538  10.064  0.2803 -0.0794 -0.0760
  312loPI   PO4 4980   0.800   8.745   9.545  0.1375  0.3052  0.1646
  312loPI   GL1 4981   0.833   8.605   9.132 -0.3759 -0.1827  0.1102
  312loPI   GL2 4982   1.053   8.617   9.186 -0.1045  0.0392  0.2186
  312loPI   C1A 4983   0.583   8.629   8.741  0.0220  0.1846 -0.3393
  312loPI   C2A 4984   0.530   8.658   8.311 -0.0640 -0.4645 -0.0286
  312loPI   C3A 4985   0.480   8.809   7.914 -0.1141  0.0623  0.0541
  312loPI   C4A 4986   0.498   8.746   7.533 -0.0068 -0.2827 -0.4494
  312loPI   C5A 4987   0.281   8.447   7.397 -0.1442  0.0028  0.3604
  312loPI   C6A 4988   0.114   8.180   7.190 -0.2272  0.0499 -0.0723
  312loPI   C1B 4989   1.145   8.702   8.772  0.4073 -0.1570 -0.0662
  312loPI   C2B 4990   1.371   8.670   8.398  0.1448 -0.3471  0.1655
  312loPI   C3B 4991   1.647   8.977   8.262  0.2542  0.2549 -0.2317
  312loPI   C4B 4992   1.850   8.884   7.775 -0.0288 -0.2543  0.0564
  313loPI    C1 4993  18.140  14.801   9.856 -0.2916 -0.2088  0.0744
  313loPI    C2 4994  18.037  14.652   9.499  0.0880 -0.1759 -0.0534
  313loPI    C3 4995  17.935  14.459   9.834 -0.3179 -0.1791 -0.1745
  313loPI   PO4 4996  18.421  14.854   9.769  0.1270  0.1544  0.3075
  313loPI   GL1 4997  18.752  15.161   9.501 -0.0450  0.0911 -0.0003
  313loPI   GL2 4998  18.727  15.558   9.481 -0.1244 -0.0655  0.1400
  313loPI   C1A 4999  18.703  15.136   9.062 -0.1503  0.2384 -0.3133
  313loPI   C2A 5000  18.751  15.004   8.748  0.0724 -0.2169 -0.0293
  313loPI   C3A 5001  18.554  14.864   8.397  0.0758  0.1873  0.0907
  313loPI   C4A 5002  18.622  14.829   7.945 -0.0472  0.0985 -0.1835
  313loPI   C5A 5003  18.381  14.891   7.666 -0.3031  0.2968 -0.1337
  313loPI   C6A 5004  18.725  14.838   7.325 -0.1640  0.1079 -0.0247
  313loPI   C1B 5005  18.374  15.580   9.218  0.0178  0.2769  0.2970
  313loPI   C2B 5006  18.328  15.735   8.831 -0.0856 -0.0904  0.1321
  313loPI   C3B 5007  18.197  15.782   8.303 -0.0664 -0.1605 -0.2555
  313loPI   C4B 5008  17.937  15.578   8.124 -0.1891  0.0583  0.1694
  314loPI    C1 5009   9.941  14.701  10.290  0.0448 -0.1377  0.2148
  314loPI    C2 5010  10.221  14.415  10.271  0.3380  0.1622 -0.1257
  314loPI    C3 5011  10.161  14.613  10.613  0.1226 -0.3067  0.1175
  314loPI   PO4 5012   9.893  14.724   9.956  0.1601 -0.0204 -0.1991
  314loPI   GL1 5013   9.767  14.367   9.582  0.0518  0.2085 -0.2499
  314loPI   GL2 5014  10.033  14.280   9.757 -0.2296  0.1877  0.2555
  314loPI   C1A 5015   9.501  14.350   9.214  0.0371 -0.2414 -0.3183
  314loPI   C2A 5016   9.585  14.251   8.834 -0.4680 -0.2693 -0.2902
  314loPI   C3A 5017   9.842  14.262   8.558  0.2660  0.1258  0.0693
  314loPI   C4A 5018   9.860  14.227   8.186 -0.0062  0.2237  0.4820
  314loPI   C5A 5019   9.723  14.071   7.707  0.0824  0.0433  0.0599
  314loPI   C6A 5020   9.361  14.227   7.498  0.0843  0.0419  0.0882
  314loPI   C1B 5021  10.048  13.953   9.456  0.1025 -0.0665 -0.0867
  314loPI   C2B 5022   9.945  13.751   9.043  0.0105  0.1650  0.1264
  314loPI   C3B 5023  10.060  13.814   8.621  0.0406 -0.1781 -0.1564
  314loPI   C4B 5024   9.914  13.495   8.424 -0.0170 -0.3020 -0.1889
  315loPI    C1 5025   1.096  11.735   9.717  0.0649 -0.0617  0.1314
  315loPI    C2 5026   0.717  11.618   9.770  0.0320  0.0122  0.0606
  315loPI    C3 5027   0.863  11.925   9.981  0.0305  0.0303  0.0356
  315loPI   PO4 5028   1.160  11.690   9.524 -0.0721 -0.0623 -0.0893
  315loPI   GL1 5029   0.964  11.591   9.152  0.0670  0.0926 -0.1854
  315loPI   GL2 5030   1.047  11.420   8.881  0.1792  0.0061  0.2229
  315loPI   C1A 5031   0.950  11.915   8.746 -0.0002 -0.1570  0.0889
  315loPI   C2A 5032   0.796  11.957   8.370 -0.0562 -0.0519  0.1098
  315loPI   C3A 5033   0.469  11.963   7.903  0.0959  0.0361 -0.3976
  315loPI   C4A 5034   0.433  11.818   7.490 -0.0474  0.1895  0.0927
  315loPI   C5A 5035   0.207  11.445   7.144  0.0961  0.0162  0.1360
  315loPI   C6A 5036  -0.067  11.443   6.750  0.1723 -0.0365 -0.4650
  315loPI   C1B 5037   1.298  11.572   8.564  0.0585 -0.1682  0.2312
  315loPI   C2B 5038   1.149  11.553   8.145 -0.0953  0.1191 -0.0927
  315loPI   C3B 5039   1.283  11.771   7.870  0.0262  0.2235 -0.1729
  315loPI   C4B 5040   1.541  11.864   7.430  0.1035  0.1276  0.1156
  316loPI    C1 5041   1.842   3.415   9.530  0.3139 -0.0982  0.0524
  316loPI    C2 5042   1.774   3.619   9.867 -0.0133  0.0048 -0.0719
  316loPI    C3 5043   1.809   3.221   9.878 -0.1284 -0.0024  0.0692
  316loPI   PO4 5044   1.777   3.527   9.346 -0.4169 -0.0714  0.4209
  316loPI   GL1 5045   2.008   3.511   9.043  0.2812 -0.0091 -0.2951
  316loPI   GL2 5046   2.332   3.358   8.950  0.0033 -0.0284  0.1376
  316loPI   C1A 5047   1.904   3.656   8.637 -0.0117  0.0884  0.3868
  316loPI   C2A 5048   1.835   3.670   8.260 -0.0797  0.0507 -0.2695
  316loPI   C3A 5049   1.673   3.759   7.870  0.1548 -0.2100 -0.3704
  316loPI   C4A 5050   1.422   3.875   7.685  0.1701  0.1141  0.1178
  316loPI   C5A 5051   1.236   3.872   7.262  0.1799  0.0750  0.0547
  316loPI   C6A 5052   0.743   3.875   7.181  0.4189  0.0366 -0.2764
  316loPI   C1B 5053   2.220   3.299   8.464  0.0406 -0.2093 -0.0804
  316loPI   C2B 5054   2.251   3.261   8.128  0.1931 -0.0729  0.0921
  316loPI   C3B 5055   2.046   3.464   7.818 -0.1269 -0.2222 -0.2066
  316loPI   C4B 5056   2.194   3.528   7.360  0.0117 -0.1218  0.2038
  317loPI    C1 5057  14.792   9.977  10.153  0.2627  0.3127  0.2693
  317loPI    C2 5058  14.776   9.658  10.393 -0.2191  0.1077 -0.0198
  317loPI    C3 5059  14.675  10.019  10.533  0.1426  0.1086  0.2558
  317loPI   PO4 5060  14.993   9.920   9.945  0.2587 -0.1140  0.2791
  317loPI   GL1 5061  15.126   9.955   9.503 -0.2316  0.0005  0.0724
  317loPI   GL2 5062  15.250   9.657   9.473  0.3418  0.0473  0.2760
  317loPI   C1A 5063  15.224  10.182   9.118 -0.0306  0.0680  0.2602
  317loPI   C2A 5064  15.454  10.214   8.706  0.1549  0.2051  0.2461
  317loPI   C3A 5065  15.849  10.022   8.574 -0.0722  0.0585  0.1017
  317loPI   C4A 5066  16.049   9.832   8.117  0.0290  0.1395  0.0992
  317loPI   C5A 5067  16.225   9.380   8.046  0.2086 -0.1351  0.2065
  317loPI   C6A 5068  16.266   9.129   7.677  0.0798 -0.0187 -0.1466
  317loPI   C1B 5069  15.406   9.708   9.020 -0.1839  0.0513 -0.2469
  317loPI   C2B 5070  15.499   9.685   8.639  0.3821 -0.1598 -0.0276
  317loPI   C3B 5071  15.483   9.331   8.341  0.3916  0.1477 -0.0849
  317loPI   C4B 5072  15.506   9.154   7.938 -0.2227  0.2547 -0.2005
  318loPI    C1 5073   5.808  12.336   9.889 -0.0022  0.0526  0.0529
  318loPI    C2 5074   5.758  12.732   9.863  0.2296  0.0886  0.1336
  318loPI    C3 5075   5.592  12.529  10.165  0.2752  0.1539  0.2030
  318loPI   PO4 5076   6.028  12.274   9.807 -0.1981 -0.0973  0.1836
  318loPI   GL1 5077   6.098  12.510   9.401 -0.0465 -0.1727 -0.0433
  318loPI   GL2 5078   6.152  12.713   9.191  0.0812  0.2619 -0.0265
  318loPI   C1A 5079   6.246  12.239   9.141 -0.1375 -0.0834 -0.0355
  318loPI   C2A 5080   6.521  12.334   8.894  0.0085 -0.2374  0.2519
  318loPI   C3A 5081   6.478  12.247   8.501 -0.0017  0.0520  0.3485
  318loPI   C4A 5082   6.417  12.067   8.089  0.1457  0.0070  0.1104
  318loPI   C5A 5083   6.640  11.944   7.714  0.1787 -0.1435  0.0071
  318loPI   C6A 5084   6.633  12.086   7.191 -0.0101 -0.0326 -0.0979
  318loPI   C1B 5085   6.169  12.725   8.694  0.1460  0.0217  0.1788
  318loPI   C2B 5086   6.310  12.761   8.395 -0.0543  0.1715 -0.1907
  318loPI   C3B 5087   6.327  12.898   7.976 -0.3172 -0.0093  0.3269
  318loPI   C4B 5088   6.455  12.988   7.522 -0.3957 -0.0302 -0.1344
  319loPI    C1 5089  11.966  15.899  10.221  0.0090  0.3551 -0.3480
  319loPI    C2 5090  12.332  15.944  10.374 -0.0902  0.2307 -0.0669
  319loPI    C3 5091  12.021  15.876  10.616 -0.2712  0.1529 -0.3171
  319loPI   PO4 5092  11.912  16.125  10.041  0.0085  0.0550  0.3297
  319loPI   GL1 5093  11.980  16.240   9.621 -0.3072  0.2016  0.0368
  319loPI   GL2 5094  11.789  16.032   9.423 -0.1834 -0.0350 -0.2959
  319loPI   C1A 5095  12.242  16.220   9.300 -0.1845  0.2529  0.3033
  319loPI   C2A 5096  12.433  16.288   8.899  0.2345  0.0232  0.1315
  319loPI   C3A 5097  12.425  16.539   8.454 -0.0190  0.1233 -0.0336
  319loPI   C4A 5098  12.610  16.377   8.062  0.0589  0.1317  0.0177
  319loPI   C5A 5099  12.484  16.322   7.722  0.0560  0.3956  0.0359
  319loPI   C6A 5100  12.239  16.428   7.394 -0.3215  0.0937  0.0667
  319loPI   C1B 5101  11.972  15.939   8.945 -0.1629  0.2068  0.1571
  319loPI   C2B 5102  12.048  15.934   8.506 -0.0120  0.4622 -0.2421
  319loPI   C3B 5103  12.086  16.186   8.071 -0.2610 -0.2718 -0.0334
  319loPI   C4B 5104  11.866  16.408   7.746  0.1620  0.0101  0.2977
  320loPI    C1 5105  13.546   6.136   9.712 -0.3131 -0.1100  0.1160
  320loPI    C2 5106  13.921   6.092   9.845 -0.1823  0.3033 -0.0972
  320loPI    C3 5107  13.623   5.886  10.014  0.0981  0.1870  0.2673
  320loPI   PO4 5108  13.482   6.222   9.485 -0.0880  0.0307 -0.2457
  320loPI   GL1 5109  13.522   6.489   9.163 -0.0198 -0.3112 -0.1782
  320loPI   GL2 5110  13.296   6.700   9.321 -0.1718 -0.1296  0.1122
  320loPI   C1A 5111  13.463   6.097   8.800  0.5166 -0.1412  0.0849
  320loPI   C2A 5112  13.286   5.855   8.467  0.1653 -0.0643  0.0523
  320loPI   C3A 5113  13.389   5.504   8.202 -0.2624  0.0151  0.2588
  320loPI   C4A 5114  13.327   5.332   7.757  0.0493  0.0179 -0.0895
  320loPI   C5A 5115  13.304   5.189   7.292 -0.2162 -0.0001 -0.0816
  320loPI   C6A 5116  13.068   4.808   7.090 -0.1302 -0.0116 -0.2002
  320loPI   C1B 5117  13.532   6.929   8.992 -0.1616  0.0722  0.3173
  320loPI   C2B 5118  13.795   6.846   8.626 -0.1365 -0.2938  0.0680
  320loPI   C3B 5119  13.914   7.086   8.208 -0.0088 -0.0472  0.2645
  320loPI   C4B 5120  14.002   7.056   7.750  0.0372 -0.0410  0.0380
  321loPI    C1 5121   8.274   2.529   9.992 -0.0922 -0.0452  0.0966
  321loPI    C2 5122   7.935   2.438  10.184 -0.0248 -0.1993  0.1446
  321loPI    C3 5123   8.192   2.699  10.344 -0.3274  0.2652 -0.1024
  321loPI   PO4 5124   8.158   2.514   9.721  0.1666 -0.1963 -0.2605
  321loPI   GL1 5125   8.353   2.380   9.327  0.1170 -0.0784  0.2087
  321loPI   GL2 5126   8.329   1.984   9.266  0.4111  0.0554 -0.0285
  321loPI   C1A 5127   8.632   2.187   8.908  0.0291  0.1133  0.1011
  321loPI   C2A 5128   8.659   2.272   8.539 -0.0778 -0.0599 -0.3783
  321loPI   C3A 5129   8.640   2.265   8.006  0.2463  0.0422  0.2753
  321loPI   C4A 5130   8.510   2.043   7.637  0.1823 -0.4173 -0.0228
  321loPI   C5A 5131   8.373   1.940   7.165  0.2549 -0.2724  0.1015
  321loPI   C6A 5132   8.420   1.957   6.782  0.2761  0.0618  0.1941
  321loPI   C1B 5133   8.215   1.930   8.885  0.2281  0.1096  0.1362
  321loPI   C2B 5134   8.192   1.826   8.370  0.1797 -0.1963 -0.2462
  321loPI   C3B 5135   8.522   1.763   8.095  0.1436  0.0598 -0.1983
  321loPI   C4B 5136   8.826   1.469   7.984 -0.0711 -0.2880 -0.3746
  322loPI    C1 5137   7.867   7.058   9.845 -0.0033 -0.1177 -0.3252
  322loPI    C2 5138   7.787   6.774  10.115 -0.3438  0.2665 -0.0074
  322loPI    C3 5139   8.074   7.043  10.186 -0.1061  0.0837 -0.2522
  322loPI   PO4 5140   7.926   6.955   9.470 -0.1698  0.0328  0.0084
  322loPI   GL1 5141   8.257   6.797   9.171  0.0095  0.1631 -0.0935
  322loPI   GL2 5142   8.331   7.129   9.177 -0.0265  0.1503  0.3632
  322loPI   C1A 5143   8.362   6.745   8.795 -0.3586 -0.1129 -0.1361
  322loPI   C2A 5144   8.411   6.661   8.361 -0.0173 -0.0641  0.1165
  322loPI   C3A 5145   8.413   6.639   7.922  0.1745 -0.0984 -0.1943
  322loPI   C4A 5146   8.647   6.708   7.507 -0.3965 -0.1591  0.1707
  322loPI   C5A 5147   9.032   6.765   7.240  0.0721 -0.3254 -0.0920
  322loPI   C6A 5148   9.360   6.884   6.927  0.1077 -0.0619  0.0464
  322loPI   C1B 5149   7.971   7.049   8.878 -0.0163 -0.1612  0.0446
  322loPI   C2B 5150   7.797   7.140   8.446 -0.0091  0.2985 -0.0053
  322loPI   C3B 5151   7.864   7.274   8.126  0.2908 -0.2248 -0.2742
  322loPI   C4B 5152   7.756   7.557   7.780 -0.1181  0.1176 -0.0864
  323loPI    C1 5153   2.854  10.448   9.622  0.2576 -0.0112  0.0411
  323loPI    C2 5154   2.712  10.500   9.251  0.0898 -0.1136  0.0897
  323loPI    C3 5155   2.637  10.773   9.534  0.0644 -0.1241  0.0931
  323loPI   PO4 5156   3.102  10.403   9.551 -0.1468 -0.0942 -0.1997
  323loPI   GL1 5157   3.448  10.562   9.335  0.2256  0.1579  0.0285
  323loPI   GL2 5158   3.410  10.334   9.164 -0.2471  0.0424  0.2641
  323loPI   C1A 5159   3.564  10.933   9.030  0.4042 -0.1689  0.1414
  323loPI   C2A 5160   3.533  10.882   8.507 -0.1590 -0.2656 -0.0298
  323loPI   C3A 5161   3.664  11.076   8.225 -0.1832  0.1175 -0.1017
  323loPI   C4A 5162   3.737  11.123   7.731  0.1310 -0.3668 -0.1401
  323loPI   C5A 5163   4.068  11.182   7.661  0.1393  0.1753  0.0307
  323loPI   C6A 5164   4.280  11.463   7.408 -0.0825  0.2403 -0.1854
  323loPI   C1B 5165   3.663  10.464   8.746  0.1593  0.0933  0.1925
  323loPI   C2B 5166   3.620  10.411   8.249  0.1158  0.0199  0.1614
  323loPI   C3B 5167   3.504  10.695   7.962  0.1748  0.1104  0.2048
  323loPI   C4B 5168   3.402  10.616   7.543 -0.0521  0.3662 -0.0998
  324loPI    C1 5169   0.977   4.121   9.819  0.0979  0.2082  0.1514
  324loPI    C2 5170   0.902   4.477   9.652  0.0377  0.0837 -0.0909
  324loPI    C3 5171   0.699   4.362   9.977 -0.0832  0.1875 -0.1285
  324loPI   PO4 5172   0.979   3.995   9.695  0.0527 -0.0776  0.3726
  324loPI   GL1 5173   0.817   3.664   9.584  0.2400  0.3228 -0.0354
  324loPI   GL2 5174   0.724   3.487   9.443 -0.4134 -0.0188 -0.0617
  324loPI   C1A 5175   0.838   3.628   8.990  0.2881  0.0497  0.1953
  324loPI   C2A 5176   0.892   3.553   8.568  0.0371  0.2868  0.0616
  324loPI   C3A 5177   0.779   3.783   8.199  0.2268  0.0048  0.2756
  324loPI   C4A 5178   0.349   3.670   7.991 -0.3049 -0.0978 -0.1327
  324loPI   C5A 5179  -0.045   3.731   7.692  0.3719  0.1323  0.0088
  324loPI   C6A 5180  -0.357   3.890   7.327 -0.1472  0.0229  0.1743
  324loPI   C1B 5181   0.661   3.141   9.204 -0.2911 -0.0714  0.0013
  324loPI   C2B 5182   0.587   2.934   8.968  0.0901 -0.0290  0.0041
  324loPI   C3B 5183   0.634   3.059   8.540 -0.2172  0.0277 -0.0845
  324loPI   C4B 5184   0.391   3.402   8.467 -0.0757  0.1297  0.1431
  325loPI    C1 5185  12.734   1.302  10.196 -0.1958  0.1478 -0.0119
  325loPI    C2 5186  12.360   1.349  10.060 -0.2449  0.0759  0.0969
  325loPI    C3 5187  12.423   1.209  10.429 -0.1088 -0.0003  0.0458
  325loPI   PO4 5188  12.867   1.213  10.085 -0.0295  0.1551 -0.1215
  325loPI   GL1 5189  12.992   1.260   9.661 -0.1323  0.0394 -0.1525
  325loPI   GL2 5190  12.678   1.331   9.599  0.0716  0.4071 -0.1553
  325loPI   C1A 5191  13.069   1.443   9.325 -0.1049  0.0412 -0.3923
  325loPI   C2A 5192  13.006   1.623   8.969 -0.2465  0.2604  0.3411
  325loPI   C3A 5193  12.850   1.623   8.564 -0.3160  0.0695  0.3034
  325loPI   C4A 5194  13.157   1.588   8.280 -0.1509 -0.1939  0.1601
  325loPI   C5A 5195  13.333   1.630   7.890 -0.2118  0.1523 -0.1302
  325loPI   C6A 5196  13.215   1.485   7.496  0.1795 -0.1552 -0.1528
  325loPI   C1B 5197  12.800   0.994   9.251  0.0560 -0.1168  0.2107
  325loPI   C2B 5198  12.975   0.617   9.030 -0.4923 -0.1690 -0.1206
  325loPI   C3B 5199  13.225   0.276   9.175 -0.1595  0.2836 -0.0665
  325loPI   C4B 5200  13.486   0.095   9.494  0.2820  0.1205 -0.1220
  326loPI    C1 5201   6.546  18.333  10.170 -0.0400  0.1399  0.3738
  326loPI    C2 5202   6.451  18.676   9.988  0.0198 -0.0622 -0.0501
  326loPI    C3 5203   6.251  18.562  10.315 -0.1802  0.2435 -0.0610
  326loPI   PO4 5204   6.569  18.170  10.011 -0.1407 -0.0571 -0.0696
  326loPI   GL1 5205   6.637  18.199   9.608 -0.0742  0.2571 -0.0904
  326loPI   GL2 5206   7.018  18.020   9.637  0.1288 -0.0089 -0.1110
  326loPI   C1A 5207   6.886  18.500   9.313  0.1356  0.1058  0.0730
  326loPI   C2A 5208   6.922  18.460   8.882  0.1933  0.3071  0.2249
  326loPI   C3A 5209   6.916  18.293   8.365 -0.0062 -0.0443  0.1359
  326loPI   C4A 5210   6.768  18.303   7.927 -0.3565 -0.0486 -0.1296
  326loPI   C5A 5211   6.501  18.153   7.760  0.0198 -0.0762  0.1416
  326loPI   C6A 5212   6.110  17.891   7.507  0.2560 -0.0835 -0.4222
  326loPI   C1B 5213   6.810  18.015   9.190  0.0031  0.1032  0.4010
  326loPI   C2B 5214   6.953  18.006   8.792 -0.1755 -0.2342  0.2017
  326loPI   C3B 5215   7.082  17.774   8.356 -0.4022 -0.3412  0.1078
  326loPI   C4B 5216   7.448  17.688   8.183 -0.1198  0.3893  0.0847
  327loPI    C1 5217   7.943   7.870   9.705  0.1341  0.0210  0.0419
  327loPI    C2 5218   7.914   8.071  10.049  0.0734  0.1248 -0.0232
  327loPI    C3 5219   8.252   7.878   9.958 -0.0078 -0.1410  0.2233
  327loPI   PO4 5220   7.836   8.043   9.529 -0.1288 -0.2309  0.1221
  327loPI   GL1 5221   8.227   8.045   9.220 -0.0451 -0.2910 -0.1475
  327loPI   GL2 5222   8.524   8.237   9.261 -0.3410  0.1295 -0.0491
  327loPI   C1A 5223   8.151   8.157   8.831  0.0856 -0.1075  0.2050
  327loPI   C2A 5224   8.035   8.148   8.392  0.1894  0.2572  0.1418
  327loPI   C3A 5225   8.196   8.351   8.066 -0.2170 -0.1002  0.1175
  327loPI   C4A 5226   8.429   8.750   7.844  0.1928  0.0567  0.0666
  327loPI   C5A 5227   8.861   8.775   7.696 -0.1012  0.1292  0.2688
  327loPI   C6A 5228   9.074   8.775   7.362 -0.2134  0.2408 -0.2271
  327loPI   C1B 5229   8.635   8.165   8.836 -0.0565  0.1579 -0.1914
  327loPI   C2B 5230   8.575   8.395   8.481  0.0143  0.1131  0.0851
  327loPI   C3B 5231   8.796   8.529   8.130  0.2557  0.1218 -0.0636
  327loPI   C4B 5232   9.104   8.311   7.902 -0.6414 -0.0786 -0.3722
  328loPI    C1 5233  18.421   4.848  10.743 -0.0288 -0.0548 -0.1354
  328loPI    C2 5234  18.624   5.159  10.890 -0.1083  0.0205 -0.1837
  328loPI    C3 5235  18.566   4.834  11.115 -0.1389  0.0933 -0.0858
  328loPI   PO4 5236  18.300   5.076  10.463  0.3807 -0.0474  0.0275
  328loPI   GL1 5237  18.234   4.966  10.213 -0.0355 -0.3302 -0.1185
  328loPI   GL2 5238  17.883   4.905  10.133 -0.0510 -0.0611 -0.1984
  328loPI   C1A 5239  18.386   5.057   9.756 -0.1547 -0.0901  0.1195
  328loPI   C2A 5240  18.486   5.111   9.372 -0.0760 -0.2818  0.0053
  328loPI   C3A 5241  18.463   5.016   8.874  0.1214 -0.3844  0.1794
  328loPI   C4A 5242  18.323   5.007   8.459  0.1420 -0.2108 -0.2582
  328loPI   C5A 5243  18.506   4.817   8.097  0.0001  0.3162 -0.0789
  328loPI   C6A 5244  18.776   4.485   7.868 -0.2569  0.0496  0.0886
  328loPI   C1B 5245  17.915   4.737   9.653  0.2970  0.0860 -0.1488
  328loPI   C2B 5246  18.040   4.735   9.215  0.0198  0.0338  0.2516
  328loPI   C3B 5247  17.997   4.691   8.818  0.0320  0.1221 -0.2143
  328loPI   C4B 5248  17.970   4.620   8.261  0.3149 -0.0268  0.0089
  329loPI    C1 5249   3.854   1.689   9.973  0.1087  0.0030  0.0764
  329loPI    C2 5250   4.026   2.016  10.128  0.3576 -0.0640 -0.0525
  329loPI    C3 5251   3.914   1.716  10.368  0.1843  0.0880  0.0595
  329loPI   PO4 5252   3.849   1.768   9.643 -0.1283  0.1289  0.0265
  329loPI   GL1 5253   4.064   1.848   9.294 -0.0668  0.0858  0.0489
  329loPI   GL2 5254   4.321   2.028   9.174 -0.1531 -0.1917  0.2518
  329loPI   C1A 5255   4.033   1.844   8.811 -0.1592  0.6008  0.0008
  329loPI   C2A 5256   3.899   1.868   8.491 -0.1595 -0.0173 -0.0763
  329loPI   C3A 5257   3.886   2.001   8.063  0.1090 -0.2647 -0.1281
  329loPI   C4A 5258   3.727   2.104   7.626  0.0839  0.0258  0.0108
  329loPI   C5A 5259   3.721   2.482   7.323 -0.2045 -0.1712 -0.1858
  329loPI   C6A 5260   4.016   2.814   7.578  0.2543  0.0681  0.3375
  329loPI   C1B 5261   4.272   2.275   8.803  0.1730  0.3649 -0.1175
  329loPI   C2B 5262   4.257   2.357   8.314  0.1504  0.4920 -0.2490
  329loPI   C3B 5263   4.151   2.341   7.862  0.1096 -0.1769 -0.2433
  329loPI   C4B 5264   4.162   2.348   7.477 -0.2598 -0.1920  0.1479
  330loPI    C1 5265   4.756   7.633   9.323  0.2314  0.0007  0.2050
  330loPI    C2 5266   4.416   7.530   9.506  0.1075 -0.1754 -0.1167
  330loPI    C3 5267   4.628   7.841   9.639 -0.2101 -0.0259  0.0506
  330loPI   PO4 5268   4.855   7.441   9.254 -0.0091  0.1023  0.2161
  330loPI   GL1 5269   4.920   7.228   8.896  0.1890 -0.1119 -0.0532
  330loPI   GL2 5270   4.888   6.909   8.837  0.0066 -0.1199  0.0914
  330loPI   C1A 5271   5.356   7.023   8.679 -0.0496 -0.1422  0.2822
  330loPI   C2A 5272   5.332   6.959   8.320  0.2876 -0.0937  0.1015
  330loPI   C3A 5273   5.583   6.921   8.041 -0.3885 -0.2874 -0.3120
  330loPI   C4A 5274   5.622   6.939   7.588  0.1554 -0.1543 -0.1256
  330loPI   C5A 5275   5.649   6.489   7.382  0.0522  0.1973  0.1587
  330loPI   C6A 5276   5.575   6.213   7.164 -0.0660 -0.0860 -0.0477
  330loPI   C1B 5277   4.893   7.080   8.433  0.1962  0.1457 -0.2323
  330loPI   C2B 5278   4.647   7.226   8.032 -0.1044  0.0634 -0.0114
  330loPI   C3B 5279   4.511   7.348   7.639  0.2757  0.2685  0.1036
  330loPI   C4B 5280   4.575   7.254   7.171 -0.1978  0.0645  0.1454
  331loPI    C1 5281   7.682  10.513   9.992 -0.0376  0.2722 -0.0714
  331loPI    C2 5282   7.913  10.200  10.085 -0.2908  0.0933 -0.0326
  331loPI    C3 5283   7.855  10.492  10.352 -0.3099  0.0155  0.0487
  331loPI   PO4 5284   7.722  10.614   9.763 -0.0223  0.3139  0.0949
  331loPI   GL1 5285   7.859  10.576   9.412 -0.3339  0.1372  0.2232
  331loPI   GL2 5286   7.713  10.356   9.272  0.1423 -0.0432  0.1330
  331loPI   C1A 5287   7.928  10.940   9.277 -0.0148 -0.1168 -0.0982
  331loPI   C2A 5288   7.770  11.336   9.140  0.1127 -0.4714  0.0925
  331loPI   C3A 5289   7.568  11.565   8.789  0.0204 -0.0202 -0.4174
  331loPI   C4A 5290   7.646  12.022   8.605  0.0105 -0.1910 -0.0678
  331loPI   C5A 5291   7.753  12.034   8.107 -0.0430  0.1544 -0.2694
  331loPI   C6A 5292   7.531  12.119   7.718  0.1875  0.4276 -0.1620
  331loPI   C1B 5293   7.638  10.480   8.790  0.2754 -0.1624 -0.1572
  331loPI   C2B 5294   7.712  10.524   8.412 -0.0642  0.0784 -0.0992
  331loPI   C3B 5295   7.836  10.620   7.978  0.1692 -0.2521 -0.1115
  331loPI   C4B 5296   7.659  10.589   7.567 -0.1189 -0.1006 -0.1453
  332loPI    C1 5297   3.038   1.459   9.645 -0.0695  0.3372 -0.2348
  332loPI    C2 5298   3.413   1.542   9.535  0.0095  0.2871 -0.0089
  332loPI    C3 5299   3.273   1.676   9.884 -0.1365  0.1838 -0.0269
  332loPI   PO4 5300   2.946   1.368   9.435  0.3483 -0.2366  0.1235
  332loPI   GL1 5301   3.190   1.267   9.145 -0.0471  0.0612 -0.0404
  332loPI   GL2 5302   3.123   1.580   9.063 -0.1902  0.1250 -0.1083
  332loPI   C1A 5303   3.254   1.408   8.616 -0.2847  0.0317 -0.2225
  332loPI   C2A 5304   3.216   1.227   8.091 -0.3068 -0.1904 -0.1345
  332loPI   C3A 5305   3.473   1.159   7.748  0.0270  0.2962 -0.1471
  332loPI   C4A 5306   3.490   0.767   7.350 -0.2542 -0.0840  0.1628
  332loPI   C5A 5307   3.131   0.515   7.173  0.0680 -0.0374  0.1976
  332loPI   C6A 5308   3.161   0.347   6.725 -0.2056  0.0398 -0.1190
  332loPI   C1B 5309   2.959   1.933   8.735  0.1544  0.3852 -0.3760
  332loPI   C2B 5310   2.896   2.028   8.391  0.0264  0.0595  0.6097
  332loPI   C3B 5311   2.866   2.138   7.987 -0.0339  0.0960 -0.1304
  332loPI   C4B 5312   2.907   2.033   7.618  0.0860  0.1316  0.0466
  333loPI    C1 5313   0.575   0.729   9.833  0.0894 -0.2605 -0.2683
  333loPI    C2 5314   0.535   0.414  10.076 -0.0087 -0.1222 -0.1036
  333loPI    C3 5315   0.472   0.784  10.215  0.1433 -0.0258 -0.2858
  333loPI   PO4 5316   0.425   0.744   9.651 -0.2570  0.0327 -0.2191
  333loPI   GL1 5317   0.310   0.618   9.294 -0.1714  0.0240  0.3810
  333loPI   GL2 5318   0.393   0.322   9.301 -0.2473  0.1270  0.0154
  333loPI   C1A 5319   0.382   0.684   8.816 -0.2279  0.0642 -0.0119
  333loPI   C2A 5320   0.179   0.720   8.438  0.4177  0.0921 -0.0699
  333loPI   C3A 5321  -0.075   0.732   8.124  0.1949  0.0103  0.1139
  333loPI   C4A 5322  -0.445   0.793   7.844  0.5849 -0.0414 -0.0863
  333loPI   C5A 5323  -0.744   0.464   7.777  0.0010  0.0371  0.0604
  333loPI   C6A 5324  -0.989   0.313   7.452 -0.0496  0.1845 -0.1758
  333loPI   C1B 5325   0.262   0.196   8.845 -0.1460 -0.2295 -0.4689
  333loPI   C2B 5326   0.099   0.162   8.409 -0.1160 -0.1335  0.2620
  333loPI   C3B 5327   0.147   0.234   8.054  0.2262 -0.4074 -0.0988
  333loPI   C4B 5328   0.449   0.441   7.614  0.3686  0.2090 -0.1617
  334loPI    C1 5329   7.666   1.008  10.493 -0.1107  0.2002 -0.0161
  334loPI    C2 5330   7.703   1.370  10.328  0.1059  0.2729  0.1865
  334loPI    C3 5331   7.702   1.331  10.726 -0.2251  0.0806  0.1700
  334loPI   PO4 5332   7.704   0.825  10.245 -0.2566 -0.0349  0.1203
  334loPI   GL1 5333   7.602   0.930   9.906  0.0679 -0.0349  0.1568
  334loPI   GL2 5334   7.809   1.229   9.854  0.2025 -0.0166  0.1655
  334loPI   C1A 5335   7.390   0.585   9.675  0.0437 -0.1775 -0.0134
  334loPI   C2A 5336   7.505   0.258   9.412  0.3523  0.0711 -0.0077
  334loPI   C3A 5337   7.489   0.023   9.180  0.0709  0.1808  0.0365
  334loPI   C4A 5338   7.875  -0.190   9.073  0.1345  0.0473 -0.3368
  334loPI   C5A 5339   8.183  -0.182   8.690  0.0877  0.2224 -0.1093
  334loPI   C6A 5340   8.134   0.083   8.365  0.4675 -0.2220  0.2654
  334loPI   C1B 5341   7.856   1.267   9.444 -0.1643  0.2237 -0.0432
  334loPI   C2B 5342   7.788   1.129   9.066 -0.0557  0.1230  0.1825
  334loPI   C3B 5343   7.826   1.060   8.600 -0.1519  0.2274 -0.1825
  334loPI   C4B 5344   7.759   1.042   8.137  0.1660  0.1484 -0.1664
  335loPI    C1 5345   0.445  12.106   9.823  0.1682 -0.1475 -0.0143
  335loPI    C2 5346   0.148  12.238  10.056  0.0212 -0.2293 -0.1536
  335loPI    C3 5347   0.496  12.436  10.044 -0.0649 -0.0713 -0.0724
  335loPI   PO4 5348   0.269  11.963   9.643  0.1500 -0.3794  0.1721
  335loPI   GL1 5349   0.341  12.072   9.173  0.1576 -0.2045  0.0874
  335loPI   GL2 5350  -0.021  12.101   9.197  0.0762 -0.0712 -0.4417
  335loPI   C1A 5351   0.272  12.346   8.849 -0.1513  0.2157 -0.3221
  335loPI   C2A 5352   0.177  12.333   8.348  0.0310 -0.0430 -0.2737
  335loPI   C3A 5353  -0.156  12.412   8.021  0.0838 -0.0492 -0.1991
  335loPI   C4A 5354  -0.103  12.534   7.590 -0.1206  0.0960 -0.0048
  335loPI   C5A 5355   0.027  12.953   7.495 -0.1539  0.7072  0.1441
  335loPI   C6A 5356  -0.272  13.235   7.534 -0.0817 -0.1850  0.0152
  335loPI   C1B 5357  -0.078  11.835   8.897  0.2526  0.1570 -0.1339
  335loPI   C2B 5358  -0.146  11.879   8.415  0.0990 -0.2350 -0.2300
  335loPI   C3B 5359  -0.428  11.937   7.980 -0.1126  0.1551 -0.1700
  335loPI   C4B 5360  -0.655  12.234   7.897  0.0099 -0.0608  0.0603
  336loPI    C1 5361   5.021  12.191   9.927  0.1794  0.0997  0.2244
  336loPI    C2 5362   4.737  12.033  10.160  0.0302  0.0478  0.0098
  336loPI    C3 5363   5.118  11.921  10.206 -0.0280 -0.1225  0.0854
  336loPI   PO4 5364   5.016  12.151   9.666 -0.3776  0.0104 -0.3168
  336loPI   GL1 5365   5.080  12.413   9.272  0.0524 -0.0788 -0.3931
  336loPI   GL2 5366   5.045  12.690   9.200  0.0277  0.2310 -0.1785
  336loPI   C1A 5367   5.341  12.266   8.923  0.1586  0.0677  0.0728
  336loPI   C2A 5368   5.515  12.101   8.678  0.1939 -0.3176 -0.1756
  336loPI   C3A 5369   5.590  12.134   8.224 -0.0450 -0.0376  0.0834
  336loPI   C4A 5370   5.316  11.934   7.947  0.2049  0.4179  0.3092
  336loPI   C5A 5371   5.038  11.579   8.001 -0.1075 -0.0653  0.0068
  336loPI   C6A 5372   4.590  11.355   8.057 -0.0278 -0.2201 -0.2894
  336loPI   C1B 5373   5.178  12.704   8.841 -0.0870  0.0665  0.0043
  336loPI   C2B 5374   5.287  12.679   8.351 -0.1105  0.0096  0.0149
  336loPI   C3B 5375   5.270  12.400   7.943 -0.2165 -0.0060  0.1333
  336loPI   C4B 5376   5.547  12.286   7.618 -0.1727 -0.2004  0.0635
  337loPI    C1 5377  10.391   4.006   9.880  0.4058 -0.1823  0.3191
  337loPI    C2 5378  10.318   3.956  10.270 -0.0897 -0.2857  0.2197
  337loPI    C3 5379  10.105   3.753   9.999  0.0890 -0.0389 -0.1126
  337loPI   PO4 5380  10.261   4.294   9.738 -0.0157  0.0045  0.1922
  337loPI   GL1 5381  10.175   4.395   9.258 -0.1019  0.0453 -0.1963
  337loPI   GL2 5382   9.969   4.482   9.072  0.0191 -0.0959  0.0168
  337loPI   C1A 5383  10.266   4.129   8.826 -0.2523  0.1718  0.2440
  337loPI   C2A 5384  10.534   4.013   8.454 -0.2700 -0.3126 -0.1518
  337loPI   C3A 5385  10.534   4.077   7.984 -0.3840 -0.1890  0.0449
  337loPI   C4A 5386  10.554   4.143   7.457  0.2358  0.1011 -0.2545
  337loPI   C5A 5387  10.210   4.119   7.119  0.1298 -0.1517  0.2372
  337loPI   C6A 5388  10.044   4.246   6.731  0.2601 -0.1340  0.0400
  337loPI   C1B 5389   9.839   4.439   8.697 -0.2598 -0.1009 -0.1241
  337loPI   C2B 5390   9.790   4.557   8.266  0.1682  0.0613 -0.2436
  337loPI   C3B 5391   9.719   4.630   7.909 -0.1714  0.1952  0.0196
  337loPI   C4B 5392   9.810   4.610   7.471 -0.0359  0.1663  0.0788
  338loPI    C1 5393  11.960   4.349   9.323  0.2039  0.2587 -0.1371
  338loPI    C2 5394  12.202   4.232   9.619  0.0287  0.0806 -0.0615
  338loPI    C3 5395  11.832   4.085   9.594  0.0112  0.1633 -0.3186
  338loPI   PO4 5396  11.972   4.607   9.194 -0.1082 -0.1588 -0.0757
  338loPI   GL1 5397  12.024   4.733   8.821 -0.0731 -0.1467 -0.2532
  338loPI   GL2 5398  12.206   4.666   8.561  0.2903  0.0529 -0.3133
  338loPI   C1A 5399  11.691   4.849   8.491 -0.4063  0.1067  0.1706
  338loPI   C2A 5400  11.897   5.012   8.151  0.2668  0.0475 -0.3424
  338loPI   C3A 5401  12.013   4.927   7.693  0.0412 -0.4244  0.0970
  338loPI   C4A 5402  12.332   4.944   7.366  0.0134 -0.1627  0.2565
  338loPI   C5A 5403  12.547   5.090   6.918 -0.3019  0.1074  0.0710
  338loPI   C6A 5404  12.410   5.405   6.836  0.2312  0.0969 -0.0457
  338loPI   C1B 5405  12.285   4.740   8.148 -0.2618  0.1823 -0.1330
  338loPI   C2B 5406  12.572   4.679   7.721  0.1180 -0.1183  0.0484
  338loPI   C3B 5407  12.834   4.431   7.568  0.0620 -0.2489 -0.3065
  338loPI   C4B 5408  13.057   4.099   7.646 -0.3704  0.0356  0.1016
  339loPI    C1 5409   7.255   9.953  10.095  0.2936 -0.1087 -0.2179
  339loPI    C2 5410   7.186  10.296  10.289  0.0998 -0.1733 -0.1701
  339loPI    C3 5411   7.156   9.947  10.483 -0.0488 -0.2356 -0.3031
  339loPI   PO4 5412   7.090   9.814   9.897  0.1116  0.0545  0.1757
  339loPI   GL1 5413   7.264   9.857   9.461 -0.1203 -0.1795 -0.0290
  339loPI   GL2 5414   6.960   9.739   9.429  0.0222  0.0140 -0.1433
  339loPI   C1A 5415   7.399   9.999   9.004  0.0875  0.0561  0.0231
  339loPI   C2A 5416   7.420  10.130   8.540 -0.3017 -0.0337 -0.3580
  339loPI   C3A 5417   7.397   9.841   8.214  0.3234  0.0555  0.1233
  339loPI   C4A 5418   7.364   9.851   7.747  0.0395  0.1611  0.0195
  339loPI   C5A 5419   7.319   9.610   7.413 -0.2227  0.0676 -0.1904
  339loPI   C6A 5420   7.502   9.300   7.227 -0.3448  0.4372  0.3165
  339loPI   C1B 5421   6.901  10.021   9.026  0.1662  0.4195 -0.3586
  339loPI   C2B 5422   6.878  10.018   8.640  0.1061  0.1450 -0.3155
  339loPI   C3B 5423   6.957  10.135   8.220 -0.1329 -0.1386 -0.1940
  339loPI   C4B 5424   6.773  10.284   7.921  0.0389 -0.0698 -0.0460
  340loPI    C1 5425   4.260   9.777  10.076  0.1399  0.0893  0.1730
  340loPI    C2 5426   4.392   9.997  10.383  0.1461  0.1433  0.1317
  340loPI    C3 5427   4.002   9.991  10.294  0.0906 -0.1754  0.3794
  340loPI   PO4 5428   4.332   9.882   9.854  0.1680  0.2273  0.1358
  340loPI   GL1 5429   4.240   9.760   9.496  0.0657  0.0342 -0.1286
  340loPI   GL2 5430   4.135   9.974   9.397 -0.1063  0.0327 -0.0427
  340loPI   C1A 5431   4.452   9.722   9.041 -0.1352 -0.2501 -0.0795
  340loPI   C2A 5432   4.733   9.652   8.760  0.6497 -0.1308  0.0004
  340loPI   C3A 5433   5.057   9.533   8.393  0.1078 -0.1629 -0.0153
  340loPI   C4A 5434   5.115   9.407   8.055  0.0484 -0.1779  0.3094
  340loPI   C5A 5435   5.134   9.421   7.609  0.1799  0.0505 -0.0196
  340loPI   C6A 5436   4.964   9.076   7.463  0.1295  0.1599  0.0551
  340loPI   C1B 5437   3.942   9.917   9.088 -0.1591 -0.0749 -0.0904
  340loPI   C2B 5438   3.834   9.993   8.710  0.5212  0.0808 -0.0925
  340loPI   C3B 5439   3.913  10.042   8.312 -0.3218  0.3459  0.2274
  340loPI   C4B 5440   3.920  10.104   7.808  0.2541  0.2203  0.0614
  341loPI    C1 5441  17.474  15.433  10.252 -0.2121 -0.1923 -0.4530
  341loPI    C2 5442  17.369  15.080  10.408  0.2234 -0.1104  0.0525
  341loPI    C3 5443  17.192  15.416  10.534  0.1499 -0.1001 -0.0763
  341loPI   PO4 5444  17.589  15.374  10.011  0.1922 -0.1220  0.2369
  341loPI   GL1 5445  17.635  15.611   9.566 -0.0854 -0.0965  0.3190
  341loPI   GL2 5446  17.417  15.740   9.343 -0.1422  0.1549  0.2225
  341loPI   C1A 5447  17.621  15.320   9.292  0.3661  0.0352 -0.0143
  341loPI   C2A 5448  17.489  15.220   8.881 -0.0178  0.0932 -0.1402
  341loPI   C3A 5449  17.506  15.241   8.449 -0.0208  0.0811  0.1064
  341loPI   C4A 5450  17.506  15.330   8.011 -0.3231  0.3254 -0.1498
  341loPI   C5A 5451  17.213  15.587   7.884  0.0566  0.1787 -0.0532
  341loPI   C6A 5452  17.112  15.984   7.716 -0.0169  0.1453  0.3652
  341loPI   C1B 5453  17.383  16.000   9.042  0.4601 -0.3644 -0.0501
  341loPI   C2B 5454  17.357  16.265   8.626 -0.0646 -0.0369 -0.4645
  341loPI   C3B 5455  17.329  16.319   8.126  0.0427  0.0443 -0.0212
  341loPI   C4B 5456  17.541  16.365   7.756 -0.2647  0.1436  0.1358
  342loPI    C1 5457   9.250  14.138  10.514  0.0787  0.1269 -0.0482
  342loPI    C2 5458   9.587  14.044  10.708 -0.1051  0.0407  0.2359
  342loPI    C3 5459   9.274  14.191  10.910 -0.2971 -0.0388  0.0012
  342loPI   PO4 5460   9.307  13.975  10.256 -0.0722 -0.1177 -0.5163
  342loPI   GL1 5461   9.396  13.640   9.932  0.1358 -0.2815 -0.3191
  342loPI   GL2 5462   9.612  13.824   9.660  0.3290  0.1426 -0.0021
  342loPI   C1A 5463   9.155  13.617   9.601 -0.1367  0.0083 -0.3178
  342loPI   C2A 5464   9.010  13.530   9.153 -0.0962 -0.3556 -0.0469
  342loPI   C3A 5465   8.949  13.545   8.677 -0.4547 -0.0257 -0.1665
  342loPI   C4A 5466   9.153  13.623   8.380 -0.2346 -0.0752  0.0297
  342loPI   C5A 5467   9.181  13.498   7.980  0.2645 -0.0450  0.1670
  342loPI   C6A 5468   9.529  13.453   7.802 -0.2759  0.1671 -0.3222
  342loPI   C1B 5469   9.502  13.828   9.212  0.0408 -0.2866  0.2342
  342loPI   C2B 5470   9.430  13.818   8.741  0.2829  0.2728  0.0597
  342loPI   C3B 5471   9.577  13.876   8.307  0.2242 -0.0139  0.0950
  342loPI   C4B 5472   9.237  13.979   7.934  0.1751 -0.3265 -0.1034
  343loPI    C1 5473  18.083  17.547  10.015  0.0369  0.2393  0.0056
  343loPI    C2 5474  18.267  17.210   9.904 -0.1181  0.1746 -0.0578
  343loPI    C3 5475  18.463  17.483  10.120 -0.0481 -0.0398  0.1537
  343loPI   PO4 5476  17.785  17.419   9.954  0.3948 -0.0141 -0.0859
  343loPI   GL1 5477  17.511  17.312   9.536 -0.0808  0.0333 -0.2178
  343loPI   GL2 5478  17.572  17.132   9.231  0.1928  0.1289 -0.0133
  343loPI   C1A 5479  17.542  17.591   9.056 -0.0213 -0.1109 -0.2072
  343loPI   C2A 5480  17.559  17.471   8.552  0.2675  0.1620 -0.0424
  343loPI   C3A 5481  17.795  17.700   8.210 -0.0148  0.1691 -0.0198
  343loPI   C4A 5482  18.114  17.928   7.847 -0.1938  0.2056 -0.0018
  343loPI   C5A 5483  18.457  17.883   8.050 -0.0341 -0.0699  0.0305
  343loPI   C6A 5484  18.787  18.012   8.272  0.1441 -0.1151  0.0715
  343loPI   C1B 5485  17.448  17.013   8.815 -0.4526  0.0112 -0.2099
  343loPI   C2B 5486  17.303  17.077   8.346  0.0043  0.2776 -0.1056
  343loPI   C3B 5487  17.109  16.830   8.111 -0.2679 -0.0708 -0.5211
  343loPI   C4B 5488  17.078  16.522   7.711  0.1169  0.0372  0.1804
  344loPI    C1 5489   1.509  10.201   9.684 -0.4981 -0.0969 -0.0845
  344loPI    C2 5490   1.438  10.437   9.999 -0.0707 -0.1328  0.0446
  344loPI    C3 5491   1.583  10.068  10.054  0.1303 -0.0930 -0.1974
  344loPI   PO4 5492   1.621  10.349   9.511  0.1894 -0.1676 -0.2234
  344loPI   GL1 5493   1.903  10.480   9.196 -0.2995 -0.2263 -0.2467
  344loPI   GL2 5494   1.552  10.578   8.959 -0.3222  0.2513  0.0312
  344loPI   C1A 5495   1.918  10.354   8.689  0.1139 -0.1620 -0.0344
  344loPI   C2A 5496   2.023  10.423   8.261 -0.5049  0.1273  0.2654
  344loPI   C3A 5497   1.989  10.448   7.894  0.1624 -0.0025  0.0719
  344loPI   C4A 5498   1.783  10.496   7.601  0.0609  0.0949  0.1374
  344loPI   C5A 5499   1.588  10.676   7.101 -0.3037  0.3808  0.2215
  344loPI   C6A 5500   1.728  10.949   6.801  0.5028 -0.1320 -0.3911
  344loPI   C1B 5501   1.448  10.755   8.628 -0.2098  0.0513 -0.0160
  344loPI   C2B 5502   1.571  10.715   8.293  0.1441 -0.0792 -0.2002
  344loPI   C3B 5503   1.633  10.793   8.004  0.3816  0.3675 -0.1470
  344loPI   C4B 5504   1.414  10.812   7.548 -0.1074  0.0971  0.0046
  345loPI    C1 5505  18.485   2.708  10.175  0.0631  0.0486  0.1196
  345loPI    C2 5506  18.335   2.638  10.540  0.0273  0.0724  0.1094
  345loPI    C3 5507  18.727   2.707  10.493  0.0188  0.1515  0.1540
  345loPI   PO4 5508  18.402   2.539   9.940 -0.3076  0.3918 -0.1257
  345loPI   GL1 5509  17.993   2.520   9.783 -0.0578 -0.1532 -0.3018
  345loPI   GL2 5510  18.163   2.328   9.510  0.1062 -0.0153 -0.0990
  345loPI   C1A 5511  18.180   2.722   9.271 -0.1411  0.0191 -0.0505
  345loPI   C2A 5512  18.029   3.185   8.931  0.1733  0.0003 -0.4006
  345loPI   C3A 5513  17.743   3.118   8.500 -0.0310  0.0699 -0.1113
  345loPI   C4A 5514  17.570   2.896   8.149  0.0140  0.0433 -0.4928
  345loPI   C5A 5515  17.508   2.512   7.886  0.0032  0.1891 -0.1867
  345loPI   C6A 5516  17.441   2.317   7.509 -0.0378  0.0504  0.2742
  345loPI   C1B 5517  18.282   2.282   9.035 -0.0644 -0.1782 -0.4552
  345loPI   C2B 5518  18.152   2.228   8.722 -0.2380  0.0468 -0.1746
  345loPI   C3B 5519  18.255   2.443   8.327 -0.1105  0.0504 -0.1209
  345loPI   C4B 5520  18.091   2.597   7.972 -0.1240  0.3051 -0.2815
  346loPI    C1 5521   2.991  11.382   9.744  0.0919  0.0200 -0.0307
  346loPI    C2 5522   2.685  11.622   9.838  0.0927  0.0374 -0.0726
  346loPI    C3 5523   2.927  11.485  10.125  0.0644  0.0491 -0.0432
  346loPI   PO4 5524   2.873  11.212   9.470 -0.1138 -0.5777 -0.1773
  346loPI   GL1 5525   2.842  11.291   9.070 -0.0752 -0.0341  0.3173
  346loPI   GL2 5526   2.600  11.413   9.033  0.0356 -0.0113  0.0165
  346loPI   C1A 5527   3.078  11.152   8.710  0.0977 -0.0706  0.3902
  346loPI   C2A 5528   3.191  10.968   8.218  0.1098 -0.1489  0.0405
  346loPI   C3A 5529   2.986  10.804   7.878 -0.0204  0.4281 -0.2251
  346loPI   C4A 5530   2.843  10.549   7.542  0.1227  0.0447  0.1197
  346loPI   C5A 5531   2.686  10.073   7.543 -0.1270  0.1558  0.2799
  346loPI   C6A 5532   2.682   9.583   7.433  0.0524 -0.0196 -0.1629
  346loPI   C1B 5533   2.530  11.706   8.673 -0.0113 -0.0640 -0.0996
  346loPI   C2B 5534   2.702  11.697   8.263  0.1232 -0.1615 -0.0644
  346loPI   C3B 5535   2.639  11.748   7.828  0.0700 -0.1497 -0.2061
  346loPI   C4B 5536   2.445  11.843   7.477 -0.0967  0.3476  0.3297
  347loPI    C1 5537   3.985   3.977   9.595 -0.0950 -0.0667 -0.0541
  347loPI    C2 5538   4.113   3.849   9.951 -0.0236  0.0275 -0.0458
  347loPI    C3 5539   4.029   4.236   9.896  0.4679  0.1094 -0.2746
  347loPI   PO4 5540   4.115   3.940   9.343  0.0505 -0.2593 -0.2139
  347loPI   GL1 5541   4.191   4.174   9.005  0.2104  0.1076  0.2573
  347loPI   GL2 5542   4.462   4.511   8.987  0.2124 -0.2519 -0.4072
  347loPI   C1A 5543   4.200   3.889   8.631  0.0188 -0.1458  0.2540
  347loPI   C2A 5544   4.125   3.866   8.233  0.4818  0.0747  0.2981
  347loPI   C3A 5545   4.076   3.666   7.868 -0.1268 -0.2222 -0.0244
  347loPI   C4A 5546   4.163   3.726   7.429  0.0628  0.0814  0.0644
  347loPI   C5A 5547   4.384   3.640   7.201 -0.3067 -0.2140 -0.0280
  347loPI   C6A 5548   4.396   3.268   7.131  0.2775  0.3230  0.2173
  347loPI   C1B 5549   4.608   4.502   8.472 -0.0540 -0.3951  0.2818
  347loPI   C2B 5550   4.191   4.363   8.174  0.0400  0.0510  0.1178
  347loPI   C3B 5551   4.126   4.191   7.801  0.1157 -0.1873  0.4538
  347loPI   C4B 5552   4.356   4.287   7.426  0.3788 -0.0066 -0.2302
  348loPI    C1 5553   1.296   5.340   9.597 -0.0629 -0.1283  0.0452
  348loPI    C2 5554   0.987   5.572   9.703 -0.0099  0.0768 -0.2353
  348loPI    C3 5555   1.362   5.702   9.756  0.0237 -0.0272 -0.2155
  348loPI   PO4 5556   1.092   5.228   9.317 -0.0440  0.0831 -0.4132
  348loPI   GL1 5557   0.925   5.056   8.892 -0.1708  0.0053  0.0081
  348loPI   GL2 5558   1.296   4.916   8.888 -0.0756  0.2047 -0.0510
  348loPI   C1A 5559   0.677   5.106   8.578  0.1206 -0.0978  0.0444
  348loPI   C2A 5560   0.598   4.978   8.242 -0.0796  0.0756 -0.1187
  348loPI   C3A 5561   0.714   4.969   7.989  0.1108  0.2760 -0.3162
  348loPI   C4A 5562   0.700   5.227   7.636  0.0738  0.0310 -0.1129
  348loPI   C5A 5563   1.006   5.419   7.285 -0.2894  0.1744  0.0784
  348loPI   C6A 5564   0.902   5.701   7.062  0.0905  0.0248 -0.1988
  348loPI   C1B 5565   1.180   4.985   8.373 -0.1223  0.1098  0.1329
  348loPI   C2B 5566   1.097   5.344   8.174 -0.1065  0.0726  0.1368
  348loPI   C3B 5567   1.016   5.605   7.857 -0.1322 -0.2277  0.0329
  348loPI   C4B 5568   1.069   5.992   7.561 -0.6298 -0.0848  0.0567
  349loPI    C1 5569   6.964   8.418   9.708 -0.1461 -0.1261  0.1461
  349loPI    C2 5570   6.645   8.483   9.941 -0.0190  0.2911  0.2130
  349loPI    C3 5571   7.009   8.456  10.103  0.0149  0.0983  0.1083
  349loPI   PO4 5572   6.866   8.281   9.514  0.1036 -0.0702 -0.1672
  349loPI   GL1 5573   6.947   7.971   9.237  0.2408  0.0908  0.0867
  349loPI   GL2 5574   7.156   8.088   9.047 -0.2675 -0.2799 -0.0039
  349loPI   C1A 5575   6.696   7.891   8.937 -0.1014 -0.1046  0.2723
  349loPI   C2A 5576   6.620   7.965   8.485  0.0516 -0.0332 -0.5475
  349loPI   C3A 5577   6.625   7.986   7.997  0.0179  0.1450 -0.0244
  349loPI   C4A 5578   6.655   8.143   7.584  0.1589  0.3002 -0.3311
  349loPI   C5A 5579   6.752   8.471   7.191 -0.1122  0.1499  0.2535
  349loPI   C6A 5580   6.513   8.501   6.813  0.1990  0.4206 -0.2408
  349loPI   C1B 5581   7.080   8.028   8.625 -0.0773  0.0004 -0.0166
  349loPI   C2B 5582   7.054   7.967   8.231 -0.3589  0.0447 -0.1919
  349loPI   C3B 5583   7.179   8.161   7.833  0.4271 -0.1290 -0.2494
  349loPI   C4B 5584   7.205   8.287   7.355  0.1544 -0.0282 -0.3914
  350loPI    C1 5585  14.341   8.209   9.665  0.0764  0.0296 -0.0368
  350loPI    C2 5586  14.249   8.167  10.052  0.1612 -0.0442 -0.0245
  350loPI    C3 5587  14.098   8.472   9.843  0.0859 -0.0249  0.0575
  350loPI   PO4 5588  14.312   7.878   9.613 -0.1882  0.0736 -0.0102
  350loPI   GL1 5589  14.228   7.763   9.198 -0.0473  0.1544 -0.1520
  350loPI   GL2 5590  14.042   8.068   9.199  0.5207 -0.0582  0.0223
  350loPI   C1A 5591  14.375   7.590   8.782  0.3690 -0.2225 -0.1492
  350loPI   C2A 5592  14.275   7.252   8.478 -0.1726 -0.1495 -0.4940
  350loPI   C3A 5593  14.398   7.051   8.082 -0.2890  0.3905  0.2330
  350loPI   C4A 5594  14.602   6.979   7.657 -0.2224 -0.0084 -0.3626
  350loPI   C5A 5595  14.825   7.145   7.375  0.0437  0.1064 -0.1762
  350loPI   C6A 5596  15.056   7.378   7.073 -0.1887  0.0321 -0.0711
  350loPI   C1B 5597  14.114   8.027   8.751  0.1814  0.0642 -0.3636
  350loPI   C2B 5598  13.933   8.124   8.248  0.0151  0.1150  0.1257
  350loPI   C3B 5599  13.825   8.079   7.864 -0.0040 -0.0890 -0.0277
  350loPI   C4B 5600  13.523   7.894   7.550  0.2015 -0.0385  0.1811
  351loPI    C1 5601  13.501  11.885  10.263  0.0764 -0.0126  0.1355
  351loPI    C2 5602  13.545  11.982  10.648 -0.2316 -0.0754  0.1895
  351loPI    C3 5603  13.683  11.632  10.513  0.3301  0.1585  0.1278
  351loPI   PO4 5604  13.275  12.024  10.208  0.1278  0.0282 -0.2279
  351loPI   GL1 5605  13.044  12.165   9.942  0.0065  0.2899  0.1951
  351loPI   GL2 5606  12.837  11.767   9.910 -0.2087  0.2488 -0.2115
  351loPI   C1A 5607  12.854  12.331   9.624  0.1098  0.4527 -0.0739
  351loPI   C2A 5608  12.922  12.318   9.151  0.0445 -0.1098  0.3640
  351loPI   C3A 5609  13.057  12.247   8.749  0.0781  0.2865  0.3796
  351loPI   C4A 5610  13.053  12.171   8.257 -0.1316  0.0538 -0.4602
  351loPI   C5A 5611  12.643  12.227   7.980  0.1885 -0.0932 -0.1059
  351loPI   C6A 5612  12.474  12.514   7.714  0.0310  0.0024 -0.0129
  351loPI   C1B 5613  12.946  11.825   9.470 -0.2407 -0.2266 -0.2094
  351loPI   C2B 5614  12.846  11.832   9.006  0.0337 -0.1711 -0.1749
  351loPI   C3B 5615  12.752  11.870   8.546 -0.2183 -0.0715  0.1383
  351loPI   C4B 5616  12.718  11.823   8.198 -0.4622  0.1312 -0.0872
  352loPI    C1 5617   1.681  15.897   9.677  0.0858 -0.0634  0.0335
  352loPI    C2 5618   2.076  15.863   9.621  0.0768 -0.1054 -0.0064
  352loPI    C3 5619   1.935  16.077   9.928  0.1317 -0.1683  0.0629
  352loPI   PO4 5620   1.608  15.619   9.564 -0.0935 -0.2975 -0.2117
  352loPI   GL1 5621   1.439  15.505   9.188  0.2694 -0.0582 -0.2576
  352loPI   GL2 5622   1.182  15.612   9.171 -0.1124 -0.1164 -0.0453
  352loPI   C1A 5623   1.642  15.729   8.800  0.1516 -0.1057 -0.1818
  352loPI   C2A 5624   2.112  15.658   8.457  0.3467 -0.0438  0.1596
  352loPI   C3A 5625   2.196  15.334   8.109 -0.0020 -0.2563  0.0045
  352loPI   C4A 5626   2.061  14.962   7.841  0.0466  0.1796  0.3219
  352loPI   C5A 5627   2.129  14.662   7.458 -0.2632  0.1397 -0.1496
  352loPI   C6A 5628   2.153  14.637   7.057 -0.2966  0.0192  0.1848
  352loPI   C1B 5629   1.190  15.478   8.673 -0.2422 -0.3021  0.4413
  352loPI   C2B 5630   1.184  15.373   8.263  0.1417 -0.1293 -0.0839
  352loPI   C3B 5631   1.297  15.549   7.905 -0.2415  0.0384 -0.0709
  352loPI   C4B 5632   1.407  15.317   7.542 -0.0232  0.1487 -0.4657
  353loPI    C1 5633   2.627   0.048   9.514 -0.0561  0.2360 -0.2117
  353loPI    C2 5634   2.245  -0.028   9.426  0.0485 -0.2387 -0.2817
  353loPI    C3 5635   2.397  -0.149   9.775  0.1122  0.0362 -0.2118
  353loPI   PO4 5636   2.762  -0.165   9.315 -0.2737 -0.0310  0.0107
  353loPI   GL1 5637   2.854  -0.454   8.979  0.3660  0.3659  0.0665
  353loPI   GL2 5638   3.128  -0.553   8.914 -0.1414 -0.1013  0.1202
  353loPI   C1A 5639   2.725  -0.668   8.550  0.0203 -0.1150 -0.0404
  353loPI   C2A 5640   2.768  -0.534   8.150 -0.0410 -0.0163  0.3788
  353loPI   C3A 5641   3.092  -0.446   7.818 -0.1561 -0.4053 -0.2777
  353loPI   C4A 5642   3.398  -0.140   7.670 -0.1060 -0.0137  0.0976
  353loPI   C5A 5643   3.444   0.226   7.405 -0.3413  0.0808 -0.1486
  353loPI   C6A 5644   3.681   0.456   6.973  0.2022 -0.0860 -0.1082
  353loPI   C1B 5645   3.202  -0.524   8.487  0.0344 -0.0772 -0.0172
  353loPI   C2B 5646   3.436  -0.529   8.114 -0.0631 -0.0530 -0.1681
  353loPI   C3B 5647   3.514  -0.659   7.641  0.1245 -0.2711  0.1335
  353loPI   C4B 5648   3.552  -0.755   7.185  0.1652  0.0113  0.0040
  354loPI    C1 5649   3.133  12.138   9.659  0.0435  0.0826  0.2552
  354loPI    C2 5650   2.829  12.072   9.910 -0.0130  0.0236  0.1716
  354loPI    C3 5651   3.176  11.881   9.962  0.0417  0.1620  0.3233
  354loPI   PO4 5652   2.911  12.273   9.468  0.3829 -0.0634  0.2635
  354loPI   GL1 5653   2.982  12.513   9.015  0.2129  0.1901  0.1756
  354loPI   GL2 5654   3.270  12.422   8.798 -0.3561 -0.0116  0.4139
  354loPI   C1A 5655   2.750  12.613   8.671 -0.0913 -0.1211 -0.1427
  354loPI   C2A 5656   2.687  12.671   8.286 -0.0612  0.2760 -0.3236
  354loPI   C3A 5657   2.534  12.674   7.838  0.1464 -0.0524  0.1564
  354loPI   C4A 5658   2.786  12.725   7.393  0.2231 -0.4109  0.1921
  354loPI   C5A 5659   2.781  12.539   7.000  0.0431  0.0922  0.0565
  354loPI   C6A 5660   2.497  12.240   6.781 -0.2156 -0.2900  0.2087
  354loPI   C1B 5661   3.221  12.193   8.418 -0.2644  0.0520 -0.2556
  354loPI   C2B 5662   3.131  11.956   8.015  0.0089 -0.3435  0.1037
  354loPI   C3B 5663   3.275  11.719   7.660 -0.1468 -0.1814  0.2415
  354loPI   C4B 5664   3.050  11.633   7.228  0.0703 -0.2175  0.1541
  355loPI    C1 5665   2.427  13.901   9.589  0.1233  0.0404 -0.0559
  355loPI    C2 5666   2.826  13.928   9.590  0.1648 -0.4776 -0.0094
  355loPI    C3 5667   2.615  14.066   9.901  0.2751  0.1038 -0.1795
  355loPI   PO4 5668   2.305  14.008   9.302 -0.0721  0.4239 -0.2983
  355loPI   GL1 5669   2.181  13.891   8.860 -0.0419 -0.2028  0.0336
  355loPI   GL2 5670   1.890  13.734   8.989  0.0269 -0.0750  0.0599
  355loPI   C1A 5671   1.855  13.882   8.451 -0.0233 -0.0122  0.0420
  355loPI   C2A 5672   1.826  13.797   8.006  0.2211  0.0424  0.1247
  355loPI   C3A 5673   1.733  13.465   7.763  0.1183  0.0215  0.4771
  355loPI   C4A 5674   1.640  13.494   7.274 -0.1274 -0.1929  0.1851
  355loPI   C5A 5675   1.576  13.689   6.867 -0.1302 -0.2243 -0.0097
  355loPI   C6A 5676   1.551  14.141   6.737  0.0794  0.1117  0.0845
  355loPI   C1B 5677   2.044  13.481   8.658 -0.0057  0.0184  0.2148
  355loPI   C2B 5678   2.064  13.251   8.306  0.0546 -0.0026  0.1386
  355loPI   C3B 5679   2.162  13.112   7.858  0.0835  0.1498  0.2310
  355loPI   C4B 5680   2.186  12.843   7.537  0.3286 -0.0526  0.0505
  356loPI    C1 5681   2.183   2.124   9.734 -0.1056  0.0231 -0.2244
  356loPI    C2 5682   2.520   2.054   9.529  0.0929  0.0931  0.0708
  356loPI    C3 5683   2.535   2.245   9.880 -0.2107 -0.2473  0.2767
  356loPI   PO4 5684   2.034   1.883   9.685 -0.1891 -0.0815 -0.1855
  356loPI   GL1 5685   2.017   1.802   9.233 -0.3129  0.0035  0.0277
  356loPI   GL2 5686   2.116   1.477   9.085 -0.2995 -0.0871  0.1047
  356loPI   C1A 5687   2.312   2.191   9.083 -0.0376 -0.1924  0.1931
  356loPI   C2A 5688   2.525   2.409   8.834 -0.1115 -0.0719  0.0597
  356loPI   C3A 5689   2.489   2.457   8.487  0.3094  0.0820 -0.0904
  356loPI   C4A 5690   2.389   2.804   8.232  0.1663 -0.1043 -0.2044
  356loPI   C5A 5691   2.033   2.813   7.860 -0.1240  0.0167 -0.3492
  356loPI   C6A 5692   1.942   3.029   7.465 -0.0235  0.2553  0.3131
  356loPI   C1B 5693   1.898   1.670   8.738 -0.1012  0.0098  0.2588
  356loPI   C2B 5694   1.903   1.675   8.300  0.1472  0.0875 -0.2064
  356loPI   C3B 5695   1.841   1.972   8.008  0.2084 -0.0159  0.2037
  356loPI   C4B 5696   2.131   2.174   7.704 -0.0025  0.0783 -0.2872
  357loPI    C1 5697   2.217  14.861   9.805  0.0414 -0.1215 -0.0633
  357loPI    C2 5698   2.336  15.157  10.046 -0.0143  0.0884 -0.2893
  357loPI    C3 5699   2.191  14.818  10.201  0.3683  0.0422 -0.0209
  357loPI   PO4 5700   2.490  14.877   9.523  0.2979  0.1772  0.2024
  357loPI   GL1 5701   2.453  14.943   9.082  0.1844  0.0536 -0.2145
  357loPI   GL2 5702   2.750  14.750   9.137  0.3132 -0.0528 -0.0856
  357loPI   C1A 5703   2.127  14.866   8.742 -0.0124 -0.2187  0.2541
  357loPI   C2A 5704   1.939  14.837   8.320 -0.1371  0.1620 -0.3425
  357loPI   C3A 5705   1.757  14.601   8.024 -0.1501 -0.3781  0.0424
  357loPI   C4A 5706   1.614  14.611   7.614 -0.1841 -0.5891 -0.0847
  357loPI   C5A 5707   1.257  14.804   7.433  0.0080  0.0863  0.0106
  357loPI   C6A 5708   0.790  14.884   7.498  0.1020 -0.2557 -0.1088
  357loPI   C1B 5709   2.699  14.681   8.716  0.0584 -0.0998  0.0726
  357loPI   C2B 5710   2.662  14.332   8.298 -0.2012 -0.3938  0.0733
  357loPI   C3B 5711   2.768  14.086   7.936 -0.0321 -0.2315 -0.1538
  357loPI   C4B 5712   2.682  13.902   7.458 -0.0533  0.2881 -0.0666
  358loPI    C1 5713  11.013   4.366   9.429  0.0610 -0.0785 -0.0285
  358loPI    C2 5714  10.996   4.685   9.669 -0.1788  0.0278 -0.1826
  358loPI    C3 5715  10.659   4.507   9.551 -0.0536 -0.1605 -0.2611
  358loPI   PO4 5716  11.246   4.182   9.501  0.0648  0.2551 -0.0729
  358loPI   GL1 5717  11.380   3.973   9.175 -0.4442  0.0091  0.4571
  358loPI   GL2 5718  11.565   4.156   9.099  0.2799 -0.3011  0.3349
  358loPI   C1A 5719  11.575   3.849   8.675 -0.0563  0.0583 -0.1636
  358loPI   C2A 5720  11.642   3.660   8.297  0.1439 -0.0932  0.0241
  358loPI   C3A 5721  11.604   3.596   7.892 -0.4871 -0.1169 -0.3145
  358loPI   C4A 5722  11.463   3.873   7.483  0.3236 -0.1157  0.1291
  358loPI   C5A 5723  11.298   3.569   7.297 -0.0205  0.0340  0.2350
  358loPI   C6A 5724  11.155   3.257   7.014 -0.1932 -0.0783 -0.2958
  358loPI   C1B 5725  11.477   4.458   8.773 -0.0935 -0.1155  0.0216
  358loPI   C2B 5726  11.340   4.544   8.272 -0.5018 -0.0599 -0.1732
  358loPI   C3B 5727  11.222   4.480   7.859 -0.5719 -0.5116 -0.2310
  358loPI   C4B 5728  11.028   4.256   7.547  0.0233 -0.0278 -0.0655
  359loPI    C1 5729  15.689  14.540  10.247  0.2903  0.0625  0.0813
  359loPI    C2 5730  15.701  14.276  10.547 -0.0818  0.0504  0.0897
  359loPI    C3 5731  15.518  14.628  10.598 -0.1475  0.0483 -0.1224
  359loPI   PO4 5732  15.672  14.410  10.061 -0.2154 -0.0020  0.1641
  359loPI   GL1 5733  15.587  14.086   9.780 -0.2352  0.2031  0.0331
  359loPI   GL2 5734  15.807  14.283   9.577  0.0948 -0.0696 -0.1409
  359loPI   C1A 5735  15.143  14.266   9.726 -0.2676 -0.0819  0.1840
  359loPI   C2A 5736  14.855  14.053   9.347 -0.1874 -0.1759  0.0087
  359loPI   C3A 5737  14.549  14.032   8.943 -0.3040 -0.0333  0.1702
  359loPI   C4A 5738  14.678  13.899   8.550  0.1315 -0.0900 -0.1879
  359loPI   C5A 5739  15.096  14.088   8.421  0.0089 -0.0191  0.1264
  359loPI   C6A 5740  15.302  14.430   8.577 -0.0916  0.1877  0.0585
  359loPI   C1B 5741  15.721  14.574   9.246 -0.0923 -0.0624 -0.3365
  359loPI   C2B 5742  15.632  14.622   8.902  0.2362 -0.0616  0.1320
  359loPI   C3B 5743  15.671  14.833   8.488  0.1320 -0.0306  0.2547
  359loPI   C4B 5744  15.306  15.064   8.282  0.0626 -0.0191  0.0397
  360loPI    C1 5745   8.097  17.515   9.775 -0.1684 -0.0026  0.0208
  360loPI    C2 5746   7.702  17.565   9.816 -0.1869  0.0244 -0.1791
  360loPI    C3 5747   7.953  17.850   9.940 -0.2273 -0.0135 -0.0077
  360loPI   PO4 5748   8.022  17.128   9.661  0.3512  0.3102 -0.0417
  360loPI   GL1 5749   8.129  16.896   9.366 -0.0248 -0.0039 -0.2798
  360loPI   GL2 5750   8.459  16.889   9.251 -0.0679 -0.0846  0.0055
  360loPI   C1A 5751   8.031  17.153   8.999  0.1004 -0.2151  0.0071
  360loPI   C2A 5752   7.918  17.013   8.602 -0.1155 -0.1391  0.0338
  360loPI   C3A 5753   7.827  16.825   8.219 -0.2569 -0.1187 -0.2263
  360loPI   C4A 5754   7.735  17.189   7.880 -0.0286  0.1600 -0.1207
  360loPI   C5A 5755   7.524  17.611   7.711  0.2309  0.1062  0.1478
  360loPI   C6A 5756   7.135  17.895   7.870  0.0697 -0.1411 -0.1158
  360loPI   C1B 5757   8.325  16.834   8.768 -0.2953 -0.1389 -0.2236
  360loPI   C2B 5758   8.261  16.682   8.364  0.1501 -0.0144  0.0604
  360loPI   C3B 5759   8.300  16.519   7.882 -0.0636 -0.2544 -0.1456
  360loPI   C4B 5760   8.128  16.866   7.753 -0.0315 -0.1314 -0.2776
  361loPI    C1 5761  13.781  10.965  10.106  0.0780 -0.1355 -0.2194
  361loPI    C2 5762  14.028  10.663  10.197  0.2146  0.0665  0.0984
  361loPI    C3 5763  13.889  10.902  10.486  0.0554  0.2698 -0.1413
  361loPI   PO4 5764  13.968  11.111   9.891 -0.0084 -0.1366 -0.2578
  361loPI   GL1 5765  13.628  11.027   9.578 -0.2236  0.0432  0.1940
  361loPI   GL2 5766  14.001  10.995   9.388  0.5420  0.1605 -0.0256
  361loPI   C1A 5767  13.532  11.011   9.144 -0.1178 -0.2537  0.0861
  361loPI   C2A 5768  13.559  11.198   8.670  0.0941  0.2034  0.2533
  361loPI   C3A 5769  13.790  11.268   8.382 -0.1886 -0.0021 -0.2341
  361loPI   C4A 5770  14.061  11.209   8.112  0.0752 -0.1958 -0.2044
  361loPI   C5A 5771  14.402  10.963   8.134  0.1151 -0.1101 -0.2178
  361loPI   C6A 5772  14.827  10.869   7.959 -0.1206 -0.3470  0.2820
  361loPI   C1B 5773  14.008  11.119   8.909  0.2023  0.0352  0.0877
  361loPI   C2B 5774  14.120  11.531   8.710  0.0439 -0.0582 -0.1800
  361loPI   C3B 5775  14.244  11.876   8.539 -0.2310  0.0191  0.0791
  361loPI   C4B 5776  14.004  12.022   8.200  0.0775 -0.1992 -0.2796
  362loPI    C1 5777   9.617  17.441  10.230  0.1090 -0.1603  0.1081
  362loPI    C2 5778   9.220  17.481  10.201  0.1391  0.1203  0.0551
  362loPI    C3 5779   9.397  17.493  10.560  0.1103  0.0938  0.0703
  362loPI   PO4 5780   9.685  17.595  10.011  0.1787  0.2901 -0.1038
  362loPI   GL1 5781   9.999  17.742   9.725  0.1126  0.0724  0.2948
  362loPI   GL2 5782  10.014  17.443   9.504  0.1299  0.1573 -0.2519
  362loPI   C1A 5783  10.332  17.837   9.373 -0.0227  0.2687 -0.1379
  362loPI   C2A 5784  10.443  17.738   8.897 -0.1962 -0.1786  0.0351
  362loPI   C3A 5785  10.403  17.520   8.526 -0.0126  0.1528 -0.4740
  362loPI   C4A 5786  10.608  17.310   8.245 -0.1023 -0.2350 -0.0298
  362loPI   C5A 5787  10.733  17.132   7.842 -0.1407 -0.2811  0.2602
  362loPI   C6A 5788  11.145  16.907   7.692 -0.1549 -0.2811 -0.1239
  362loPI   C1B 5789   9.907  17.606   9.154 -0.0496  0.1143 -0.1364
  362loPI   C2B 5790   9.943  17.460   8.670  0.3727 -0.3504 -0.3932
  362loPI   C3B 5791  10.035  17.401   8.281 -0.1566  0.1753 -0.0040
  362loPI   C4B 5792  10.265  17.125   7.952  0.2387  0.0452  0.2101
  363loPI    C1 5793  10.633   9.175  10.211 -0.1750  0.0790  0.0031
  363loPI    C2 5794  10.506   9.501  10.405  0.1205  0.0765  0.2071
  363loPI    C3 5795  10.777   9.261  10.574 -0.0054 -0.2119  0.0073
  363loPI   PO4 5796  10.555   9.153   9.965  0.0705 -0.5171  0.0296
  363loPI   GL1 5797  10.556   9.274   9.586  0.1209  0.2378 -0.1289
  363loPI   GL2 5798  10.210   9.246   9.470 -0.3538 -0.0367 -0.1468
  363loPI   C1A 5799  10.618   9.649   9.323 -0.0057 -0.1372 -0.0231
  363loPI   C2A 5800  10.634   9.948   8.983 -0.3422 -0.2635  0.0527
  363loPI   C3A 5801  10.532  10.119   8.736 -0.0523 -0.1296  0.0104
  363loPI   C4A 5802  10.652  10.353   8.344  0.0874  0.1894  0.0457
  363loPI   C5A 5803  10.472  10.278   7.919 -0.0224  0.0694 -0.1083
  363loPI   C6A 5804  10.731  10.201   7.567  0.0501 -0.3628 -0.0434
  363loPI   C1B 5805  10.456   9.165   9.004  0.0913  0.1447 -0.1582
  363loPI   C2B 5806  10.856   9.121   8.727 -0.0536  0.2133  0.2554
  363loPI   C3B 5807  11.243   9.031   8.798 -0.3563  0.3781  0.1540
  363loPI   C4B 5808  11.559   9.103   8.556  0.0421  0.0501 -0.0550
  364loPI    C1 5809   9.540  16.932  10.082 -0.1366 -0.1291  0.2338
  364loPI    C2 5810   9.153  16.884   9.992 -0.1026 -0.4077  0.2263
  364loPI    C3 5811   9.259  17.021  10.353 -0.2170  0.0250  0.1011
  364loPI   PO4 5812   9.651  17.053   9.869 -0.0644  0.1145  0.3955
  364loPI   GL1 5813   9.996  16.912   9.646 -0.5342  0.3058 -0.1042
  364loPI   GL2 5814  10.279  16.973   9.566 -0.2296 -0.0508 -0.2608
  364loPI   C1A 5815   9.888  16.932   9.231  0.1340  0.1584  0.0942
  364loPI   C2A 5816   9.805  16.997   8.792  0.1952 -0.1061 -0.1345
  364loPI   C3A 5817   9.595  17.098   8.496  0.2304 -0.1946  0.2252
  364loPI   C4A 5818   9.255  16.972   8.291  0.1674 -0.1130  0.0558
  364loPI   C5A 5819   9.081  17.091   7.924 -0.2607  0.0056 -0.1582
  364loPI   C6A 5820   8.633  16.907   7.931 -0.1837  0.0798  0.0221
  364loPI   C1B 5821  10.323  16.646   9.202 -0.1562  0.1686 -0.2812
  364loPI   C2B 5822  10.425  16.619   8.805 -0.1887 -0.5191 -0.1142
  364loPI   C3B 5823  10.537  16.399   8.572 -0.3413 -0.0617 -0.2323
  364loPI   C4B 5824  10.590  16.157   8.213  0.1027 -0.0376 -0.2974
  365loPI    C1 5825   1.239   2.566   9.650  0.2674  0.0176  0.2680
  365loPI    C2 5826   1.242   2.387  10.008 -0.2217 -0.0143  0.2633
  365loPI    C3 5827   0.982   2.682   9.934 -0.0512  0.0657 -0.0325
  365loPI   PO4 5828   1.202   2.313   9.498 -0.0398 -0.2416  0.0559
  365loPI   GL1 5829   1.117   2.137   9.222 -0.2967  0.1511 -0.3201
  365loPI   GL2 5830   1.096   1.863   9.372 -0.2539  0.0695  0.2384
  365loPI   C1A 5831   1.276   2.189   8.796 -0.2936 -0.0318 -0.0504
  365loPI   C2A 5832   1.471   2.094   8.381 -0.0221 -0.0408  0.1497
  365loPI   C3A 5833   1.307   1.995   8.080 -0.2485  0.2320 -0.3926
  365loPI   C4A 5834   1.076   1.880   7.767  0.1836 -0.1018  0.0832
  365loPI   C5A 5835   0.763   1.636   7.600 -0.1897  0.0919  0.2600
  365loPI   C6A 5836   0.361   1.681   7.650  0.2176 -0.2332  0.0823
  365loPI   C1B 5837   1.388   1.725   8.979 -0.3210  0.2384 -0.1457
  365loPI   C2B 5838   1.453   1.664   8.605 -0.1319  0.1548  0.0568
  365loPI   C3B 5839   1.423   1.534   8.268  0.0152 -0.2036  0.0488
  365loPI   C4B 5840   1.616   1.590   7.854 -0.0913  0.1520 -0.0010
  366loPI    C1 5841  11.379  11.853  10.743 -0.0210  0.0096 -0.1045
  366loPI    C2 5842  11.167  11.564  10.566  0.2178 -0.3889  0.2415
  366loPI    C3 5843  11.280  11.524  10.947 -0.0814  0.3440  0.4252
  366loPI   PO4 5844  11.529  11.936  10.478 -0.1403  0.4742 -0.2576
  366loPI   GL1 5845  11.659  12.056  10.074 -0.0812 -0.0224 -0.3162
  366loPI   GL2 5846  11.539  11.794   9.842  0.1826  0.3203 -0.0761
  366loPI   C1A 5847  11.547  12.333   9.763 -0.1024  0.0757  0.2871
  366loPI   C2A 5848  11.328  12.503   9.423 -0.2290 -0.0784 -0.0660
  366loPI   C3A 5849  11.216  12.871   9.290  0.0009  0.2740  0.3070
  366loPI   C4A 5850  11.250  13.261   9.152  0.1579 -0.1531  0.0884
  366loPI   C5A 5851  11.060  13.646   9.215  0.3610  0.3611  0.3420
  366loPI   C6A 5852  10.903  13.823   9.540 -0.1823 -0.1164  0.1887
  366loPI   C1B 5853  11.474  11.656   9.371 -0.0554  0.1593  0.2623
  366loPI   C2B 5854  11.457  11.626   8.894  0.1629 -0.1902 -0.0225
  366loPI   C3B 5855  11.538  11.734   8.482 -0.1483 -0.1999 -0.2361
  366loPI   C4B 5856  11.264  11.789   8.129 -0.0142  0.0313  0.1858
  367loPI    C1 5857   1.179   3.557   9.960 -0.1126 -0.2083 -0.0975
  367loPI    C2 5858   1.116   3.263  10.223  0.0863 -0.0331  0.1516
  367loPI    C3 5859   0.926   3.612  10.266  0.1025 -0.0114  0.0481
  367loPI   PO4 5860   1.299   3.527   9.722 -0.0373  0.2127 -0.0079
  367loPI   GL1 5861   1.180   3.420   9.282 -0.1759 -0.0273 -0.0912
  367loPI   GL2 5862   1.316   3.564   9.152 -0.2461  0.2112 -0.0034
  367loPI   C1A 5863   1.107   3.172   8.905 -0.0890  0.3005 -0.2533
  367loPI   C2A 5864   1.149   3.159   8.432  0.1525  0.2316 -0.4091
  367loPI   C3A 5865   1.283   3.007   8.105  0.2271 -0.2791 -0.0214
  367loPI   C4A 5866   1.231   2.839   7.731  0.0551 -0.1086  0.3713
  367loPI   C5A 5867   1.476   2.997   7.277 -0.1474  0.2392  0.1517
  367loPI   C6A 5868   1.735   3.250   7.039 -0.1494 -0.2375  0.2852
  367loPI   C1B 5869   1.397   3.615   8.727  0.1191  0.2357 -0.0988
  367loPI   C2B 5870   1.349   3.675   8.248 -0.1316  0.0132 -0.1949
  367loPI   C3B 5871   1.149   3.519   8.006 -0.0162 -0.0265 -0.0999
  367loPI   C4B 5872   0.807   3.693   7.704 -0.0358  0.0345 -0.0712
  368loPI    C1 5873  14.714   9.508   9.861  0.2506  0.1470  0.1028
  368loPI    C2 5874  15.060   9.356   9.990  0.1665 -0.1709 -0.0353
  368loPI    C3 5875  14.728   9.134  10.002  0.0025  0.0693 -0.0716
  368loPI   PO4 5876  14.731   9.596   9.645 -0.2362 -0.2528 -0.2099
  368loPI   GL1 5877  14.809   9.560   9.275 -0.0402 -0.1014  0.0069
  368loPI   GL2 5878  14.822   9.827   9.154  0.2213  0.1324 -0.4456
  368loPI   C1A 5879  15.120   9.320   9.111  0.0628 -0.0110 -0.0718
  368loPI   C2A 5880  14.981   9.251   8.695 -0.1223  0.0856 -0.2294
  368loPI   C3A 5881  15.002   9.362   8.203  0.2680 -0.3587 -0.2390
  368loPI   C4A 5882  15.110   9.382   7.741  0.0692  0.1486  0.4441
  368loPI   C5A 5883  15.224   9.272   7.337 -0.0168  0.1128 -0.3295
  368loPI   C6A 5884  15.361   9.180   7.064 -0.1098  0.1497 -0.0532
  368loPI   C1B 5885  15.024   9.817   8.750 -0.0608  0.1532 -0.1150
  368loPI   C2B 5886  14.866   9.893   8.406  0.1691 -0.2711 -0.0209
  368loPI   C3B 5887  14.759   9.774   8.068 -0.1015  0.1724  0.2347
  368loPI   C4B 5888  14.708   9.850   7.691  0.2813  0.3235  0.1001
  369loPI    C1 5889  14.130  10.051   9.648  0.1567 -0.0346 -0.0373
  369loPI    C2 5890  13.891  10.143   9.955  0.3763 -0.0114  0.1288
  369loPI    C3 5891  14.258  10.299   9.934  0.3764 -0.0424 -0.1274
  369loPI   PO4 5892  13.974  10.178   9.414  0.1972  0.0625 -0.1672
  369loPI   GL1 5893  14.033  10.170   8.900 -0.0131 -0.0941  0.3035
  369loPI   GL2 5894  13.769  10.114   8.973  0.1206 -0.3196  0.3103
  369loPI   C1A 5895  13.881  10.303   8.505 -0.6761 -0.0894  0.1111
  369loPI   C2A 5896  13.833  10.452   8.130 -0.0322 -0.3446 -0.1372
  369loPI   C3A 5897  13.579  10.622   7.758 -0.0938  0.0729 -0.0144
  369loPI   C4A 5898  13.312  10.892   7.556 -0.2655  0.2435 -0.0313
  369loPI   C5A 5899  12.981  10.782   7.263  0.1161 -0.0021  0.0715
  369loPI   C6A 5900  13.024  10.772   6.796 -0.0461  0.0523  0.0574
  369loPI   C1B 5901  13.653   9.837   8.670  0.1425  0.0266 -0.0362
  369loPI   C2B 5902  13.325   9.773   8.403  0.0687  0.0222 -0.0408
  369loPI   C3B 5903  13.339   9.597   8.021  0.4694  0.1842  0.0655
  369loPI   C4B 5904  13.315   9.677   7.629 -0.1599 -0.1201  0.4686
  370loPI    C1 5905   4.062   7.141   9.570  0.0038  0.0079 -0.0867
  370loPI    C2 5906   4.171   6.855   9.827 -0.0735  0.0049 -0.0571
  370loPI    C3 5907   4.296   7.231   9.881 -0.2430  0.0412  0.0921
  370loPI   PO4 5908   4.087   7.079   9.328 -0.1667  0.1240  0.3308
  370loPI   GL1 5909   4.353   7.346   9.067  0.1100 -0.2984 -0.0761
  370loPI   GL2 5910   4.430   7.111   8.979 -0.2396 -0.0091  0.0393
  370loPI   C1A 5911   4.463   7.471   8.576  0.0924 -0.3509  0.0175
  370loPI   C2A 5912   4.320   7.632   8.192 -0.1231  0.0232  0.2131
  370loPI   C3A 5913   4.280   7.880   7.839 -0.2171 -0.1075  0.2143
  370loPI   C4A 5914   4.287   8.191   7.511 -0.0996 -0.2004  0.4290
  370loPI   C5A 5915   4.664   8.218   7.165  0.0882 -0.1655 -0.2025
  370loPI   C6A 5916   5.156   8.023   7.147  0.1289 -0.0758 -0.0034
  370loPI   C1B 5917   4.304   6.874   8.676 -0.1330 -0.0454 -0.1163
  370loPI   C2B 5918   4.222   7.023   8.214 -0.0997 -0.1973 -0.1994
  370loPI   C3B 5919   4.037   7.045   7.744  0.1754 -0.2217 -0.1760
  370loPI   C4B 5920   3.901   7.053   7.380 -0.1001 -0.0159 -0.1704
  371loPI    C1 5921  13.992  15.598  10.719 -0.1595  0.0860 -0.0986
  371loPI    C2 5922  13.789  15.280  10.851 -0.0844  0.0991  0.0511
  371loPI    C3 5923  13.709  15.644  10.998 -0.0644  0.1275 -0.0080
  371loPI   PO4 5924  14.058  15.442  10.443 -0.0034 -0.1428 -0.3387
  371loPI   GL1 5925  13.904  15.204  10.101  0.1653  0.1060  0.3882
  371loPI   GL2 5926  13.728  15.546  10.076  0.0514 -0.0640  0.0579
  371loPI   C1A 5927  14.121  15.261   9.814 -0.4498  0.0062  0.0514
  371loPI   C2A 5928  14.150  15.233   9.367  0.1354 -0.0310  0.0025
  371loPI   C3A 5929  14.042  15.134   8.950  0.1351  0.2185 -0.3754
  371loPI   C4A 5930  13.809  15.423   8.661 -0.1052 -0.1790  0.0095
  371loPI   C5A 5931  13.593  15.807   8.457  0.0314 -0.0517 -0.0249
  371loPI   C6A 5932  13.473  16.187   8.355  0.3644 -0.2631 -0.1834
  371loPI   C1B 5933  13.667  15.671   9.683  0.1660  0.0287  0.2100
  371loPI   C2B 5934  13.483  15.948   9.434 -0.2738  0.2132  0.1419
  371loPI   C3B 5935  13.165  16.079   9.201 -0.1305  0.1577 -0.3190
  371loPI   C4B 5936  12.825  16.335   9.209 -0.0362  0.2094  0.0624
  372loPI    C1 5937   4.792  18.916   9.695  0.0748 -0.1126 -0.0636
  372loPI    C2 5938   4.495  18.858   9.956 -0.0405 -0.0337 -0.1757
  372loPI    C3 5939   4.790  18.590   9.926  0.0701  0.0451  0.1619
  372loPI   PO4 5940   4.743  19.165   9.577 -0.0623 -0.1959 -0.1355
  372loPI   GL1 5941   4.625  19.217   9.190 -0.0503  0.1099  0.2492
  372loPI   GL2 5942   4.303  19.154   8.980 -0.1959  0.2247  0.0735
  372loPI   C1A 5943   4.774  19.127   8.805 -0.1562  0.3079  0.2128
  372loPI   C2A 5944   4.802  19.090   8.366 -0.1792  0.1927  0.0668
  372loPI   C3A 5945   4.827  18.953   7.917  0.3009  0.1895 -0.2647
  372loPI   C4A 5946   4.954  19.066   7.478 -0.0574  0.0002 -0.2388
  372loPI   C5A 5947   5.405  19.001   7.251 -0.2309  0.2083 -0.1587
  372loPI   C6A 5948   5.706  18.697   7.173  0.0164 -0.2018 -0.0178
  372loPI   C1B 5949   4.322  19.080   8.520 -0.1369  0.2999  0.0003
  372loPI   C2B 5950   4.343  18.898   8.036  0.0790 -0.1205  0.0427
  372loPI   C3B 5951   4.461  18.785   7.572 -0.1648 -0.0740 -0.0083
  372loPI   C4B 5952   4.783  18.669   7.226 -0.4033  0.0700 -0.0397
  373loPI    C1 5953   3.419  12.815   9.267  0.0404 -0.0889  0.0763
  373loPI    C2 5954   3.683  12.638   9.511  0.0092 -0.0927  0.1074
  373loPI    C3 5955   3.291  12.605   9.583  0.0058  0.0640  0.1653
  373loPI   PO4 5956   3.486  12.774   9.078 -0.0378 -0.0093  0.1720
  373loPI   GL1 5957   3.414  12.991   8.729  0.0764  0.1492 -0.0833
  373loPI   GL2 5958   3.054  12.950   8.762 -0.5152  0.0719 -0.1016
  373loPI   C1A 5959   3.568  12.692   8.447 -0.1411  0.1127  0.1537
  373loPI   C2A 5960   3.236  12.616   8.194  0.0655  0.0746  0.0514
  373loPI   C3A 5961   2.981  12.440   7.768  0.0128  0.2539 -0.1349
  373loPI   C4A 5962   2.987  12.119   7.412 -0.2498  0.0759 -0.2225
  373loPI   C5A 5963   3.002  12.006   6.922 -0.1807 -0.0256 -0.2251
  373loPI   C6A 5964   3.015  11.718   6.754  0.1930  0.1914 -0.0419
  373loPI   C1B 5965   3.065  13.037   8.351  0.1956 -0.1131 -0.2187
  373loPI   C2B 5966   3.134  13.028   7.919  0.1799  0.1247 -0.2813
  373loPI   C3B 5967   3.324  13.327   7.640 -0.2699  0.0852  0.1902
  373loPI   C4B 5968   3.308  13.791   7.804 -0.0546  0.3390  0.1875
  374loPI    C1 5969   1.211  16.605   9.598  0.0129 -0.0324  0.2376
  374loPI    C2 5970   1.559  16.415   9.540 -0.0709 -0.0677 -0.1834
  374loPI    C3 5971   1.532  16.809   9.472 -0.0849 -0.0428 -0.0365
  374loPI   PO4 5972   1.088  16.538   9.482  0.0764  0.0919  0.3679
  374loPI   GL1 5973   1.073  16.472   9.091  0.0072 -0.0768 -0.0642
  374loPI   GL2 5974   1.364  16.579   9.046  0.2471 -0.2787  0.0524
  374loPI   C1A 5975   0.880  16.739   8.874 -0.0609 -0.0660 -0.1205
  374loPI   C2A 5976   0.757  16.703   8.456  0.0386 -0.2230  0.0028
  374loPI   C3A 5977   0.397  16.710   8.280 -0.0718 -0.4303  0.0830
  374loPI   C4A 5978   0.534  16.811   7.874  0.3399 -0.0396 -0.1714
  374loPI   C5A 5979   0.502  16.808   7.531 -0.0300 -0.0442  0.0374
  374loPI   C6A 5980   0.364  16.549   7.130 -0.1857  0.3298 -0.0095
  374loPI   C1B 5981   1.267  16.109   8.810 -0.3129  0.0741  0.0520
  374loPI   C2B 5982   1.297  15.902   8.432  0.5395  0.0253  0.1735
  374loPI   C3B 5983   0.901  15.817   8.152 -0.2505  0.4038  0.4540
  374loPI   C4B 5984   0.912  15.977   7.833 -0.0399 -0.1055  0.2034
  375loPI    C1 5985  13.969  12.274  10.502 -0.0903 -0.0949 -0.1305
  375loPI    C2 5986  13.918  12.653  10.386  0.1166  0.0160  0.1313
  375loPI    C3 5987  13.777  12.531  10.740  0.1263 -0.1293  0.0856
  375loPI   PO4 5988  13.930  12.136  10.230 -0.0457  0.2790  0.1919
  375loPI   GL1 5989  13.923  12.308   9.885  0.2336 -0.1008  0.2358
  375loPI   GL2 5990  13.606  12.226   9.813 -0.0458 -0.0463  0.0473
  375loPI   C1A 5991  13.837  12.514   9.488 -0.0630 -0.2191  0.3239
  375loPI   C2A 5992  14.019  12.633   9.045  0.1941  0.1345  0.2619
  375loPI   C3A 5993  13.989  12.683   8.630  0.0946  0.0951 -0.2407
  375loPI   C4A 5994  13.987  12.529   8.321  0.0946  0.0266 -0.1591
  375loPI   C5A 5995  14.156  12.512   7.905  0.5109 -0.2626 -0.1880
  375loPI   C6A 5996  14.268  12.032   7.655 -0.0154 -0.0446  0.0601
  375loPI   C1B 5997  13.570  11.909   9.444  0.1818  0.1617  0.1786
  375loPI   C2B 5998  13.337  11.812   9.121  0.2604  0.5069 -0.1647
  375loPI   C3B 5999  13.182  11.448   8.916  0.1035 -0.2200  0.0131
  375loPI   C4B 6000  12.856  11.387   8.668  0.1198  0.2321  0.2325
  376loPI    C1 6001  10.553  16.960   9.971 -0.2251 -0.1852 -0.0662
  376loPI    C2 6002  10.268  16.829  10.219 -0.1579 -0.0178  0.1019
  376loPI    C3 6003  10.448  17.179  10.289  0.1389 -0.1548  0.0371
  376loPI   PO4 6004  10.616  16.675   9.887  0.0468 -0.2394 -0.1798
  376loPI   GL1 6005  10.709  16.624   9.478 -0.0337 -0.0515 -0.0516
  376loPI   GL2 6006  10.997  16.472   9.320 -0.1161  0.0391  0.0229
  376loPI   C1A 6007  10.734  16.968   9.138 -0.3513 -0.2403  0.0337
  376loPI   C2A 6008  10.699  17.249   8.818  0.1777 -0.1086 -0.0788
  376loPI   C3A 6009  11.057  17.332   8.520  0.2161  0.0258  0.3405
  376loPI   C4A 6010  11.123  17.061   8.182 -0.0419  0.1833 -0.1231
  376loPI   C5A 6011  11.554  17.103   7.954 -0.3104  0.4829 -0.0087
  376loPI   C6A 6012  11.933  17.045   7.954  0.1299  0.1827  0.1246
  376loPI   C1B 6013  10.904  16.517   8.893 -0.2060 -0.1965 -0.1655
  376loPI   C2B 6014  11.036  16.425   8.507 -0.2127  0.0910  0.1096
  376loPI   C3B 6015  10.988  16.516   8.044  0.1009  0.0235 -0.0113
  376loPI   C4B 6016  10.852  16.434   7.696 -0.1061  0.0910 -0.2135
  377loPI    C1 6017   2.507  13.375   9.678  0.1613 -0.1250  0.0698
  377loPI    C2 6018   2.301  13.084   9.498 -0.0843 -0.0538  0.2308
  377loPI    C3 6019   2.116  13.331   9.752  0.0438  0.4535 -0.1536
  377loPI   PO4 6020   2.697  13.351   9.443  0.1469 -0.3259  0.0080
  377loPI   GL1 6021   2.561  13.119   8.982  0.2065  0.1782  0.1991
  377loPI   GL2 6022   2.452  12.857   9.069  0.0621  0.2815  0.1820
  377loPI   C1A 6023   2.638  13.272   8.592  0.0883  0.0955  0.0031
  377loPI   C2A 6024   2.521  13.126   8.181 -0.4017 -0.1949 -0.0136
  377loPI   C3A 6025   2.695  13.128   7.760 -0.1313 -0.0725  0.3473
  377loPI   C4A 6026   2.760  13.393   7.400  0.3365 -0.2120  0.0553
  377loPI   C5A 6027   3.124  13.695   7.334  0.2324  0.0961  0.0419
  377loPI   C6A 6028   3.409  14.045   7.363 -0.0881  0.0273  0.1933
  377loPI   C1B 6029   2.266  12.869   8.645 -0.0275 -0.2637  0.0821
  377loPI   C2B 6030   2.196  12.601   8.230  0.3249 -0.2490 -0.1904
  377loPI   C3B 6031   1.951  12.539   7.931 -0.2836  0.0587 -0.0492
  377loPI   C4B 6032   1.816  12.495   7.477 -0.0831  0.2293 -0.2128
  378loPI    C1 6033   3.945   2.751   9.804 -0.0184 -0.1120  0.0182
  378loPI    C2 6034   3.990   2.901  10.173  0.2046  0.0849 -0.0861
  378loPI    C3 6035   3.815   2.545  10.121 -0.0594  0.1706  0.1885
  378loPI   PO4 6036   3.770   3.025   9.687  0.1678  0.1191 -0.4572
  378loPI   GL1 6037   3.685   3.077   9.294 -0.0255 -0.0852 -0.0911
  378loPI   GL2 6038   3.575   3.326   9.103  0.0732  0.1827 -0.3230
  378loPI   C1A 6039   3.717   2.970   8.808 -0.0986 -0.0217 -0.1895
  378loPI   C2A 6040   3.549   2.886   8.492 -0.1985 -0.2341 -0.1601
  378loPI   C3A 6041   3.412   2.899   8.109 -0.1545  0.0651 -0.1751
  378loPI   C4A 6042   3.489   2.880   7.685  0.0132 -0.0756  0.0488
  378loPI   C5A 6043   3.508   2.892   7.172 -0.2857 -0.1657 -0.2418
  378loPI   C6A 6044   3.644   2.816   6.717 -0.1204  0.2092 -0.1130
  378loPI   C1B 6045   3.363   3.410   8.718  0.0445 -0.0361  0.1413
  378loPI   C2B 6046   3.367   3.388   8.366 -0.0644 -0.1105  0.0764
  378loPI   C3B 6047   3.221   3.316   7.943 -0.1298 -0.0460  0.1364
  378loPI   C4B 6048   3.270   3.245   7.469  0.1410  0.1111 -0.5066
  379loPI    C1 6049  10.590   5.303   9.438  0.4426  0.2251 -0.0304
  379loPI    C2 6050  10.714   5.100   9.760  0.0048  0.1693  0.1093
  379loPI    C3 6051  10.520   5.447   9.804 -0.0815  0.1484 -0.0934
  379loPI   PO4 6052  10.812   5.342   9.288 -0.0924 -0.1002 -0.1433
  379loPI   GL1 6053  11.183   5.366   9.094  0.4148  0.1490 -0.1947
  379loPI   GL2 6054  11.003   5.682   9.030 -0.1525  0.0068 -0.1541
  379loPI   C1A 6055  11.387   5.159   8.682  0.1597  0.0759  0.0947
  379loPI   C2A 6056  11.362   5.150   8.266  0.1095 -0.0144 -0.1746
  379loPI   C3A 6057  11.472   4.957   7.926  0.0648  0.1734  0.2413
  379loPI   C4A 6058  11.246   4.938   7.468 -0.1629  0.5030 -0.0699
  379loPI   C5A 6059  10.904   4.824   7.275  0.0134  0.2408  0.2226
  379loPI   C6A 6060  10.717   4.481   7.080  0.1531 -0.0568  0.0823
  379loPI   C1B 6061  10.929   5.404   8.594 -0.0456  0.2114  0.0911
  379loPI   C2B 6062  11.012   5.411   8.084  0.1139  0.1125  0.0715
  379loPI   C3B 6063  11.298   5.417   7.755 -0.3973 -0.0130 -0.0623
  379loPI   C4B 6064  11.706   5.275   7.552 -0.1257  0.1413  0.2171
  380loPI    C1 6065   9.673   6.498   9.396 -0.2579  0.2814 -0.3158
  380loPI    C2 6066   9.716   6.363   9.770  0.1084  0.5307 -0.2628
  380loPI    C3 6067   9.417   6.614   9.681 -0.1731  0.2199 -0.2138
  380loPI   PO4 6068   9.692   6.282   9.204  0.2378 -0.2714 -0.0957
  380loPI   GL1 6069   9.903   6.371   8.819 -0.1457 -0.2085  0.0580
  380loPI   GL2 6070  10.157   6.113   8.916 -0.2538  0.1246 -0.0714
  380loPI   C1A 6071   9.756   6.560   8.493  0.2302 -0.1544 -0.3832
  380loPI   C2A 6072   9.669   6.629   8.072 -0.1384 -0.2805 -0.1316
  380loPI   C3A 6073  10.029   6.612   7.708 -0.1354  0.0243  0.3745
  380loPI   C4A 6074  10.228   6.907   7.386 -0.1367 -0.1401 -0.2689
  380loPI   C5A 6075  10.662   7.083   7.292  0.1515  0.2427 -0.0056
  380loPI   C6A 6076  10.998   7.409   7.177  0.3303  0.0164 -0.0809
  380loPI   C1B 6077  10.283   5.909   8.592  0.0569 -0.1315  0.2814
  380loPI   C2B 6078  10.124   5.825   8.258 -0.2046  0.0394 -0.0613
  380loPI   C3B 6079  10.126   5.664   7.891 -0.0357  0.0614  0.3340
  380loPI   C4B 6080  10.262   5.423   7.567  0.3872 -0.3930 -0.0720
  381loPI    C1 6081   9.192   3.297   9.924  0.0382 -0.2498 -0.1504
  381loPI    C2 6082   8.798   3.286   9.993  0.0689  0.0262  0.0883
  381loPI    C3 6083   9.047   3.070  10.220  0.0766  0.0630  0.1150
  381loPI   PO4 6084   9.361   3.353   9.688  0.2228  0.1021 -0.0028
  381loPI   GL1 6085   9.718   3.377   9.471  0.1841  0.5277 -0.1181
  381loPI   GL2 6086   9.666   3.623   9.214 -0.1567  0.0167  0.2904
  381loPI   C1A 6087   9.979   3.216   9.107 -0.1892  0.4901  0.2554
  381loPI   C2A 6088   9.961   3.197   8.677 -0.0526  0.0285 -0.3249
  381loPI   C3A 6089   9.949   3.136   8.207 -0.2434  0.1186 -0.2991
  381loPI   C4A 6090   9.867   3.309   7.798  0.1515 -0.4029 -0.1591
  381loPI   C5A 6091   9.740   3.424   7.361 -0.1750 -0.2026 -0.2429
  381loPI   C6A 6092   9.837   3.710   7.022  0.3094  0.3757 -0.0230
  381loPI   C1B 6093   9.703   3.599   8.724  0.1278  0.2589 -0.3142
  381loPI   C2B 6094   9.901   3.994   8.469  0.1207  0.0094 -0.1766
  381loPI   C3B 6095   9.827   4.090   8.016  0.3184  0.1929 -0.1413
  381loPI   C4B 6096   9.932   3.945   7.513 -0.4908  0.0632  0.0599
  382loPI    C1 6097  13.380  12.930  10.579  0.0534  0.2182  0.0371
  382loPI    C2 6098  13.047  12.869  10.791  0.1209 -0.1139  0.0528
  382loPI    C3 6099  13.405  12.814  10.961  0.1776 -0.1832 -0.0874
  382loPI   PO4 6100  13.305  12.812  10.351  0.0894 -0.0934  0.2049
  382loPI   GL1 6101  13.066  12.787   9.953 -0.2636  0.0364 -0.1715
  382loPI   GL2 6102  13.270  12.608   9.774 -0.1294 -0.0849  0.0011
  382loPI   C1A 6103  12.946  12.916   9.561 -0.0407  0.2025  0.0264
  382loPI   C2A 6104  13.041  12.945   9.126 -0.0900  0.1321  0.1871
  382loPI   C3A 6105  13.222  12.771   8.747  0.3589 -0.1339 -0.1237
  382loPI   C4A 6106  13.239  12.797   8.285  0.0422  0.1059 -0.0400
  382loPI   C5A 6107  13.356  12.919   7.902 -0.0104  0.2556  0.1694
  382loPI   C6A 6108  13.768  13.078   7.609 -0.2549  0.1409 -0.1173
  382loPI   C1B 6109  13.330  12.420   9.420 -0.0139 -0.1416 -0.1107
  382loPI   C2B 6110  13.584  12.408   9.031  0.4618 -0.1214 -0.1060
  382loPI   C3B 6111  13.532  12.444   8.577  0.0779 -0.0616  0.0085
  382loPI   C4B 6112  13.522  12.322   8.179 -0.2189  0.1399  0.1884
  383loPI    C1 6113   9.384   3.932  10.191  0.1931 -0.0481  0.1054
  383loPI    C2 6114   9.192   4.217   9.987  0.4004 -0.0224 -0.0564
  383loPI    C3 6115   9.265   4.266  10.377  0.0327 -0.0568  0.0206
  383loPI   PO4 6116   9.503   3.796   9.892  0.1930 -0.0438 -0.6131
  383loPI   GL1 6117   9.236   3.787   9.505  0.2811  0.0427  0.0920
  383loPI   GL2 6118   9.503   4.152   9.394  0.0133 -0.0942 -0.1753
  383loPI   C1A 6119   9.250   3.607   9.028 -0.0754 -0.2420 -0.1043
  383loPI   C2A 6120   9.476   3.189   8.898  0.0481  0.0227  0.2266
  383loPI   C3A 6121   9.535   3.019   8.454 -0.0583  0.2451 -0.1638
  383loPI   C4A 6122   9.470   3.182   8.110  0.2260  0.3761  0.2459
  383loPI   C5A 6123   9.374   3.226   7.670  0.2695 -0.3616  0.0290
  383loPI   C6A 6124   9.096   2.981   7.430  0.2497  0.3994  0.0164
  383loPI   C1B 6125   9.618   4.059   9.015 -0.0927 -0.2605 -0.3636
  383loPI   C2B 6126   9.409   3.985   8.606 -0.0007 -0.1329 -0.1097
  383loPI   C3B 6127   9.597   3.632   8.246 -0.0164 -0.0571  0.0205
  383loPI   C4B 6128   9.598   3.694   7.750  0.1717  0.0117 -0.4688
  384loPI    C1 6129  15.248   0.760  10.432  0.0812  0.2487 -0.1285
  384loPI    C2 6130  15.013   0.859  10.741 -0.1038  0.0858 -0.2148
  384loPI    C3 6131  15.185   1.146  10.520 -0.1249  0.2047 -0.0785
  384loPI   PO4 6132  15.115   0.471  10.385 -0.0238 -0.2653  0.1251
  384loPI   GL1 6133  14.974   0.229  10.005  0.0041 -0.2377  0.0347
  384loPI   GL2 6134  14.833   0.005   9.802  0.2357 -0.0892  0.0803
  384loPI   C1A 6135  15.215   0.301   9.630  0.3841 -0.1361  0.1467
  384loPI   C2A 6136  15.121   0.461   9.144  0.2953  0.1450  0.0486
  384loPI   C3A 6137  14.921   0.228   8.822  0.3228 -0.0803  0.0066
  384loPI   C4A 6138  14.891  -0.030   8.334 -0.1052 -0.1942 -0.0775
  384loPI   C5A 6139  14.998   0.009   7.848  0.0145 -0.1447  0.1677
  384loPI   C6A 6140  15.322   0.178   7.534 -0.1924  0.1419  0.4816
  384loPI   C1B 6141  14.469   0.307   9.781 -0.0440  0.0582  0.4911
  384loPI   C2B 6142  14.056   0.395   9.583 -0.1104 -0.1975  0.0488
  384loPI   C3B 6143  13.833   0.263   9.132 -0.1331 -0.0412  0.0511
  384loPI   C4B 6144  13.943   0.366   8.766  0.1287 -0.3214  0.1951
  385loPI    C1 6145  13.654   0.467  10.526 -0.0517 -0.1403 -0.1408
  385loPI    C2 6146  13.540   0.812  10.693  0.0504 -0.0773 -0.2006
  385loPI    C3 6147  13.270   0.527  10.620 -0.0105 -0.0680 -0.0167
  385loPI   PO4 6148  13.801   0.505  10.234 -0.2948  0.0123  0.0940
  385loPI   GL1 6149  13.790   0.700   9.884  0.1658  0.3490 -0.1349
  385loPI   GL2 6150  13.914   0.936   9.815  0.0084  0.1200  0.1948
  385loPI   C1A 6151  13.595   0.588   9.459  0.0556  0.1968  0.0487
  385loPI   C2A 6152  13.466   0.636   8.981 -0.1075 -0.2528  0.1421
  385loPI   C3A 6153  13.490   0.195   8.746 -0.0586  0.1969 -0.2995
  385loPI   C4A 6154  13.673  -0.141   8.543  0.1603 -0.2363  0.1330
  385loPI   C5A 6155  13.857  -0.211   8.269  0.0595 -0.2611 -0.1524
  385loPI   C6A 6156  13.685  -0.331   7.892  0.1912  0.0062 -0.0010
  385loPI   C1B 6157  14.003   0.898   9.378 -0.0143 -0.3411  0.1836
  385loPI   C2B 6158  14.191   0.694   9.092 -0.3945 -0.1996  0.0534
  385loPI   C3B 6159  14.399   0.563   8.698 -0.2320 -0.1877 -0.3505
  385loPI   C4B 6160  14.678   0.440   8.460 -0.1582 -0.1641 -0.0006
  386loPI    C1 6161   6.617   8.995   9.793 -0.2515  0.0923 -0.3339
  386loPI    C2 6162   6.252   9.157   9.782 -0.1913  0.2494 -0.0860
  386loPI    C3 6163   6.338   8.876  10.054 -0.1552  0.1417 -0.2077
  386loPI   PO4 6164   6.711   8.851   9.608  0.2433 -0.2812 -0.0899
  386loPI   GL1 6165   6.802   8.742   9.225 -0.1740  0.3458  0.2549
  386loPI   GL2 6166   7.025   8.530   9.096  0.0759 -0.1039 -0.1001
  386loPI   C1A 6167   6.955   9.005   8.915  0.1061 -0.3039 -0.1030
  386loPI   C2A 6168   6.831   9.131   8.477  0.1185 -0.1892  0.1080
  386loPI   C3A 6169   6.887   9.093   8.014  0.4806 -0.0176 -0.1011
  386loPI   C4A 6170   6.624   9.240   7.634 -0.4040 -0.3301 -0.0005
  386loPI   C5A 6171   6.259   9.457   7.495  0.3027  0.0657 -0.2061
  386loPI   C6A 6172   5.953   9.412   7.170 -0.0381 -0.1003 -0.1459
  386loPI   C1B 6173   7.188   8.559   8.749  0.0797  0.3478 -0.2506
  386loPI   C2B 6174   7.201   8.630   8.288 -0.0578  0.0701 -0.2508
  386loPI   C3B 6175   7.269   8.827   7.812 -0.1263  0.2005  0.0202
  386loPI   C4B 6176   7.480   8.789   7.432  0.0766  0.1482 -0.0090
  387loPI    C1 6177  16.510   1.118  10.648  0.0815 -0.2945 -0.0431
  387loPI    C2 6178  16.305   0.899  10.912  0.0454  0.2717  0.4167
  387loPI    C3 6179  16.135   1.218  10.741  0.2066  0.1465  0.0112
  387loPI   PO4 6180  16.587   0.955  10.428 -0.0043 -0.3338 -0.0344
  387loPI   GL1 6181  16.800   1.083  10.164  0.3511 -0.0409 -0.0285
  387loPI   GL2 6182  16.977   0.827  10.175  0.0961  0.2864 -0.1457
  387loPI   C1A 6183  16.994   1.241   9.839 -0.0242 -0.2609  0.1023
  387loPI   C2A 6184  17.135   1.441   9.529 -0.0277  0.0063  0.1591
  387loPI   C3A 6185  17.252   1.680   9.108  0.0119  0.0935  0.1693
  387loPI   C4A 6186  17.149   1.756   8.752  0.0129  0.0214  0.3047
  387loPI   C5A 6187  17.213   2.031   8.263 -0.0485  0.0306  0.3294
  387loPI   C6A 6188  17.206   2.081   7.834  0.2266 -0.1437 -0.1101
  387loPI   C1B 6189  16.789   0.806   9.685 -0.3432 -0.1942  0.1398
  387loPI   C2B 6190  16.707   1.143   9.413  0.1171  0.0426  0.1296
  387loPI   C3B 6191  16.748   1.502   9.177  0.3767  0.2936  0.1933
  387loPI   C4B 6192  16.574   1.727   8.804  0.0250 -0.1732  0.2005
  388loPI    C1 6193   4.766   5.822   9.500  0.2579  0.2288  0.3711
  388loPI    C2 6194   4.729   6.137   9.256 -0.0439  0.0114  0.1284
  388loPI    C3 6195   4.840   6.190   9.637  0.3105  0.3672 -0.0184
  388loPI   PO4 6196   4.570   5.678   9.239 -0.0693  0.0908  0.0557
  388loPI   GL1 6197   4.229   5.752   8.849 -0.0494 -0.0216 -0.0900
  388loPI   GL2 6198   4.319   5.446   8.788  0.1992 -0.0761 -0.2148
  388loPI   C1A 6199   4.152   5.829   8.464 -0.1840 -0.2887 -0.0432
  388loPI   C2A 6200   4.199   5.806   8.005  0.2153 -0.1282  0.1221
  388loPI   C3A 6201   4.417   6.085   7.712  0.3730  0.2602  0.0042
  388loPI   C4A 6202   4.530   6.196   7.295 -0.0116  0.2918 -0.0834
  388loPI   C5A 6203   4.336   6.399   7.040  0.0274 -0.0259  0.3160
  388loPI   C6A 6204   4.297   6.830   7.125 -0.2437  0.4281  0.1268
  388loPI   C1B 6205   4.543   5.437   8.397  0.1091 -0.0066  0.0504
  388loPI   C2B 6206   4.674   5.720   8.062  0.1228  0.1515 -0.0705
  388loPI   C3B 6207   4.639   5.529   7.650  0.0956  0.1889  0.1785
  388loPI   C4B 6208   4.562   5.433   7.236 -0.0573  0.0653 -0.0858
  389loPI    C1 6209   5.492  10.513  10.110  0.1436  0.0504 -0.0203
  389loPI    C2 6210   5.126  10.599  10.246  0.0666 -0.2205 -0.0507
  389loPI    C3 6211   5.448  10.705  10.458 -0.0125  0.3233 -0.1864
  389loPI   PO4 6212   5.475  10.739   9.933 -0.0299  0.3437  0.0387
  389loPI   GL1 6213   5.392  10.910   9.492  0.1296  0.2179 -0.1282
  389loPI   GL2 6214   5.467  10.575   9.368 -0.1447  0.2472 -0.1221
  389loPI   C1A 6215   5.454  10.942   9.036 -0.2230 -0.3786  0.0614
  389loPI   C2A 6216   5.437  10.918   8.546  0.2170 -0.1095  0.1351
  389loPI   C3A 6217   5.457  11.198   8.161 -0.2697  0.0538 -0.3937
  389loPI   C4A 6218   5.722  11.262   7.731  0.1571  0.3437 -0.0117
  389loPI   C5A 6219   5.957  11.179   7.334 -0.0817 -0.0212 -0.1185
  389loPI   C6A 6220   6.086  11.099   6.913  0.1294 -0.4624  0.0072
  389loPI   C1B 6221   5.275  10.541   8.848  0.0199 -0.2720 -0.0007
  389loPI   C2B 6222   5.458  10.265   8.522 -0.1309  0.2029  0.1110
  389loPI   C3B 6223   5.590  10.415   8.166  0.1438 -0.0553  0.1016
  389loPI   C4B 6224   5.804  10.310   7.809  0.2333  0.2883 -0.1791
  390loPI    C1 6225   9.253   2.182  10.060  0.0536 -0.4390 -0.0202
  390loPI    C2 6226   8.944   2.121  10.307  0.0381  0.1598  0.1237
  390loPI    C3 6227   9.317   2.116  10.449  0.0858 -0.2937 -0.0005
  390loPI   PO4 6228   9.034   2.116   9.824  0.4490 -0.0674  0.0956
  390loPI   GL1 6229   9.136   2.462   9.558  0.2592  0.4511  0.1349
  390loPI   GL2 6230   9.288   2.298   9.357 -0.2015  0.0317  0.1437
  390loPI   C1A 6231   8.954   2.636   9.115 -0.0807  0.0099  0.2078
  390loPI   C2A 6232   9.032   2.812   8.718  0.0276 -0.1802  0.0053
  390loPI   C3A 6233   9.044   2.910   8.242  0.0741 -0.0050 -0.1981
  390loPI   C4A 6234   9.183   2.760   7.836 -0.1432 -0.0787 -0.1595
  390loPI   C5A 6235   9.367   2.538   7.437 -0.1151 -0.1446  0.0002
  390loPI   C6A 6236   9.801   2.509   7.268  0.1200 -0.0121 -0.0790
  390loPI   C1B 6237   9.114   2.200   8.942 -0.2418 -0.3984  0.0844
  390loPI   C2B 6238   9.161   2.375   8.505 -0.1506  0.0946  0.1375
  390loPI   C3B 6239   9.194   2.294   8.082 -0.2103 -0.2209 -0.0163
  390loPI   C4B 6240   9.550   2.322   7.850  0.1400 -0.0942  0.1149
  391loPI    C1 6241   5.378   0.923   9.716 -0.1378  0.0915 -0.1284
  391loPI    C2 6242   5.393   1.315   9.791  0.2177  0.0897 -0.1726
  391loPI    C3 6243   5.331   1.057  10.090  0.2003  0.1666 -0.1095
  391loPI   PO4 6244   5.335   0.943   9.402 -0.0637 -0.0163 -0.0333
  391loPI   GL1 6245   5.611   1.003   9.102  0.2326  0.2876 -0.2517
  391loPI   GL2 6246   5.956   0.885   9.042 -0.1305 -0.2717  0.2952
  391loPI   C1A 6247   5.497   1.214   8.747  0.0127  0.2057 -0.4294
  391loPI   C2A 6248   5.335   1.241   8.566 -0.1838  0.0138  0.0484
  391loPI   C3A 6249   5.243   0.965   8.248 -0.0828 -0.1124  0.0476
  391loPI   C4A 6250   5.260   0.797   7.861 -0.3342 -0.2936 -0.1721
  391loPI   C5A 6251   5.322   0.873   7.480  0.1276 -0.1808  0.2223
  391loPI   C6A 6252   5.561   1.200   7.209 -0.2806  0.3073  0.0927
  391loPI   C1B 6253   5.928   0.861   8.565 -0.0562  0.2052 -0.0689
  391loPI   C2B 6254   5.831   1.156   8.184  0.0013  0.0178 -0.3897
  391loPI   C3B 6255   5.557   1.187   7.944 -0.3613 -0.1402  0.0182
  391loPI   C4B 6256   5.778   1.403   7.652 -0.0265 -0.2196 -0.0159
  392loPI    C1 6257  18.844   3.126  10.184  0.0571 -0.0965 -0.2148
  392loPI    C2 6258  19.158   2.899  10.284 -0.0705 -0.2052 -0.0567
  392loPI    C3 6259  19.109   3.259  10.453 -0.0618 -0.2126 -0.0383
  392loPI   PO4 6260  18.870   3.057   9.905  0.2144  0.2628  0.0435
  392loPI   GL1 6261  18.950   3.300   9.502  0.0294 -0.1273  0.0034
  392loPI   GL2 6262  19.010   3.092   9.358  0.0179  0.0618 -0.1090
  392loPI   C1A 6263  18.877   3.533   9.030 -0.1313  0.3430  0.2420
  392loPI   C2A 6264  18.808   3.518   8.655 -0.0368  0.0861  0.2866
  392loPI   C3A 6265  18.627   3.507   8.259  0.2170 -0.0397 -0.1603
  392loPI   C4A 6266  18.281   3.790   7.983 -0.2556  0.1778  0.0130
  392loPI   C5A 6267  18.146   3.708   7.514  0.4977 -0.0041  0.0197
  392loPI   C6A 6268  18.315   3.830   7.134  0.0259  0.0721  0.1255
  392loPI   C1B 6269  18.551   3.171   9.102  0.0593  0.1687  0.2952
  392loPI   C2B 6270  18.439   3.164   8.585 -0.1468 -0.3391  0.2946
  392loPI   C3B 6271  18.458   2.891   8.163 -0.0268  0.3026 -0.0157
  392loPI   C4B 6272  18.597   2.470   7.986  0.4346 -0.4888  0.1749
  393loPI    C1 6273  11.360  18.243   9.972 -0.2061 -0.0949 -0.0187
  393loPI    C2 6274  11.651  18.391  10.202 -0.1150  0.0183 -0.2052
  393loPI    C3 6275  11.428  18.086  10.334 -0.0171  0.0351  0.0029
  393loPI   PO4 6276  11.458  18.304   9.772  0.1449 -0.0524  0.1251
  393loPI   GL1 6277  11.627  18.746   9.579  0.2969  0.0099 -0.1271
  393loPI   GL2 6278  11.618  18.497   9.306  0.1446  0.1884 -0.1029
  393loPI   C1A 6279  11.588  19.001   9.292 -0.2060 -0.0870  0.4935
  393loPI   C2A 6280  11.464  19.205   8.947 -0.1164 -0.1856 -0.0634
  393loPI   C3A 6281  11.386  19.497   8.589 -0.1346  0.1727 -0.1778
  393loPI   C4A 6282  11.494  19.621   8.189 -0.0290 -0.0402 -0.2763
  393loPI   C5A 6283  11.582  19.749   7.859 -0.1746  0.1046 -0.1530
  393loPI   C6A 6284  11.660  20.134   7.786 -0.2359 -0.2608  0.0072
  393loPI   C1B 6285  11.723  18.577   8.938 -0.2900  0.1623  0.0952
  393loPI   C2B 6286  11.743  18.876   8.583 -0.0566  0.1574 -0.1783
  393loPI   C3B 6287  11.712  19.088   8.284  0.1944  0.0975  0.1100
  393loPI   C4B 6288  11.787  19.279   7.878  0.3402 -0.4080  0.1427
  394loPI    C1 6289  10.271  10.893  10.575 -0.0591 -0.0749  0.2684
  394loPI    C2 6290  10.259  10.494  10.555 -0.3563 -0.0663  0.2214
  394loPI    C3 6291  10.161  10.680  10.895 -0.0484 -0.0369  0.2974
  394loPI   PO4 6292  10.277  10.918  10.194 -0.1693 -0.1699  0.0696
  394loPI   GL1 6293  10.315  10.918   9.769  0.1538  0.0126  0.0904
  394loPI   GL2 6294  10.149  10.652   9.617  0.0229  0.0601 -0.2138
  394loPI   C1A 6295  10.238  11.039   9.380 -0.0270  0.3224 -0.1310
  394loPI   C2A 6296  10.491  11.206   8.987 -0.0167  0.3529  0.0707
  394loPI   C3A 6297  10.738  11.250   8.685  0.1917  0.0108 -0.1707
  394loPI   C4A 6298  10.861  11.405   8.177  0.1743 -0.1197  0.0679
  394loPI   C5A 6299  10.755  11.340   7.725  0.1254  0.2158  0.1799
  394loPI   C6A 6300  10.666  11.555   7.407  0.2680 -0.0413  0.1082
  394loPI   C1B 6301  10.359  10.530   9.210  0.1672  0.1879 -0.1387
  394loPI   C2B 6302  10.264  10.818   8.823 -0.0520 -0.0147 -0.2016
  394loPI   C3B 6303  10.302  11.063   8.500  0.1312 -0.1755 -0.2402
  394loPI   C4B 6304  10.289  11.175   8.085 -0.1539  0.0479  0.2242
  395loPI    C1 6305  18.675   0.256   9.751  0.1086  0.0681  0.1675
  395loPI    C2 6306  18.807   0.172  10.119  0.1676 -0.0538  0.1190
  395loPI    C3 6307  18.913  -0.060   9.811  0.1927  0.1001  0.0103
  395loPI   PO4 6308  18.686   0.508   9.775  0.1482  0.0419  0.1265
  395loPI   GL1 6309  18.484   0.831   9.468 -0.0652 -0.1151 -0.1257
  395loPI   GL2 6310  18.676   0.984   9.307 -0.0259  0.1010 -0.2345
  395loPI   C1A 6311  18.247   0.869   9.060  0.2819 -0.0288 -0.3271
  395loPI   C2A 6312  17.947   1.289   8.858 -0.0039  0.3246  0.2376
  395loPI   C3A 6313  17.930   1.397   8.484  0.1618 -0.0053  0.0551
  395loPI   C4A 6314  17.851   1.041   8.216 -0.1528 -0.0943  0.2857
  395loPI   C5A 6315  17.530   0.712   8.134 -0.1088 -0.1009 -0.1878
  395loPI   C6A 6316  17.245   0.321   8.038  0.1135 -0.2311 -0.0794
  395loPI   C1B 6317  18.763   0.892   8.895 -0.1130  0.4081  0.2266
  395loPI   C2B 6318  18.783   0.873   8.457 -0.1842  0.1089 -0.0312
  395loPI   C3B 6319  18.386   0.983   8.247  0.0350  0.1579  0.0273
  395loPI   C4B 6320  18.336   1.458   8.165 -0.1611  0.0970 -0.0927
  396loPI    C1 6321   7.710  11.987  10.382  0.1252 -0.0478  0.1749
  396loPI    C2 6322   7.980  11.834  10.130 -0.1833 -0.3652  0.0288
  396loPI    C3 6323   8.062  11.856  10.522  0.2696  0.0620 -0.0794
  396loPI   PO4 6324   7.548  12.060  10.123 -0.2306  0.1424 -0.2407
  396loPI   GL1 6325   7.284  12.075   9.749  0.0734 -0.2829  0.0446
  396loPI   GL2 6326   7.170  11.771   9.688  0.3094  0.1495 -0.0450
  396loPI   C1A 6327   7.028  12.201   9.415 -0.0146 -0.0957 -0.2152
  396loPI   C2A 6328   7.104  12.497   9.118  0.1140  0.1273 -0.2805
  396loPI   C3A 6329   7.233  12.788   8.852 -0.2247  0.0295  0.1286
  396loPI   C4A 6330   7.373  12.848   8.431  0.0373 -0.3594  0.2348
  396loPI   C5A 6331   7.322  12.561   8.065 -0.0918  0.4763 -0.2110
  396loPI   C6A 6332   7.101  12.308   7.789 -0.0544  0.1072  0.0792
  396loPI   C1B 6333   7.501  11.753   9.317 -0.0753  0.1103  0.1659
  396loPI   C2B 6334   7.806  11.992   9.086 -0.1703  0.3185  0.0524
  396loPI   C3B 6335   8.039  12.290   8.818  0.0056 -0.0121  0.2281
  396loPI   C4B 6336   8.523  12.235   8.641  0.4935  0.3876  0.2610
  397loPI    C1 6337  10.181   6.331   9.597  0.0114 -0.0209  0.1324
  397loPI    C2 6338  10.180   6.650   9.356  0.1035 -0.1754 -0.0759
  397loPI    C3 6339  10.459   6.616   9.640  0.2264 -0.1745 -0.1954
  397loPI   PO4 6340  10.137   6.123   9.463 -0.1982 -0.0200  0.2649
  397loPI   GL1 6341  10.429   5.802   9.217 -0.0293  0.0227 -0.3227
  397loPI   GL2 6342  10.360   5.644   8.989  0.1357  0.2478 -0.3701
  397loPI   C1A 6343  10.675   5.994   8.920 -0.4822  0.0460  0.1948
  397loPI   C2A 6344  10.749   5.870   8.439 -0.0968 -0.0993 -0.2149
  397loPI   C3A 6345  10.573   5.618   8.181 -0.4878  0.1834  0.2992
  397loPI   C4A 6346  10.519   5.250   7.969 -0.0192  0.3327  0.0287
  397loPI   C5A 6347  10.406   4.954   7.712 -0.0943  0.0740  0.3094
  397loPI   C6A 6348  10.325   4.651   7.381  0.1239 -0.2331 -0.1961
  397loPI   C1B 6349  10.389   5.436   8.620  0.0065 -0.1436  0.1580
  397loPI   C2B 6350  10.203   5.197   8.388 -0.1297  0.0484 -0.0894
  397loPI   C3B 6351  10.073   5.036   8.093 -0.0573  0.2970  0.0033
  397loPI   C4B 6352   9.896   5.098   7.687 -0.6174  0.1373 -0.3477
  398loPI    C1 6353  16.964  14.812   9.972 -0.0504  0.2753  0.0082
  398loPI    C2 6354  16.641  15.031   9.884 -0.2834 -0.1121 -0.1291
  398loPI    C3 6355  16.617  14.740  10.157  0.0525  0.1015  0.1364
  398loPI   PO4 6356  17.103  15.181   9.951  0.0349 -0.0970 -0.1354
  398loPI   GL1 6357  17.126  15.401   9.662  0.1675 -0.2701  0.5190
  398loPI   GL2 6358  16.882  15.678   9.680  0.0153 -0.1477  0.2329
  398loPI   C1A 6359  17.054  15.402   9.163  0.1104 -0.1299  0.1156
  398loPI   C2A 6360  17.147  15.670   8.724 -0.2726  0.0204 -0.0897
  398loPI   C3A 6361  16.948  15.460   8.255 -0.1069 -0.1684 -0.0867
  398loPI   C4A 6362  16.739  15.585   7.860  0.1010  0.1028  0.2702
  398loPI   C5A 6363  16.485  15.774   7.653  0.3170 -0.0839  0.1356
  398loPI   C6A 6364  16.333  16.188   7.628  0.1324  0.1508  0.1406
  398loPI   C1B 6365  16.587  15.386   9.462 -0.0517 -0.0996  0.0748
  398loPI   C2B 6366  16.476  15.040   9.357  0.3103  0.0280 -0.0045
  398loPI   C3B 6367  16.555  14.905   8.965 -0.1576 -0.0503  0.1331
  398loPI   C4B 6368  16.729  14.579   8.730  0.1956  0.1366 -0.0900
  399loPI    C1 6369  17.978  11.810  10.521 -0.2136  0.1178 -0.2738
  399loPI    C2 6370  17.648  11.708  10.723  0.1295 -0.0761  0.2062
  399loPI    C3 6371  17.781  12.085  10.735 -0.0753  0.0049  0.0033
  399loPI   PO4 6372  17.905  11.819  10.180 -0.0051  0.1893  0.1282
  399loPI   GL1 6373  18.018  11.823   9.674 -0.0833  0.1776  0.0117
  399loPI   GL2 6374  18.159  12.033   9.570 -0.1752  0.2272  0.1216
  399loPI   C1A 6375  18.002  11.494   9.325 -0.1378  0.1552  0.0876
  399loPI   C2A 6376  17.911  11.125   9.036 -0.2911 -0.1709 -0.1750
  399loPI   C3A 6377  18.091  10.994   8.639 -0.0271  0.4170  0.0399
  399loPI   C4A 6378  18.211  10.868   8.354  0.1424  0.0643 -0.0628
  399loPI   C5A 6379  18.373  10.844   8.006 -0.1183  0.1830  0.4968
  399loPI   C6A 6380  18.447  10.951   7.568 -0.0602 -0.2524  0.1261
  399loPI   C1B 6381  18.297  11.876   9.181  0.0093  0.0820 -0.3216
  399loPI   C2B 6382  18.232  11.546   8.856  0.2954 -0.2764 -0.0354
  399loPI   C3B 6383  18.262  11.386   8.378 -0.1844 -0.1462 -0.2350
  399loPI   C4B 6384  18.330  11.525   8.003 -0.0848 -0.2310 -0.2446
  400loPI    C1 6385   8.940   9.873   9.739  0.1367  0.2595  0.0369
  400loPI    C2 6386   9.222   9.759   9.999 -0.1277  0.1076  0.2618
  400loPI    C3 6387   9.104  10.141   9.987  0.1368  0.1871  0.1155
  400loPI   PO4 6388   8.981   9.493   9.585 -0.1507 -0.0193  0.1270
  400loPI   GL1 6389   9.111   9.286   9.208  0.0264  0.1913  0.0222
  400loPI   GL2 6390   8.969   9.112   9.124  0.2467 -0.1421  0.0496
  400loPI   C1A 6391   9.253   9.449   8.946  0.3620  0.1093  0.2086
  400loPI   C2A 6392   9.421   9.523   8.503 -0.1146 -0.3128 -0.1006
  400loPI   C3A 6393   9.577   9.886   8.197 -0.3721 -0.2293 -0.2354
  400loPI   C4A 6394  10.006  10.120   8.036 -0.1553 -0.0106  0.0071
  400loPI   C5A 6395  10.100  10.189   7.536 -0.1216 -0.0053  0.0183
  400loPI   C6A 6396  10.374  10.487   7.419 -0.2199  0.0091  0.2976
  400loPI   C1B 6397   9.165   9.092   8.651 -0.2907  0.2497  0.0146
  400loPI   C2B 6398   9.296   9.114   8.151 -0.0663 -0.2072 -0.0853
  400loPI   C3B 6399   9.153   9.254   7.712 -0.4151  0.1437  0.0144
  400loPI   C4B 6400   8.913   9.307   7.361  0.0238  0.0536  0.1117
  401loPI    C1 6401   3.889  14.858   9.542  0.1295  0.1938 -0.1864
  401loPI    C2 6402   3.818  15.023   9.900 -0.2855 -0.0458 -0.1516
  401loPI    C3 6403   4.099  14.741   9.862  0.0814  0.3054 -0.1132
  401loPI   PO4 6404   3.876  14.981   9.395 -0.2372  0.1336  0.0996
  401loPI   GL1 6405   3.641  15.051   9.092  0.1998 -0.1490 -0.3239
  401loPI   GL2 6406   3.953  15.075   8.884 -0.0869  0.4764 -0.0146
  401loPI   C1A 6407   3.569  15.316   8.662 -0.3007  0.2504  0.0472
  401loPI   C2A 6408   3.421  15.176   8.251  0.0870  0.0430  0.1358
  401loPI   C3A 6409   3.261  15.082   7.796  0.4516 -0.0892  0.0528
  401loPI   C4A 6410   2.948  14.872   7.539 -0.3495 -0.0463  0.0071
  401loPI   C5A 6411   2.600  14.502   7.293 -0.0910  0.4541  0.0753
  401loPI   C6A 6412   2.446  14.171   7.040  0.2980  0.6638 -0.1284
  401loPI   C1B 6413   4.003  14.982   8.397  0.0775  0.3161  0.1056
  401loPI   C2B 6414   3.983  14.750   8.017 -0.3178  0.0898 -0.1687
  401loPI   C3B 6415   4.222  14.695   7.711 -0.0837 -0.0600 -0.0500
  401loPI   C4B 6416   4.469  14.587   7.239 -0.3378  0.1255  0.2310
  402loPI    C1 6417   2.584   4.000   9.333 -0.0172  0.0384 -0.0065
  402loPI    C2 6418   2.665   4.345   9.148  0.1273  0.1074  0.1816
  402loPI    C3 6419   2.696   4.320   9.546 -0.4657  0.0442  0.2328
  402loPI   PO4 6420   2.632   3.812   9.136  0.0729 -0.0888  0.0203
  402loPI   GL1 6421   2.570   3.797   8.684  0.2356 -0.1079 -0.0310
  402loPI   GL2 6422   2.874   4.023   8.803 -0.0004 -0.3570  0.0757
  402loPI   C1A 6423   2.532   3.723   8.227  0.1956 -0.1093  0.2709
  402loPI   C2A 6424   2.545   3.576   7.807 -0.0753  0.1655  0.1487
  402loPI   C3A 6425   2.709   3.510   7.334  0.1355  0.2586  0.2048
  402loPI   C4A 6426   2.839   3.098   7.125 -0.1025 -0.1239  0.0397
  402loPI   C5A 6427   3.110   2.711   7.327 -0.1142  0.1233 -0.1899
  402loPI   C6A 6428   3.226   2.408   7.613  0.3583  0.4633  0.0645
  402loPI   C1B 6429   3.056   3.776   8.510 -0.4410 -0.1413  0.2369
  402loPI   C2B 6430   3.003   3.762   8.079 -0.1054  0.0692 -0.1561
  402loPI   C3B 6431   3.034   3.718   7.690 -0.3254  0.0413  0.0007
  402loPI   C4B 6432   3.221   3.835   7.344 -0.2643 -0.0752 -0.0534
  403loPI    C1 6433  16.489  14.411  10.552 -0.0423  0.1446  0.0107
  403loPI    C2 6434  16.472  14.701  10.827 -0.1672  0.0943  0.0570
  403loPI    C3 6435  16.581  14.331  10.933 -0.2414  0.0687  0.0442
  403loPI   PO4 6436  16.221  14.500  10.402 -0.2645 -0.0566 -0.1212
  403loPI   GL1 6437  16.056  14.779  10.000 -0.0293 -0.0218 -0.0288
  403loPI   GL2 6438  16.186  15.114   9.956  0.0896  0.0083  0.0699
  403loPI   C1A 6439  16.002  14.871   9.510  0.1336  0.2305 -0.2290
  403loPI   C2A 6440  16.026  14.954   9.112  0.3249  0.4566  0.4260
  403loPI   C3A 6441  16.113  15.113   8.643  0.0018  0.0069 -0.0894
  403loPI   C4A 6442  16.108  15.056   8.204  0.1191  0.1212 -0.2051
  403loPI   C5A 6443  15.950  14.739   7.945 -0.2651  0.0852  0.0577
  403loPI   C6A 6444  15.560  14.519   7.760 -0.1233  0.0145  0.0984
  403loPI   C1B 6445  16.090  15.347   9.478 -0.1211  0.2502 -0.2821
  403loPI   C2B 6446  16.229  15.386   9.048  0.1113  0.1899  0.0446
  403loPI   C3B 6447  16.641  15.482   8.958 -0.0125  0.3293 -0.0296
  403loPI   C4B 6448  17.011  15.207   8.718  0.1159 -0.3506  0.0442
  404loPI    C1 6449  17.323   9.177   9.943  0.2089 -0.0071  0.2262
  404loPI    C2 6450  17.252   9.388  10.276  0.0700  0.0916  0.1352
  404loPI    C3 6451  16.956   9.180  10.104  0.0993  0.1771 -0.0209
  404loPI   PO4 6452  17.548   9.384   9.880  0.3974  0.0474 -0.3426
  404loPI   GL1 6453  17.881   9.370   9.569  0.0244  0.0571  0.2240
  404loPI   GL2 6454  18.136   9.250   9.411  0.0837  0.3381 -0.2089
  404loPI   C1A 6455  17.817   8.985   9.214  0.2597 -0.1166  0.1337
  404loPI   C2A 6456  17.895   9.017   8.824 -0.0618  0.0932  0.4486
  404loPI   C3A 6457  17.876   9.152   8.409 -0.1214 -0.0265  0.1446
  404loPI   C4A 6458  17.684   9.403   7.965 -0.1306 -0.0729 -0.0678
  404loPI   C5A 6459  17.948   9.486   7.654  0.0073 -0.1505 -0.1424
  404loPI   C6A 6460  18.096   9.521   7.256  0.1718  0.1121  0.0976
  404loPI   C1B 6461  18.148   9.437   9.076 -0.0654 -0.3189  0.0650
  404loPI   C2B 6462  17.719   9.484   8.810  0.0638  0.1614  0.3351
  404loPI   C3B 6463  17.455   9.717   8.538 -0.0220  0.0065 -0.4017
  404loPI   C4B 6464  17.138   9.572   8.372 -0.1623  0.0019  0.2234
  405loPI    C1 6465  10.499   3.440  10.133  0.1565 -0.1007 -0.2064
  405loPI    C2 6466  10.833   3.272  10.274  0.0105 -0.0638  0.1966
  405loPI    C3 6467  10.487   3.073  10.292 -0.0349 -0.0041  0.0069
  405loPI   PO4 6468  10.596   3.524   9.856  0.1356 -0.0788  0.0865
  405loPI   GL1 6469  10.580   3.399   9.389  0.0092  0.1989  0.0041
  405loPI   GL2 6470  10.266   3.548   9.334  0.0948 -0.2804  0.0754
  405loPI   C1A 6471  10.461   3.203   9.048  0.0685 -0.4582  0.3712
  405loPI   C2A 6472  10.455   3.196   8.684  0.3684  0.0923 -0.2163
  405loPI   C3A 6473  10.467   3.119   8.331 -0.1693 -0.0973  0.0209
  405loPI   C4A 6474  10.349   3.110   7.954  0.1269 -0.0530 -0.0782
  405loPI   C5A 6475  10.237   2.831   7.784 -0.3559  0.1863  0.1311
  405loPI   C6A 6476   9.996   2.470   7.669  0.0901  0.0595  0.0745
  405loPI   C1B 6477  10.235   3.622   8.816 -0.0875  0.0051  0.3479
  405loPI   C2B 6478  10.111   3.566   8.362  0.6056  0.0582 -0.0061
  405loPI   C3B 6479  10.268   3.649   8.058 -0.0283  0.2536  0.2844
  405loPI   C4B 6480  10.340   3.631   7.725  0.0896 -0.1955 -0.4976
  406loPI    C1 6481  16.938   6.422   9.960 -0.0831  0.2497 -0.0069
  406loPI    C2 6482  17.242   6.375  10.216 -0.0544  0.0040 -0.0832
  406loPI    C3 6483  16.980   6.078  10.161 -0.2176  0.1563 -0.1367
  406loPI   PO4 6484  17.009   6.729   9.872 -0.2133  0.1895 -0.0992
  406loPI   GL1 6485  17.075   6.710   9.403  0.3120  0.4977 -0.1394
  406loPI   GL2 6486  17.131   6.321   9.540  0.1191  0.4330  0.2568
  406loPI   C1A 6487  17.107   6.762   9.032  0.0451  0.0385 -0.0706
  406loPI   C2A 6488  16.933   6.590   8.679  0.0652  0.2159 -0.2054
  406loPI   C3A 6489  16.799   6.788   8.335 -0.0581 -0.1781 -0.0532
  406loPI   C4A 6490  16.571   6.887   7.998  0.0915 -0.0552 -0.1091
  406loPI   C5A 6491  16.828   6.927   7.648  0.2360 -0.0536 -0.0142
  406loPI   C6A 6492  16.832   7.191   7.373 -0.2796 -0.0268  0.1417
  406loPI   C1B 6493  17.076   6.228   9.088  0.0645  0.1989  0.2146
  406loPI   C2B 6494  16.978   6.112   8.560 -0.0621  0.1344 -0.1041
  406loPI   C3B 6495  16.826   5.846   8.176  0.0167 -0.1750  0.0888
  406loPI   C4B 6496  16.706   5.599   7.726 -0.1514 -0.1875  0.0461
  407loPI    C1 6497  14.552  15.987  11.005  0.2752  0.1597 -0.0144
  407loPI    C2 6498  14.435  16.367  11.054  0.0612  0.0822  0.0884
  407loPI    C3 6499  14.669  16.193  11.328 -0.0808  0.0491  0.1896
  407loPI   PO4 6500  14.524  15.944  10.747  0.0083 -0.0804  0.2972
  407loPI   GL1 6501  14.629  15.656  10.392 -0.0460 -0.2092 -0.2200
  407loPI   GL2 6502  14.491  15.529  10.180 -0.0236  0.1398  0.0944
  407loPI   C1A 6503  14.714  15.881   9.847  0.0011  0.0424  0.1515
  407loPI   C2A 6504  14.808  16.039   9.459  0.0591 -0.1510 -0.0843
  407loPI   C3A 6505  14.471  16.110   9.129  0.3353 -0.0698 -0.2127
  407loPI   C4A 6506  14.409  16.347   8.749 -0.2499 -0.0662  0.1234
  407loPI   C5A 6507  14.733  16.666   8.517 -0.1196 -0.2780 -0.0734
  407loPI   C6A 6508  15.147  16.896   8.557  0.1599  0.0332  0.1870
  407loPI   C1B 6509  14.594  15.344   9.745 -0.0640 -0.5208 -0.0144
  407loPI   C2B 6510  14.570  15.552   9.460 -0.1196  0.0561  0.1428
  407loPI   C3B 6511  14.373  15.658   9.087  0.0808  0.1585  0.0538
  407loPI   C4B 6512  14.289  15.582   8.709 -0.2366 -0.0304 -0.0132
  408loPI    C1 6513   3.176  13.626   9.471 -0.0550  0.0922 -0.1593
  408loPI    C2 6514   3.312  13.800   9.805  0.4149 -0.3274 -0.1193
  408loPI    C3 6515   3.009  13.539   9.824  0.1457 -0.0198 -0.0901
  408loPI   PO4 6516   3.171  13.846   9.180  0.1626 -0.1418  0.0890
  408loPI   GL1 6517   3.225  13.713   8.787  0.0765 -0.5215 -0.4770
  408loPI   GL2 6518   3.035  13.503   8.671 -0.0042 -0.0117  0.1797
  408loPI   C1A 6519   3.628  13.442   8.692 -0.2241  0.2847 -0.0312
  408loPI   C2A 6520   3.776  13.120   8.335 -0.3249  0.0028 -0.5204
  408loPI   C3A 6521   3.638  12.996   8.031 -0.1534 -0.0923  0.1197
  408loPI   C4A 6522   3.630  12.682   7.732  0.0876  0.4050 -0.2078
  408loPI   C5A 6523   3.735  12.820   7.213  0.0693 -0.1988 -0.3513
  408loPI   C6A 6524   3.883  12.588   6.871 -0.2085 -0.0496 -0.1775
  408loPI   C1B 6525   3.311  13.424   8.288 -0.1817 -0.2673 -0.0991
  408loPI   C2B 6526   3.708  13.517   8.030  0.3720  0.3032 -0.0855
  408loPI   C3B 6527   4.024  13.291   7.897  0.1327 -0.1220  0.2239
  408loPI   C4B 6528   3.989  13.003   7.620  0.1153 -0.0044 -0.0062
  409loPI    C1 6529   2.076   4.456   9.469 -0.0235 -0.0975 -0.1076
  409loPI    C2 6530   1.927   4.266   9.787  0.0370 -0.3080 -0.2035
  409loPI    C3 6531   2.271   4.467   9.819 -0.1416 -0.0204 -0.0437
  409loPI   PO4 6532   1.868   4.607   9.374 -0.3357  0.3974 -0.0692
  409loPI   GL1 6533   1.536   4.440   9.059 -0.1755  0.2866  0.1889
  409loPI   GL2 6534   1.788   4.517   8.893 -0.2663  0.0818 -0.1836
  409loPI   C1A 6535   1.424   4.544   8.570 -0.0001  0.2822 -0.1280
  409loPI   C2A 6536   1.340   4.564   8.141  0.1012  0.1255  0.2776
  409loPI   C3A 6537   1.176   4.868   7.915  0.1883  0.1522  0.0252
  409loPI   C4A 6538   1.290   4.960   7.500 -0.2113  0.0478  0.1602
  409loPI   C5A 6539   1.440   5.157   7.187  0.2143 -0.0710  0.3272
  409loPI   C6A 6540   1.794   5.258   6.888 -0.2189 -0.2421 -0.2841
  409loPI   C1B 6541   1.913   4.538   8.449 -0.2447 -0.0132 -0.1198
  409loPI   C2B 6542   2.137   4.581   8.057 -0.0232  0.0970  0.1880
  409loPI   C3B 6543   2.393   4.764   8.004  0.0240  0.3671 -0.2814
  409loPI   C4B 6544   2.629   5.105   7.971 -0.2195  0.2626 -0.3239
  410loPI    C1 6545   9.511  12.640  10.565 -0.0638  0.1060  0.1098
  410loPI    C2 6546   9.716  12.432  10.839  0.1894 -0.2031 -0.3022
  410loPI    C3 6547   9.374  12.286  10.691  0.1773 -0.1517 -0.3249
  410loPI   PO4 6548   9.625  12.703  10.240 -0.1898  0.1447  0.2211
  410loPI   GL1 6549   9.660  12.521   9.769  0.0435  0.1708 -0.1933
  410loPI   GL2 6550  10.014  12.394   9.950 -0.2029 -0.0433  0.2081
  410loPI   C1A 6551   9.764  12.727   9.304  0.2001 -0.1071 -0.4977
  410loPI   C2A 6552   9.945  12.876   8.883  0.1793 -0.0333  0.0258
  410loPI   C3A 6553   9.855  12.996   8.531  0.1974  0.1249  0.0793
  410loPI   C4A 6554   9.922  13.031   8.111  0.1287  0.0876 -0.2234
  410loPI   C5A 6555   9.669  12.887   7.788  0.1100  0.0192 -0.2632
  410loPI   C6A 6556   9.426  12.617   7.572 -0.0703  0.1609 -0.2033
  410loPI   C1B 6557  10.096  12.363   9.511  0.2512 -0.3140 -0.2783
  410loPI   C2B 6558  10.251  12.388   9.078  0.0791 -0.1807 -0.0481
  410loPI   C3B 6559  10.245  12.330   8.723 -0.1741  0.1616  0.2169
  410loPI   C4B 6560  10.342  12.169   8.355  0.0729 -0.0063 -0.1491
  411loPI    C1 6561  16.786   4.528  10.878 -0.0251  0.1427  0.1044
  411loPI    C2 6562  17.181   4.551  10.823 -0.0333  0.0822  0.0187
  411loPI    C3 6563  16.985   4.853  10.998  0.0015  0.2549 -0.2355
  411loPI   PO4 6564  16.751   4.398  10.639  0.0360  0.0781 -0.1384
  411loPI   GL1 6565  16.833   4.117  10.364  0.0094 -0.2099  0.1227
  411loPI   GL2 6566  17.085   3.948  10.302  0.1104 -0.0978  0.1392
  411loPI   C1A 6567  16.632   4.245   9.973 -0.3618  0.0572 -0.1202
  411loPI   C2A 6568  16.523   4.186   9.536 -0.1501 -0.0555  0.1440
  411loPI   C3A 6569  16.323   4.031   9.166  0.0414 -0.0072  0.0430
  411loPI   C4A 6570  16.353   4.186   8.678  0.0776 -0.0796 -0.0342
  411loPI   C5A 6571  16.594   4.545   8.384 -0.0355 -0.0042 -0.0158
  411loPI   C6A 6572  17.116   4.424   8.187  0.0871  0.2465 -0.1354
  411loPI   C1B 6573  17.026   3.734   9.905 -0.5097  0.0764 -0.0014
  411loPI   C2B 6574  17.121   3.488   9.442 -0.0217  0.1107 -0.2136
  411loPI   C3B 6575  17.221   2.990   9.246 -0.0791  0.1358 -0.1821
  411loPI   C4B 6576  17.426   2.634   9.586  0.0327 -0.0368  0.1493
  412loPI    C1 6577   3.795  16.017   9.283 -0.0303 -0.0691 -0.2036
  412loPI    C2 6578   4.114  15.843   9.450 -0.0201 -0.1061 -0.2614
  412loPI    C3 6579   3.753  15.795   9.614  0.0127 -0.0141 -0.1609
  412loPI   PO4 6580   3.923  16.219   9.142  0.1294 -0.0988  0.3363
  412loPI   GL1 6581   4.286  16.233   8.869 -0.2002  0.1535 -0.1079
  412loPI   GL2 6582   4.296  15.975   9.002 -0.3403 -0.2664  0.1033
  412loPI   C1A 6583   4.168  16.192   8.439 -0.1665  0.1037  0.1999
  412loPI   C2A 6584   4.124  16.178   7.966  0.1384  0.1251 -0.1390
  412loPI   C3A 6585   3.954  16.136   7.614 -0.2111 -0.2195 -0.1672
  412loPI   C4A 6586   4.083  16.119   7.219  0.1437 -0.1211 -0.1194
  412loPI   C5A 6587   4.276  15.987   6.880 -0.2775  0.0299 -0.1007
  412loPI   C6A 6588   4.093  15.815   6.546  0.3419 -0.4296  0.3212
  412loPI   C1B 6589   4.104  15.618   8.693  0.1930  0.2369 -0.0414
  412loPI   C2B 6590   4.006  15.434   8.316 -0.0090 -0.2079 -0.2659
  412loPI   C3B 6591   3.810  15.312   7.981 -0.2619 -0.0187  0.1168
  412loPI   C4B 6592   3.759  15.181   7.598 -0.0794 -0.0245  0.3886
  413loPI    C1 6593   5.374   1.847   9.874  0.0826  0.0044  0.0422
  413loPI    C2 6594   5.695   2.064   9.974 -0.0638  0.2033  0.0862
  413loPI    C3 6595   5.653   1.692  10.116  0.0642  0.2373  0.2161
  413loPI   PO4 6596   5.356   1.843   9.602  0.4819 -0.2462  0.1236
  413loPI   GL1 6597   4.884   1.945   9.414  0.2134 -0.0450 -0.1557
  413loPI   GL2 6598   5.098   1.800   9.135 -0.1738 -0.1881  0.0730
  413loPI   C1A 6599   4.777   2.150   8.988  0.2686  0.0207 -0.1378
  413loPI   C2A 6600   4.677   2.132   8.593 -0.0455 -0.2154 -0.2285
  413loPI   C3A 6601   4.728   2.245   8.291 -0.1513 -0.0121  0.1177
  413loPI   C4A 6602   4.606   2.147   7.994 -0.3540 -0.1217 -0.3289
  413loPI   C5A 6603   4.668   2.107   7.532 -0.0611 -0.2707 -0.1418
  413loPI   C6A 6604   4.841   2.377   7.207 -0.0511  0.0530  0.1774
  413loPI   C1B 6605   5.047   1.686   8.654  0.3460  0.1769  0.4188
  413loPI   C2B 6606   4.965   1.724   8.204  0.0078  0.0029  0.2011
  413loPI   C3B 6607   4.919   1.764   7.863  0.1931  0.3045 -0.0131
  413loPI   C4B 6608   4.711   1.506   7.562 -0.3095 -0.1169  0.2436
  414loPI    C1 6609   1.144  14.533   9.416 -0.1806  0.0663  0.1355
  414loPI    C2 6610   1.496  14.565   9.228 -0.2154 -0.3505 -0.0110
  414loPI    C3 6611   1.438  14.753   9.576  0.0478 -0.0392 -0.1295
  414loPI   PO4 6612   1.104  14.284   9.088  0.2740 -0.3015  0.0026
  414loPI   GL1 6613   1.119  14.548   8.820  0.2450 -0.3696 -0.0833
  414loPI   GL2 6614   0.784  14.750   9.039 -0.3447  0.1015 -0.2274
  414loPI   C1A 6615   0.884  14.451   8.416  0.0981  0.3034 -0.2153
  414loPI   C2A 6616   0.765  14.547   8.022 -0.1687 -0.1591 -0.3429
  414loPI   C3A 6617   0.784  14.340   7.567  0.0156 -0.2260 -0.4273
  414loPI   C4A 6618   0.978  14.435   7.285  0.2313  0.4880 -0.0814
  414loPI   C5A 6619   1.253  14.257   7.139  0.2527 -0.1816  0.3686
  414loPI   C6A 6620   1.677  14.468   7.151  0.1440 -0.0250  0.1382
  414loPI   C1B 6621   0.495  14.963   8.812 -0.0967  0.0326  0.0471
  414loPI   C2B 6622   0.253  15.099   8.451 -0.1959  0.2645  0.0397
  414loPI   C3B 6623   0.268  14.953   8.099 -0.0765  0.0099 -0.1581
  414loPI   C4B 6624   0.342  14.655   7.696  0.1456  0.2455 -0.2549
  415loPI    C1 6625  11.285  17.152  10.566 -0.1923 -0.2541  0.0593
  415loPI    C2 6626  11.225  16.757  10.594 -0.2800 -0.2430  0.0344
  415loPI    C3 6627  11.484  16.939  10.840 -0.1535 -0.3338 -0.0302
  415loPI   PO4 6628  11.245  17.193  10.282  0.0785 -0.2874 -0.6244
  415loPI   GL1 6629  11.449  17.186   9.902  0.1142 -0.1178 -0.1373
  415loPI   GL2 6630  11.623  17.331   9.705 -0.0268  0.1244  0.1495
  415loPI   C1A 6631  11.408  16.902   9.578 -0.3624 -0.3162 -0.0931
  415loPI   C2A 6632  11.327  16.818   9.143 -0.4264 -0.0718  0.1395
  415loPI   C3A 6633  11.167  16.926   8.807 -0.2223 -0.2501  0.0760
  415loPI   C4A 6634  10.814  16.852   8.571  0.0615 -0.0850  0.1398
  415loPI   C5A 6635  10.551  16.796   8.197 -0.0823 -0.2515 -0.1666
  415loPI   C6A 6636  10.223  16.585   7.931  0.3056 -0.2359 -0.3299
  415loPI   C1B 6637  11.597  17.735   9.477  0.2903 -0.0559  0.0410
  415loPI   C2B 6638  11.447  17.930   9.088  0.1216  0.4283 -0.1255
  415loPI   C3B 6639  11.603  18.152   8.708  0.0045 -0.0761 -0.0501
  415loPI   C4B 6640  11.881  18.394   8.462  0.0697 -0.1908  0.1094
  416loPI    C1 6641   1.994   9.979   9.185  0.0999 -0.0912 -0.1723
  416loPI    C2 6642   2.051   9.589   9.117  0.2249 -0.1300  0.1357
  416loPI    C3 6643   1.877   9.817   8.839  0.2594 -0.3796 -0.0953
  416loPI   PO4 6644   2.217  10.049   9.293 -0.2146  0.3119  0.1107
  416loPI   GL1 6645   2.418  10.204   8.933  0.0937  0.3632  0.0451
  416loPI   GL2 6646   2.387   9.891   8.847 -0.3680 -0.2476 -0.1684
  416loPI   C1A 6647   2.402  10.517   8.619 -0.0315  0.0024 -0.0992
  416loPI   C2A 6648   2.511  10.791   8.283 -0.3650  0.2559 -0.2086
  416loPI   C3A 6649   2.499  10.698   7.887 -0.1696  0.3081 -0.2322
  416loPI   C4A 6650   2.334  10.523   7.527  0.1690  0.2583 -0.1958
  416loPI   C5A 6651   2.108  10.326   7.227 -0.0386 -0.1044 -0.0423
  416loPI   C6A 6652   1.870  10.204   6.948 -0.0761 -0.2103 -0.0675
  416loPI   C1B 6653   2.207   9.931   8.400  0.3081 -0.0237  0.2245
  416loPI   C2B 6654   1.963   9.936   8.130  0.0361 -0.0821  0.0070
  416loPI   C3B 6655   1.916  10.003   7.670  0.1056  0.1548  0.1917
  416loPI   C4B 6656   1.655   9.829   7.371  0.0753 -0.1642 -0.1487
  417loPI    C1 6657   5.423  15.905   9.471  0.0545 -0.1035  0.1820
  417loPI    C2 6658   5.355  16.150   9.781 -0.0979 -0.2401  0.2577
  417loPI    C3 6659   5.371  15.754   9.838  0.1728 -0.2485  0.1402
  417loPI   PO4 6660   5.176  15.921   9.266 -0.0261  0.0099  0.2454
  417loPI   GL1 6661   5.216  16.152   8.973  0.1056 -0.1908  0.0943
  417loPI   GL2 6662   5.112  16.467   8.881  0.2293 -0.2665  0.3420
  417loPI   C1A 6663   5.153  15.890   8.571  0.2140  0.2937 -0.1364
  417loPI   C2A 6664   4.963  15.915   8.195 -0.0710 -0.1189  0.0609
  417loPI   C3A 6665   5.024  16.192   7.799 -0.1026  0.2493 -0.1069
  417loPI   C4A 6666   4.830  16.544   7.445  0.0182 -0.2170 -0.0057
  417loPI   C5A 6667   4.713  16.803   7.192  0.0868  0.2996 -0.1511
  417loPI   C6A 6668   4.746  17.156   6.885 -0.1334  0.1948 -0.0132
  417loPI   C1B 6669   5.031  16.421   8.428 -0.0473  0.1779 -0.0786
  417loPI   C2B 6670   5.265  16.659   8.125  0.0439  0.1353  0.0595
  417loPI   C3B 6671   5.278  16.786   7.797 -0.0472  0.1148  0.2038
  417loPI   C4B 6672   5.229  16.947   7.361  0.2806 -0.1527 -0.3371
  418loPI    C1 6673   6.031   1.633   9.781  0.4080  0.0293 -0.1921
  418loPI    C2 6674   6.243   1.959   9.873 -0.1262  0.2669  0.2540
  418loPI    C3 6675   6.202   1.665  10.141  0.2858 -0.1443 -0.1172
  418loPI   PO4 6676   5.869   1.810   9.581 -0.1063  0.3798 -0.1451
  418loPI   GL1 6677   5.667   1.960   9.138  0.2011  0.1089 -0.0037
  418loPI   GL2 6678   6.004   2.112   9.133  0.1420  0.0242 -0.0028
  418loPI   C1A 6679   5.592   1.782   8.807  0.0741  0.2641 -0.0269
  418loPI   C2A 6680   5.514   1.784   8.348  0.0401 -0.2992  0.0294
  418loPI   C3A 6681   5.491   1.717   7.956  0.0177  0.0355 -0.1450
  418loPI   C4A 6682   5.317   1.568   7.593  0.1864 -0.1173  0.2525
  418loPI   C5A 6683   5.095   1.278   7.356 -0.2648  0.0641  0.0852
  418loPI   C6A 6684   5.092   1.202   6.921  0.2229 -0.2455  0.1516
  418loPI   C1B 6685   5.855   2.217   8.710 -0.0858 -0.0641 -0.1806
  418loPI   C2B 6686   5.737   2.244   8.297 -0.0740  0.1736 -0.1250
  418loPI   C3B 6687   5.722   2.181   7.917 -0.1739  0.3353 -0.0444
  418loPI   C4B 6688   5.549   2.055   7.578  0.0153 -0.3052  0.1036
  419loPI    C1 6689  15.845   8.321   9.798  0.1804 -0.0626 -0.1208
  419loPI    C2 6690  16.025   8.527   9.506  0.0377  0.1497 -0.0606
  419loPI    C3 6691  16.137   8.578   9.887  0.1493 -0.0459 -0.0663
  419loPI   PO4 6692  15.782   8.066   9.693 -0.1542 -0.0512 -0.1897
  419loPI   GL1 6693  15.787   8.003   9.296  0.1521  0.0242  0.2692
  419loPI   GL2 6694  15.471   8.038   9.230 -0.0944  0.1028 -0.0886
  419loPI   C1A 6695  16.104   8.136   9.184 -0.2982 -0.2645  0.3421
  419loPI   C2A 6696  16.288   8.528   8.938  0.2185  0.2971  0.0100
  419loPI   C3A 6697  16.477   8.833   8.704 -0.2688 -0.0164 -0.1056
  419loPI   C4A 6698  16.399   9.021   8.327 -0.0253  0.1212 -0.2412
  419loPI   C5A 6699  16.023   8.945   8.080  0.1131 -0.0194  0.1515
  419loPI   C6A 6700  15.870   8.839   7.600  0.3114 -0.0089 -0.2742
  419loPI   C1B 6701  15.246   7.847   8.891  0.0492 -0.0858  0.1022
  419loPI   C2B 6702  15.160   7.758   8.482  0.2618 -0.0606  0.1615
  419loPI   C3B 6703  14.889   7.979   8.052  0.0519 -0.6166 -0.3734
  419loPI   C4B 6704  14.846   8.237   7.735  0.0531  0.2133 -0.3192
  420loPI    C1 6705  12.843   5.418   9.271 -0.1501 -0.0184 -0.1721
  420loPI    C2 6706  12.511   5.213   9.183  0.0023 -0.2733 -0.1647
  420loPI    C3 6707  12.846   5.018   9.281  0.0516 -0.0119  0.2060
  420loPI   PO4 6708  12.836   5.654   9.319  0.1222 -0.1263  0.1531
  420loPI   GL1 6709  13.069   5.850   9.018  0.3512 -0.1437 -0.0593
  420loPI   GL2 6710  13.246   5.677   8.952  0.2320 -0.1713  0.0644
  420loPI   C1A 6711  12.888   6.058   8.734 -0.4351  0.0179  0.0792
  420loPI   C2A 6712  12.834   5.941   8.237  0.1645 -0.0561 -0.1732
  420loPI   C3A 6713  12.621   5.973   7.952  0.0069 -0.0087 -0.0932
  420loPI   C4A 6714  12.463   5.832   7.500  0.1694 -0.1154 -0.2074
  420loPI   C5A 6715  12.310   5.824   7.054 -0.1111  0.3761 -0.0307
  420loPI   C6A 6716  12.086   6.201   6.864  0.0585 -0.1568  0.0139
  420loPI   C1B 6717  13.330   5.345   8.644 -0.2717 -0.4287  0.0656
  420loPI   C2B 6718  13.290   5.030   8.350 -0.0472  0.1127  0.1959
  420loPI   C3B 6719  13.335   4.642   8.340 -0.1127 -0.1690  0.2226
  420loPI   C4B 6720  13.189   4.476   7.948 -0.1059  0.1519  0.0006
  421loPI    C1 6721   1.339   8.246   9.246 -0.2135  0.3010  0.0420
  421loPI    C2 6722   1.000   8.223   9.457 -0.1742 -0.0478  0.0735
  421loPI    C3 6723   1.328   8.379   9.623 -0.2722  0.1319  0.1011
  421loPI   PO4 6724   1.395   7.953   9.187  0.0936  0.0818  0.0393
  421loPI   GL1 6725   1.324   7.600   8.953 -0.2112  0.0124 -0.1568
  421loPI   GL2 6726   1.296   7.866   8.716  0.1651  0.0478  0.0798
  421loPI   C1A 6727   1.291   7.366   8.620 -0.3655  0.0090  0.0110
  421loPI   C2A 6728   1.185   7.258   8.207 -0.0357 -0.4202 -0.0161
  421loPI   C3A 6729   0.988   7.209   7.844 -0.0482  0.0173 -0.2418
  421loPI   C4A 6730   0.906   7.131   7.436 -0.0970 -0.0419 -0.2314
  421loPI   C5A 6731   0.929   6.956   7.067  0.1021 -0.0215  0.4768
  421loPI   C6A 6732   0.975   6.586   6.741  0.0899 -0.0214  0.0078
  421loPI   C1B 6733   1.034   7.787   8.372 -0.2668  0.2147 -0.2987
  421loPI   C2B 6734   1.144   7.736   7.868  0.5510 -0.0872  0.2282
  421loPI   C3B 6735   1.562   7.934   7.706  0.1276  0.3280 -0.2180
  421loPI   C4B 6736   1.735   8.001   7.355  0.1860 -0.1631 -0.1175
  422loPI    C1 6737   6.281   7.295   9.605  0.0513  0.1635 -0.0116
  422loPI    C2 6738   6.479   7.069   9.870  0.0339  0.1713  0.0080
  422loPI    C3 6739   6.283   7.395   9.993  0.1872  0.2834 -0.0424
  422loPI   PO4 6740   6.330   7.216   9.362 -0.0258  0.2705  0.0088
  422loPI   GL1 6741   6.708   7.357   9.021 -0.2053 -0.2651 -0.1970
  422loPI   GL2 6742   6.983   7.416   9.110  0.1912 -0.3077  0.0481
  422loPI   C1A 6743   6.416   7.435   8.695 -0.2708 -0.3571 -0.1705
  422loPI   C2A 6744   6.307   7.213   8.288  0.1178  0.1101  0.2660
  422loPI   C3A 6745   6.071   6.967   8.001  0.1882 -0.0977  0.0927
  422loPI   C4A 6746   6.233   6.726   7.520  0.1174  0.0105  0.1067
  422loPI   C5A 6747   6.296   6.701   7.075 -0.2739 -0.0151 -0.0687
  422loPI   C6A 6748   6.515   6.486   6.825 -0.0485  0.1550  0.0346
  422loPI   C1B 6749   6.903   7.566   8.637  0.2717  0.1257 -0.4540
  422loPI   C2B 6750   6.734   7.521   8.157 -0.0610  0.3639 -0.3434
  422loPI   C3B 6751   6.541   7.332   7.785  0.1557  0.2760 -0.0168
  422loPI   C4B 6752   6.574   7.062   7.411 -0.2518 -0.2922  0.1183
  423loPI    C1 6753  16.074   9.535  10.037  0.0483 -0.1272 -0.1248
  423loPI    C2 6754  15.769   9.633  10.276  0.1082  0.0287 -0.1111
  423loPI    C3 6755  16.108   9.490  10.433  0.0603 -0.0984 -0.1225
  423loPI   PO4 6756  16.035   9.774   9.792  0.0021  0.4222  0.2183
  423loPI   GL1 6757  16.191   9.862   9.367  0.0933 -0.1999 -0.0739
  423loPI   GL2 6758  16.348  10.145   9.357 -0.0141  0.3283  0.3054
  423loPI   C1A 6759  16.064   9.808   8.929  0.2339 -0.0067  0.0047
  423loPI   C2A 6760  16.263   9.760   8.558  0.3441 -0.1823 -0.0298
  423loPI   C3A 6761  16.592   9.665   8.270  0.1258 -0.2047 -0.1293
  423loPI   C4A 6762  16.986   9.848   8.032  0.2166 -0.1255 -0.0283
  423loPI   C5A 6763  17.042  10.261   7.768 -0.2537  0.1229  0.2023
  423loPI   C6A 6764  17.395  10.367   7.501  0.0500 -0.0194 -0.3288
  423loPI   C1B 6765  16.521  10.040   8.934  0.1187  0.2168  0.0546
  423loPI   C2B 6766  16.627  10.092   8.482 -0.0507  0.1196  0.0236
  423loPI   C3B 6767  16.668  10.239   8.067 -0.2730  0.1754  0.4038
  423loPI   C4B 6768  16.568  10.046   7.678 -0.0524 -0.0226 -0.1106
  424loPI    C1 6769  12.027   1.918   9.931 -0.1338 -0.0049  0.2480
  424loPI    C2 6770  11.776   2.203  10.056 -0.0735  0.0898  0.1544
  424loPI    C3 6771  12.005   2.265   9.734 -0.1234 -0.0978  0.0813
  424loPI   PO4 6772  11.896   1.637   9.965  0.2946  0.0945 -0.1559
  424loPI   GL1 6773  11.961   1.395   9.578 -0.1667  0.1412  0.0219
  424loPI   GL2 6774  11.600   1.403   9.518  0.0947 -0.0845 -0.0343
  424loPI   C1A 6775  12.222   1.139   9.387  0.0396 -0.0129  0.0896
  424loPI   C2A 6776  12.263   0.855   9.058 -0.0895 -0.1782 -0.0338
  424loPI   C3A 6777  12.144   1.025   8.645 -0.0563  0.0706  0.5479
  424loPI   C4A 6778  12.398   0.956   8.293  0.1669  0.0290  0.1447
  424loPI   C5A 6779  12.591   0.540   8.248 -0.1670  0.1223  0.0283
  424loPI   C6A 6780  12.494   0.063   8.069 -0.0410 -0.5767 -0.2842
  424loPI   C1B 6781  11.618   1.585   9.091 -0.0088 -0.1750  0.0590
  424loPI   C2B 6782  11.680   1.431   8.698 -0.0773  0.1132 -0.3673
  424loPI   C3B 6783  11.900   1.265   8.252 -0.0154 -0.0630  0.2596
  424loPI   C4B 6784  12.183   1.291   7.965  0.1351 -0.4572  0.2151
  425loPI    C1 6785  11.539   8.217   9.421 -0.1414  0.0465 -0.1473
  425loPI    C2 6786  11.234   8.117   9.660  0.1423 -0.1520  0.1414
  425loPI    C3 6787  11.377   7.852   9.397 -0.1227  0.0421 -0.2078
  425loPI   PO4 6788  11.435   8.450   9.233 -0.0926 -0.1985 -0.0065
  425loPI   GL1 6789  11.574   8.736   9.013  0.1548 -0.2499  0.0044
  425loPI   GL2 6790  11.863   8.917   9.079  0.4126 -0.2309 -0.1607
  425loPI   C1A 6791  11.516   8.572   8.621  0.1425  0.1296  0.1469
  425loPI   C2A 6792  11.379   8.735   8.245 -0.0931 -0.1500  0.2222
  425loPI   C3A 6793  10.979   9.080   8.171  0.1287 -0.7633  0.3406
  425loPI   C4A 6794  11.056   9.483   7.883  0.2036 -0.1062 -0.1419
  425loPI   C5A 6795  10.929   9.666   7.567  0.0218  0.0216 -0.0126
  425loPI   C6A 6796  11.012   9.907   7.232 -0.0683  0.2171 -0.1673
  425loPI   C1B 6797  11.969   9.236   8.836  0.0723  0.0290  0.3277
  425loPI   C2B 6798  12.056   9.207   8.421 -0.2604 -0.0314 -0.1542
  425loPI   C3B 6799  11.804   8.961   8.171  0.1640  0.2370  0.0894
  425loPI   C4B 6800  11.975   8.872   7.846  0.0929 -0.3499  0.0675
  426loPI    C1 6801   8.829  17.902   9.949  0.1338 -0.2355  0.1566
  426loPI    C2 6802   8.739  17.797   9.574  0.0728 -0.0917  0.1302
  426loPI    C3 6803   8.493  17.699   9.875 -0.1146  0.1925  0.0737
  426loPI   PO4 6804   9.140  17.831   9.867 -0.0763  0.1728  0.1491
  426loPI   GL1 6805   9.210  17.909   9.404  0.1248 -0.0950 -0.0037
  426loPI   GL2 6806   9.138  17.591   9.253  0.2947 -0.1982 -0.2858
  426loPI   C1A 6807   9.539  17.937   9.175  0.1381  0.1002 -0.1127
  426loPI   C2A 6808   9.515  18.107   8.648  0.1209 -0.2135 -0.0391
  426loPI   C3A 6809   9.340  18.317   8.260 -0.2408 -0.0634 -0.2866
  426loPI   C4A 6810   9.173  18.580   8.072  0.2426  0.0232  0.1036
  426loPI   C5A 6811   9.333  18.704   7.744 -0.2065 -0.2994  0.1749
  426loPI   C6A 6812   9.292  18.927   7.358 -0.4389 -0.1447 -0.0447
  426loPI   C1B 6813   9.122  17.847   8.891  0.0717  0.1324 -0.0259
  426loPI   C2B 6814   9.034  17.984   8.475  0.0662  0.0275  0.0289
  426loPI   C3B 6815   9.170  17.810   8.197  0.5020  0.0222  0.1704
  426loPI   C4B 6816   9.269  17.463   8.120 -0.2083 -0.1097  0.0872
  427loPI    C1 6817   8.335   4.000   9.769 -0.0599 -0.2670  0.1180
  427loPI    C2 6818   8.210   4.335   9.947  0.3154 -0.0622  0.0081
  427loPI    C3 6819   8.029   3.987  10.025 -0.0126  0.1467  0.2018
  427loPI   PO4 6820   8.279   4.093   9.458  0.3458 -0.2732  0.1681
  427loPI   GL1 6821   8.462   3.973   8.888 -0.2460  0.3373  0.1425
  427loPI   GL2 6822   8.704   3.717   9.008 -0.0227 -0.3501  0.1159
  427loPI   C1A 6823   8.482   4.215   8.588  0.0582 -0.0916  0.1613
  427loPI   C2A 6824   8.638   4.451   8.268  0.0751  0.0662  0.1169
  427loPI   C3A 6825   8.839   4.289   7.935 -0.0511  0.3353 -0.1250
  427loPI   C4A 6826   8.957   4.120   7.623  0.1387 -0.0765  0.0935
  427loPI   C5A 6827   8.870   3.919   7.201  0.2095  0.2878 -0.0130
  427loPI   C6A 6828   8.357   3.797   6.931  0.1225 -0.2601  0.0815
  427loPI   C1B 6829   8.811   3.832   8.583 -0.1596  0.0890 -0.4083
  427loPI   C2B 6830   8.754   3.774   8.192  0.4278  0.2641 -0.3675
  427loPI   C3B 6831   8.654   3.722   7.797  0.1568  0.4480  0.0986
  427loPI   C4B 6832   8.453   3.649   7.472  0.3995 -0.2127 -0.0040
  428loPI    C1 6833   3.150  17.310   9.629  0.1517 -0.0697 -0.0106
  428loPI    C2 6834   3.446  17.475   9.841  0.2061 -0.0212 -0.1231
  428loPI    C3 6835   3.467  17.091   9.734  0.1792 -0.0452 -0.0425
  428loPI   PO4 6836   3.173  17.477   9.357 -0.2184 -0.0498 -0.1501
  428loPI   GL1 6837   3.007  17.695   9.003 -0.0562  0.2169 -0.1678
  428loPI   GL2 6838   3.372  17.822   9.036  0.3088  0.0886 -0.0164
  428loPI   C1A 6839   2.898  17.581   8.644  0.2091 -0.0189  0.1130
  428loPI   C2A 6840   2.778  17.631   8.212 -0.3557 -0.1400  0.0058
  428loPI   C3A 6841   2.761  17.684   7.861  0.1479  0.5064 -0.0132
  428loPI   C4A 6842   2.812  17.770   7.390  0.1612  0.1097  0.2256
  428loPI   C5A 6843   2.739  17.792   6.918  0.0934  0.3636  0.3723
  428loPI   C6A 6844   2.864  17.780   6.559  0.0613 -0.1060 -0.0768
  428loPI   C1B 6845   3.584  17.849   8.749  0.2153 -0.0478 -0.1222
  428loPI   C2B 6846   3.708  17.918   8.327  0.2456  0.1514 -0.0311
  428loPI   C3B 6847   3.871  17.952   7.902  0.0586 -0.1160  0.0864
  428loPI   C4B 6848   3.740  18.084   7.537 -0.1708  0.1906  0.1619
  429loPI    C1 6849  10.126   0.281  10.201 -0.1608 -0.1122 -0.0554
  429loPI    C2 6850  10.443   0.039  10.172 -0.0412  0.0643 -0.2493
  429loPI    C3 6851  10.215   0.031  10.500 -0.0643 -0.3393 -0.2703
  429loPI   PO4 6852  10.248   0.515  10.100  0.1095 -0.1003 -0.0414
  429loPI   GL1 6853  10.294   0.672   9.727 -0.4013 -0.2070  0.0628
  429loPI   GL2 6854  10.391   0.969   9.495 -0.3721  0.0441  0.2119
  429loPI   C1A 6855  10.195   0.616   9.281  0.2453  0.1518  0.2061
  429loPI   C2A 6856  10.308   0.689   8.817  0.0297 -0.3906  0.0084
  429loPI   C3A 6857  10.456   0.798   8.367  0.0429  0.0054 -0.1140
  429loPI   C4A 6858  10.770   0.759   8.083 -0.0302 -0.1316 -0.2656
  429loPI   C5A 6859  11.230   0.917   8.006 -0.1357 -0.0990  0.0010
  429loPI   C6A 6860  11.482   0.964   8.267 -0.0890  0.2795 -0.1657
  429loPI   C1B 6861  10.594   1.058   9.213  0.0711  0.2549  0.1187
  429loPI   C2B 6862  10.597   1.118   8.794 -0.1712 -0.0074  0.3199
  429loPI   C3B 6863  10.456   1.401   8.454 -0.1068 -0.3372 -0.0440
  429loPI   C4B 6864  10.389   1.171   8.005  0.1425  0.0673  0.2730
  430loPI    C1 6865   4.090  11.934   9.796  0.1392 -0.2166  0.0442
  430loPI    C2 6866   3.905  12.050  10.131 -0.0782  0.0321 -0.1577
  430loPI    C3 6867   3.809  11.702   9.960 -0.1962  0.0537 -0.1359
  430loPI   PO4 6868   4.145  12.088   9.483  0.1327  0.0551  0.1786
  430loPI   GL1 6869   4.016  11.796   9.224  0.0494 -0.1544 -0.2405
  430loPI   GL2 6870   3.776  11.730   9.209  0.3943 -0.1086  0.4371
  430loPI   C1A 6871   4.050  11.671   8.726 -0.0023  0.2172 -0.0512
  430loPI   C2A 6872   4.129  11.817   8.379 -0.1688 -0.2721 -0.2222
  430loPI   C3A 6873   4.034  12.087   8.184  0.4007  0.1999  0.1484
  430loPI   C4A 6874   4.042  12.305   7.889  0.0162 -0.0933  0.0996
  430loPI   C5A 6875   4.422  12.311   7.741 -0.1936  0.0325  0.0659
  430loPI   C6A 6876   4.873  12.134   7.686 -0.3108 -0.1947 -0.0367
  430loPI   C1B 6877   3.581  11.869   8.832  0.3068  0.0026 -0.0802
  430loPI   C2B 6878   3.686  12.169   8.485 -0.2380  0.1297  0.0749
  430loPI   C3B 6879   3.524  12.218   8.018  0.2615  0.1622 -0.0636
  430loPI   C4B 6880   3.542  12.163   7.580  0.0096 -0.0656 -0.1884
  431loPI    C1 6881   3.597   8.548   9.671  0.1939  0.0307  0.1295
  431loPI    C2 6882   3.911   8.375   9.849  0.0816 -0.3101  0.0051
  431loPI    C3 6883   3.546   8.214   9.886 -0.0154 -0.1339 -0.1675
  431loPI   PO4 6884   3.647   8.585   9.471  0.4808 -0.0497  0.1568
  431loPI   GL1 6885   3.900   8.524   9.074 -0.0967  0.0280 -0.3754
  431loPI   GL2 6886   3.680   8.344   9.020 -0.0496 -0.3249  0.0317
  431loPI   C1A 6887   4.118   8.860   8.852  0.3293 -0.1728  0.1937
  431loPI   C2A 6888   4.118   9.093   8.338 -0.0148 -0.0212 -0.0227
  431loPI   C3A 6889   4.147   9.203   7.906  0.0631  0.2543  0.1215
  431loPI   C4A 6890   4.240   8.987   7.643 -0.1055  0.0787  0.2423
  431loPI   C5A 6891   4.581   8.665   7.435  0.2062 -0.0617 -0.3149
  431loPI   C6A 6892   4.957   8.615   7.302 -0.1381  0.0864 -0.0361
  431loPI   C1B 6893   3.762   8.219   8.596  0.1959 -0.3716  0.1278
  431loPI   C2B 6894   3.929   8.213   8.148 -0.3787  0.2053 -0.0629
  431loPI   C3B 6895   4.279   8.506   7.982 -0.3936 -0.0597  0.1646
  431loPI   C4B 6896   4.610   8.822   7.921  0.1551  0.1679 -0.1340
  432loPI    C1 6897  13.384   1.418  10.257  0.2908  0.1105  0.1308
  432loPI    C2 6898  13.330   1.686   9.965 -0.3467 -0.2800 -0.1317
  432loPI    C3 6899  13.107   1.703  10.297 -0.0651 -0.2174  0.0585
  432loPI   PO4 6900  13.623   1.284  10.081  0.3680  0.1156  0.1406
  432loPI   GL1 6901  13.478   1.106   9.667  0.0156  0.0412  0.0987
  432loPI   GL2 6902  13.656   1.345   9.542  0.0721  0.1533 -0.3086
  432loPI   C1A 6903  13.287   0.987   9.364 -0.0394 -0.0898 -0.2211
  432loPI   C2A 6904  13.314   1.126   8.984  0.1429 -0.0524 -0.0804
  432loPI   C3A 6905  13.119   1.197   8.630  0.0166  0.2288 -0.0221
  432loPI   C4A 6906  12.916   1.133   8.226 -0.1504 -0.3544  0.0046
  432loPI   C5A 6907  12.673   1.525   7.993  0.1764 -0.1514 -0.2755
  432loPI   C6A 6908  12.365   1.692   7.723 -0.1937  0.0396 -0.0130
  432loPI   C1B 6909  13.728   1.285   9.111 -0.1421  0.2062 -0.1060
  432loPI   C2B 6910  13.714   1.081   8.746 -0.0869  0.0736  0.1602
  432loPI   C3B 6911  14.053   0.973   8.607  0.1009  0.1715  0.0077
  432loPI   C4B 6912  14.161   0.735   8.197  0.0631 -0.0728  0.0746
  433loPI    C1 6913   3.238   6.533   9.549  0.2794  0.1358 -0.1469
  433loPI    C2 6914   3.243   6.134   9.578  0.0331  0.1298 -0.1678
  433loPI    C3 6915   3.243   6.359   9.909 -0.1908  0.1049 -0.1493
  433loPI   PO4 6916   3.387   6.532   9.215 -0.0070 -0.0025  0.5462
  433loPI   GL1 6917   3.545   6.900   9.058 -0.0092 -0.0591 -0.0415
  433loPI   GL2 6918   3.792   7.186   8.946 -0.1835 -0.0781  0.1898
  433loPI   C1A 6919   3.680   6.630   8.691 -0.0803  0.0644 -0.3029
  433loPI   C2A 6920   3.779   6.717   8.307 -0.4171 -0.2115  0.1122
  433loPI   C3A 6921   3.656   6.714   7.856 -0.3337  0.0301  0.0261
  433loPI   C4A 6922   3.639   6.674   7.436  0.0617  0.0174 -0.0590
  433loPI   C5A 6923   3.785   6.633   7.047  0.3114 -0.1043 -0.2495
  433loPI   C6A 6924   3.996   6.722   6.755 -0.0722 -0.1142  0.4038
  433loPI   C1B 6925   3.739   7.243   8.476 -0.1626  0.2877 -0.0932
  433loPI   C2B 6926   3.741   7.245   8.119  0.0735 -0.0833  0.0025
  433loPI   C3B 6927   3.667   7.362   7.674 -0.1029 -0.2201  0.0687
  433loPI   C4B 6928   3.941   7.598   7.455 -0.3891 -0.1816  0.3185
  434loPI    C1 6929  18.890   3.772   9.841 -0.2250  0.2313 -0.0998
  434loPI    C2 6930  19.126   3.483   9.986 -0.0359  0.1651 -0.5247
  434loPI    C3 6931  18.801   3.597  10.190  0.0051 -0.1952 -0.2479
  434loPI   PO4 6932  19.000   3.917   9.659  0.0049  0.0155 -0.1259
  434loPI   GL1 6933  19.312   3.891   9.301 -0.2001  0.2017  0.0593
  434loPI   GL2 6934  19.576   3.798   9.191  0.1314  0.0252 -0.1581
  434loPI   C1A 6935  19.200   3.913   8.866 -0.1735  0.2021  0.0856
  434loPI   C2A 6936  19.101   3.896   8.550 -0.0178  0.4282 -0.3654
  434loPI   C3A 6937  18.808   3.973   8.242  0.2727  0.1951  0.3469
  434loPI   C4A 6938  18.682   4.001   7.803 -0.3206  0.2826 -0.0665
  434loPI   C5A 6939  18.380   4.274   7.520 -0.0371 -0.2413  0.2158
  434loPI   C6A 6940  17.966   4.307   7.357 -0.3382 -0.1137 -0.3626
  434loPI   C1B 6941  19.425   3.496   8.915  0.2228  0.1351 -0.1314
  434loPI   C2B 6942  19.252   3.179   8.891 -0.2037 -0.2638  0.1761
  434loPI   C3B 6943  18.949   2.855   8.920  0.0454 -0.1782  0.1415
  434loPI   C4B 6944  18.652   2.588   9.109 -0.3756  0.1111  0.0291
  435loPI    C1 6945  15.275   0.025  10.434  0.1557 -0.0935 -0.1232
  435loPI    C2 6946  15.483   0.170  10.743 -0.1153  0.2250 -0.0842
  435loPI    C3 6947  15.267  -0.164  10.786  0.0359  0.1373  0.0006
  435loPI   PO4 6948  15.433   0.048  10.243  0.1651 -0.5068 -0.0634
  435loPI   GL1 6949  15.574   0.058   9.811 -0.0428  0.0901 -0.2719
  435loPI   GL2 6950  15.708   0.419   9.831  0.6828 -0.0517  0.0739
  435loPI   C1A 6951  15.563  -0.177   9.435 -0.1905 -0.4493  0.1276
  435loPI   C2A 6952  15.398  -0.139   8.998  0.0463  0.0542  0.0408
  435loPI   C3A 6953  15.159  -0.359   8.825  0.2150  0.0798  0.2040
  435loPI   C4A 6954  14.782  -0.463   8.537  0.0265  0.1425  0.0699
  435loPI   C5A 6955  14.583  -0.382   8.152 -0.0281 -0.3164 -0.0143
  435loPI   C6A 6956  14.368  -0.055   7.893 -0.0375 -0.0224  0.2058
  435loPI   C1B 6957  15.643   0.315   9.383  0.0670 -0.0516  0.1111
  435loPI   C2B 6958  15.609   0.355   8.973 -0.1460 -0.3095  0.2256
  435loPI   C3B 6959  15.331   0.350   8.535 -0.3245 -0.2628 -0.0510
  435loPI   C4B 6960  15.166   0.447   8.190 -0.1763  0.3718  0.0653
  436loPI    C1 6961  17.216   0.416  10.339 -0.3425  0.1676  0.0002
  436loPI    C2 6962  17.265   0.710  10.605 -0.0232  0.0935  0.0274
  436loPI    C3 6963  16.911   0.527  10.572 -0.1503  0.3053  0.1897
  436loPI   PO4 6964  17.352   0.484  10.108  0.0393 -0.0063  0.1437
  436loPI   GL1 6965  17.235   0.543   9.745  0.1102 -0.1480  0.0600
  436loPI   GL2 6966  17.207   0.138   9.642  0.0640 -0.5637  0.0509
  436loPI   C1A 6967  16.964   0.449   9.369  0.1465  0.0095  0.0212
  436loPI   C2A 6968  16.878   0.415   8.920  0.0206 -0.1014 -0.0303
  436loPI   C3A 6969  16.626   0.447   8.546 -0.1206  0.1922 -0.0390
  436loPI   C4A 6970  16.568   0.409   8.153 -0.1577  0.3192 -0.3158
  436loPI   C5A 6971  16.313   0.656   7.807  0.1225  0.1170  0.0351
  436loPI   C6A 6972  16.104   0.750   7.398  0.2815 -0.0980  0.2250
  436loPI   C1B 6973  17.084  -0.033   9.184 -0.3207 -0.1847  0.0713
  436loPI   C2B 6974  16.953  -0.132   8.819 -0.4567 -0.1370 -0.3260
  436loPI   C3B 6975  16.850   0.002   8.292 -0.1572  0.2344 -0.0247
  436loPI   C4B 6976  16.738  -0.113   7.903 -0.2125 -0.1440 -0.1381
  437loPI    C1 6977   6.957   1.760   9.873 -0.2166  0.0225  0.1230
  437loPI    C2 6978   6.960   2.099   9.661  0.0431 -0.0825 -0.0449
  437loPI    C3 6979   6.720   2.065   9.979 -0.2155  0.1432 -0.2112
  437loPI   PO4 6980   6.943   1.570   9.703  0.0577 -0.0976 -0.1146
  437loPI   GL1 6981   6.709   1.377   9.334 -0.1965  0.0875 -0.1004
  437loPI   GL2 6982   7.015   1.604   9.234  0.2396 -0.3815  0.2250
  437loPI   C1A 6983   6.442   1.689   9.062 -0.0676 -0.1010 -0.0458
  437loPI   C2A 6984   6.211   1.836   8.772  0.1641 -0.0216  0.2272
  437loPI   C3A 6985   6.294   2.180   8.419 -0.0507 -0.3679  0.0746
  437loPI   C4A 6986   6.148   2.416   7.996  0.2560 -0.2073  0.1214
  437loPI   C5A 6987   6.075   2.321   7.576  0.0755  0.0852  0.2265
  437loPI   C6A 6988   5.822   2.461   7.331  0.1220 -0.1990  0.2088
  437loPI   C1B 6989   6.847   1.593   8.828 -0.1438  0.2025  0.1281
  437loPI   C2B 6990   6.611   1.682   8.411 -0.0982  0.0324 -0.0068
  437loPI   C3B 6991   6.656   1.818   7.970 -0.1499  0.1054 -0.2571
  437loPI   C4B 6992   6.764   1.835   7.551  0.0180  0.1093  0.0242
  438loPI    C1 6993   3.060  15.847   9.371 -0.0436 -0.0416 -0.0039
  438loPI    C2 6994   2.962  15.527   9.590  0.1657  0.0332  0.2028
  438loPI    C3 6995   2.920  15.895   9.742 -0.3874  0.1279 -0.1508
  438loPI   PO4 6996   3.295  15.798   9.287 -0.1515 -0.4211 -0.0527
  438loPI   GL1 6997   3.359  16.146   9.003 -0.0822  0.2418  0.0173
  438loPI   GL2 6998   3.421  16.378   8.845 -0.1837  0.0482  0.2566
  438loPI   C1A 6999   3.088  15.959   8.652 -0.0854  0.1671 -0.1794
  438loPI   C2A 7000   3.206  15.970   8.330  0.3388  0.1167  0.2145
  438loPI   C3A 7001   3.099  16.075   7.987  0.3250 -0.1989  0.3026
  438loPI   C4A 7002   3.028  15.944   7.573  0.0139 -0.0061 -0.1729
  438loPI   C5A 7003   3.022  15.741   7.187 -0.4093 -0.0570  0.1531
  438loPI   C6A 7004   3.238  15.474   6.866  0.1470  0.0276  0.0305
  438loPI   C1B 7005   3.228  16.478   8.434 -0.2545  0.1437  0.4151
  438loPI   C2B 7006   2.956  16.549   8.083 -0.0154 -0.1089  0.1752
  438loPI   C3B 7007   2.791  16.615   7.720  0.1787  0.0564  0.1209
  438loPI   C4B 7008   2.680  16.288   7.330  0.1236 -0.1676 -0.1153
  439loPI    C1 7009   0.960  13.597   9.861 -0.1040  0.0710 -0.1094
  439loPI    C2 7010   0.832  13.270  10.052 -0.0461  0.0687 -0.0742
  439loPI    C3 7011   0.887  13.611  10.254  0.1504  0.0292 -0.0588
  439loPI   PO4 7012   0.739  13.599   9.614 -0.1393  0.2057 -0.2608
  439loPI   GL1 7013   0.988  13.345   9.258  0.0095 -0.1401  0.0048
  439loPI   GL2 7014   1.182  13.191   9.155  0.5022 -0.0032  0.2462
  439loPI   C1A 7015   0.743  13.459   8.928  0.3027 -0.0662  0.0451
  439loPI   C2A 7016   0.449  13.293   8.744  0.0860 -0.1556 -0.0989
  439loPI   C3A 7017   0.045  13.018   8.961 -0.0955  0.2163  0.2728
  439loPI   C4A 7018  -0.302  12.651   9.013 -0.2520 -0.0324 -0.2376
  439loPI   C5A 7019  -0.186  12.349   8.663 -0.1535 -0.0332 -0.1022
  439loPI   C6A 7020  -0.518  12.280   8.365 -0.3261  0.1505 -0.0562
  439loPI   C1B 7021   1.207  13.407   8.695 -0.0160 -0.1528  0.4769
  439loPI   C2B 7022   0.909  13.464   8.353 -0.0930  0.0569  0.1470
  439loPI   C3B 7023   0.758  13.425   7.953  0.2274  0.2776  0.2125
  439loPI   C4B 7024   0.803  13.382   7.499 -0.4973  0.3228 -0.0335
  440loPI    C1 7025   2.045   2.771   9.809 -0.0346 -0.1365  0.0907
  440loPI    C2 7026   2.184   2.563  10.121  0.1542  0.0174  0.1109
  440loPI    C3 7027   2.175   2.963  10.134 -0.1006  0.0164  0.0279
  440loPI   PO4 7028   1.844   2.743   9.713 -0.1998  0.2855  0.0916
  440loPI   GL1 7029   1.596   2.608   9.312  0.1393 -0.1420 -0.2129
  440loPI   GL2 7030   1.895   2.398   9.275 -0.3993 -0.3365 -0.3341
  440loPI   C1A 7031   1.531   2.628   8.864  0.0197  0.0360 -0.4104
  440loPI   C2A 7032   1.574   2.598   8.370 -0.0091  0.0068 -0.0077
  440loPI   C3A 7033   1.649   2.482   7.945 -0.1852 -0.0995 -0.0875
  440loPI   C4A 7034   1.777   2.589   7.544  0.1206  0.0885  0.0693
  440loPI   C5A 7035   2.202   2.596   7.380  0.1857  0.1444  0.1216
  440loPI   C6A 7036   2.556   2.686   7.042  0.0237  0.0050 -0.2363
  440loPI   C1B 7037   1.765   2.145   8.964  0.0198  0.3772 -0.1245
  440loPI   C2B 7038   1.957   2.203   8.527 -0.3427 -0.0322 -0.2805
  440loPI   C3B 7039   2.129   2.408   8.178  0.0512 -0.1366 -0.2681
  440loPI   C4B 7040   2.483   2.432   7.986 -0.1102  0.0658 -0.0836
  441loPI    C1 7041  17.249   1.174  10.327  0.3579  0.1889 -0.0503
  441loPI    C2 7042  17.308   1.169  10.723  0.1082 -0.1252 -0.0129
  441loPI    C3 7043  16.961   1.300  10.574  0.1314 -0.1816 -0.1176
  441loPI   PO4 7044  17.447   1.027  10.208 -0.3308 -0.2555  0.2356
  441loPI   GL1 7045  17.451   1.024   9.808  0.5405 -0.2486 -0.1075
  441loPI   GL2 7046  17.722   0.851   9.789 -0.1893  0.0432 -0.1113
  441loPI   C1A 7047  17.246   0.882   9.386 -0.1646 -0.1667 -0.1060
  441loPI   C2A 7048  17.079   0.981   9.027 -0.2025 -0.0790  0.1289
  441loPI   C3A 7049  16.867   1.320   8.741 -0.2494 -0.2934  0.0801
  441loPI   C4A 7050  16.906   1.559   8.341 -0.0201 -0.2339 -0.1485
  441loPI   C5A 7051  16.661   1.734   8.004  0.2582  0.0770  0.0561
  441loPI   C6A 7052  16.271   1.714   7.793 -0.0793 -0.1771 -0.0115
  441loPI   C1B 7053  17.957   1.065   9.429  0.2025 -0.2954 -0.1538
  441loPI   C2B 7054  18.256   1.336   9.345 -0.1028 -0.2992  0.3553
  441loPI   C3B 7055  18.420   1.341   9.067  0.1778  0.1011 -0.0172
  441loPI   C4B 7056  18.531   1.297   8.592 -0.0588 -0.1780  0.4485
  442loPI    C1 7057  16.740   3.775  10.797 -0.1744 -0.0246 -0.1415
  442loPI    C2 7058  16.722   4.034  11.102 -0.2887 -0.1200 -0.0660
  442loPI    C3 7059  17.035   4.039  10.853 -0.0871 -0.1855  0.1827
  442loPI   PO4 7060  16.548   3.841  10.674  0.2478 -0.0798  0.1070
  442loPI   GL1 7061  16.544   3.770  10.153  0.0905  0.2627  0.0464
  442loPI   GL2 7062  16.299   3.838  10.033  0.1738 -0.1177 -0.1845
  442loPI   C1A 7063  16.670   3.434   9.752  0.2808  0.0443  0.0004
  442loPI   C2A 7064  16.663   3.540   9.288 -0.0134  0.1245 -0.1215
  442loPI   C3A 7065  16.983   3.265   8.923  0.1535  0.1326 -0.2197
  442loPI   C4A 7066  16.832   3.260   8.428 -0.0627  0.1112 -0.0284
  442loPI   C5A 7067  16.862   3.614   8.115  0.1390 -0.0041  0.1030
  442loPI   C6A 7068  16.695   3.849   7.821  0.2892  0.0387  0.0304
  442loPI   C1B 7069  16.184   3.722   9.594 -0.0646  0.0377 -0.0561
  442loPI   C2B 7070  15.891   3.736   9.361  0.2587 -0.0082  0.3617
  442loPI   C3B 7071  15.846   3.957   8.985  0.1474  0.0919  0.1059
  442loPI   C4B 7072  15.889   3.842   8.487 -0.1976 -0.0368 -0.0718
  443loPI    C1 7073   9.473   1.418  10.132 -0.1196 -0.0143 -0.1003
  443loPI    C2 7074   9.328   1.690   9.878  0.0883  0.0595 -0.1424
  443loPI    C3 7075   9.220   1.698  10.263 -0.1568  0.0028 -0.2080
  443loPI   PO4 7076   9.676   1.214  10.000 -0.0660 -0.3812  0.2557
  443loPI   GL1 7077   9.460   0.992   9.716  0.2148  0.3651 -0.0210
  443loPI   GL2 7078   9.380   1.250   9.505 -0.1272 -0.1833 -0.0155
  443loPI   C1A 7079   9.244   0.788   9.346 -0.1999 -0.0423 -0.1653
  443loPI   C2A 7080   9.244   0.799   8.923 -0.0564  0.5654 -0.0252
  443loPI   C3A 7081   9.273   0.796   8.495  0.0702  0.2988 -0.1320
  443loPI   C4A 7082   9.456   0.920   8.098 -0.0075  0.0444  0.1770
  443loPI   C5A 7083   9.724   1.252   7.951  0.0426 -0.2405  0.0257
  443loPI   C6A 7084  10.102   1.286   7.592  0.1325 -0.2622  0.0347
  443loPI   C1B 7085   9.417   1.203   9.109 -0.1557  0.2555  0.2442
  443loPI   C2B 7086   9.449   1.203   8.638 -0.2421 -0.0800  0.2207
  443loPI   C3B 7087   9.248   1.348   8.281 -0.1732 -0.0338  0.2309
  443loPI   C4B 7088   9.394   1.601   8.014 -0.0738 -0.2563 -0.1782
  444loPI    C1 7089   5.167  13.096   9.805  0.0495  0.0234  0.0557
  444loPI    C2 7090   5.486  13.303   9.927  0.0415  0.0991 -0.0500
  444loPI    C3 7091   5.375  12.973  10.122  0.0213  0.2252  0.1544
  444loPI   PO4 7092   5.287  13.070   9.515  0.1875  0.0063  0.0239
  444loPI   GL1 7093   5.272  13.398   9.216 -0.0251  0.0380  0.2091
  444loPI   GL2 7094   4.993  13.502   9.207  0.0989  0.1883 -0.0327
  444loPI   C1A 7095   5.602  13.454   8.957 -0.0809 -0.0988  0.2489
  444loPI   C2A 7096   5.746  13.377   8.520  0.1748  0.3496 -0.2042
  444loPI   C3A 7097   5.933  13.261   8.093 -0.0420 -0.1941 -0.0418
  444loPI   C4A 7098   6.111  13.324   7.628 -0.0944 -0.2108  0.0606
  444loPI   C5A 7099   6.098  13.770   7.394  0.1350  0.0034  0.2331
  444loPI   C6A 7100   6.320  13.800   7.034  0.1991 -0.1756 -0.0202
  444loPI   C1B 7101   5.010  13.561   8.634 -0.1931 -0.0849  0.0692
  444loPI   C2B 7102   4.973  13.544   8.192 -0.2412  0.0412  0.2871
  444loPI   C3B 7103   5.202  13.509   7.772  0.1451 -0.2811  0.3136
  444loPI   C4B 7104   5.607  13.453   7.526 -0.0106  0.5688  0.0600
  445loPI    C1 7105   4.226  17.600   9.614 -0.0569 -0.0567 -0.0056
  445loPI    C2 7106   3.885  17.777   9.726 -0.0579  0.0304 -0.1442
  445loPI    C3 7107   4.024  17.463   9.931 -0.0419  0.2068  0.1206
  445loPI   PO4 7108   4.169  17.528   9.367 -0.0237 -0.2187  0.1400
  445loPI   GL1 7109   4.203  17.642   8.987  0.0445 -0.6099  0.1135
  445loPI   GL2 7110   4.472  17.620   8.802  0.1828 -0.1665  0.3722
  445loPI   C1A 7111   3.959  17.541   8.583  0.0804  0.2210  0.2011
  445loPI   C2A 7112   3.707  17.415   8.252  0.1496  0.0990 -0.0929
  445loPI   C3A 7113   3.897  17.026   7.975  0.1213 -0.0610  0.1232
  445loPI   C4A 7114   3.977  16.595   7.817  0.0049 -0.2253  0.3024
  445loPI   C5A 7115   3.716  16.569   7.470 -0.0592  0.1530 -0.1536
  445loPI   C6A 7116   3.682  16.453   7.089  0.1328 -0.1648  0.1067
  445loPI   C1B 7117   4.622  17.634   8.365  0.1077  0.1737 -0.0796
  445loPI   C2B 7118   4.743  17.734   7.949 -0.1558 -0.2907  0.1479
  445loPI   C3B 7119   4.885  17.844   7.459  0.0448  0.3132 -0.0811
  445loPI   C4B 7120   4.716  17.699   7.012 -0.0542  0.3138 -0.1518
  446loPI    C1 7121   1.490  17.247   9.719 -0.0794 -0.1736  0.1746
  446loPI    C2 7122   1.313  16.952   9.923 -0.1040 -0.2428  0.0539
  446loPI    C3 7123   1.544  17.217  10.114 -0.0958 -0.3298  0.1656
  446loPI   PO4 7124   1.316  17.371   9.548 -0.1766 -0.3181 -0.1215
  446loPI   GL1 7125   1.475  17.271   9.073  0.2628  0.1616 -0.0923
  446loPI   GL2 7126   1.692  17.462   8.990  0.0710 -0.2474 -0.0616
  446loPI   C1A 7127   1.606  16.974   8.890 -0.0171  0.2202 -0.1481
  446loPI   C2A 7128   1.633  16.747   8.536 -0.2937 -0.1622 -0.2524
  446loPI   C3A 7129   1.473  16.677   8.137  0.2163 -0.1635  0.3071
  446loPI   C4A 7130   1.730  16.800   7.702 -0.0339  0.3706  0.1661
  446loPI   C5A 7131   1.788  16.990   7.216 -0.1674 -0.4633  0.4284
  446loPI   C6A 7132   1.628  17.359   7.018  0.0916  0.1042 -0.1528
  446loPI   C1B 7133   1.455  17.374   8.546  0.0298 -0.0943  0.1204
  446loPI   C2B 7134   1.454  17.464   8.110 -0.3034 -0.0496 -0.2528
  446loPI   C3B 7135   1.595  17.697   7.701  0.0690 -0.1863 -0.1887
  446loPI   C4B 7136   1.413  17.743   7.316  0.0757 -0.0804  0.1201
  447loPI    C1 7137  11.788  10.672  10.446 -0.1971  0.0445  0.0831
  447loPI    C2 7138  11.882  10.309  10.585  0.2433  0.0926 -0.0709
  447loPI    C3 7139  11.741  10.589  10.834 -0.0053 -0.1499  0.0666
  447loPI   PO4 7140  11.991  10.712  10.204 -0.2318 -0.1359  0.1351
  447loPI   GL1 7141  12.052  11.032   9.899 -0.0373  0.0591  0.2665
  447loPI   GL2 7142  11.724  11.219   9.820 -0.0738  0.0828  0.0615
  447loPI   C1A 7143  12.125  11.035   9.418  0.2754 -0.1153 -0.3433
  447loPI   C2A 7144  12.198  10.978   8.966 -0.1732  0.2957  0.1474
  447loPI   C3A 7145  12.080  10.994   8.508 -0.0676 -0.0359  0.0260
  447loPI   C4A 7146  12.146  11.290   8.258 -0.0905  0.1939  0.0143
  447loPI   C5A 7147  11.848  11.662   8.104 -0.0822 -0.1271  0.1373
  447loPI   C6A 7148  12.167  12.030   8.029 -0.0606 -0.1344 -0.2008
  447loPI   C1B 7149  11.907  11.505   9.540 -0.1918  0.0820 -0.0413
  447loPI   C2B 7150  11.873  11.394   9.093  0.3994 -0.0683  0.0162
  447loPI   C3B 7151  11.958  11.548   8.759 -0.0782 -0.0637 -0.0442
  447loPI   C4B 7152  12.019  11.969   8.530  0.2238 -0.1100  0.1708
  448loPI    C1 7153   2.262  12.681  10.001 -0.0017 -0.0913  0.4653
  448loPI    C2 7154   2.038  12.975  10.153  0.0138  0.0782  0.1674
  448loPI    C3 7155   2.419  13.045  10.052  0.0258 -0.0513  0.1207
  448loPI   PO4 7156   2.147  12.649   9.720  0.2165  0.0555  0.5595
  448loPI   GL1 7157   2.002  12.492   9.321  0.0964  0.2754 -0.1012
  448loPI   GL2 7158   1.994  12.679   9.089  0.0426 -0.0134  0.0027
  448loPI   C1A 7159   1.712  12.190   9.048 -0.2487  0.0606  0.4282
  448loPI   C2A 7160   1.388  12.154   8.693  0.4314  0.3056  0.2350
  448loPI   C3A 7161   1.260  12.068   8.318  0.0964 -0.1807  0.1714
  448loPI   C4A 7162   1.071  12.212   7.843 -0.0353  0.1656 -0.1190
  448loPI   C5A 7163   0.791  12.224   7.624  0.1049 -0.1378 -0.0045
  448loPI   C6A 7164   0.703  12.590   7.395  0.0679  0.3049  0.0065
  448loPI   C1B 7165   1.826  12.466   8.673  0.2654  0.1584  0.1852
  448loPI   C2B 7166   1.651  12.373   8.325 -0.3128  0.3687  0.0237
  448loPI   C3B 7167   1.343  12.588   8.082 -0.1526  0.2890  0.1751
  448loPI   C4B 7168   1.206  12.992   8.145  0.1515 -0.3572  0.0049
  449loPI    C1 7169   2.733   3.595   9.648  0.0536 -0.2053  0.1249
  449loPI    C2 7170   3.014   3.879   9.654  0.2499 -0.3924 -0.0548
  449loPI    C3 7171   2.908   3.696   9.993 -0.0279  0.0354  0.0977
  449loPI   PO4 7172   2.804   3.441   9.478  0.5127  0.0366 -0.2174
  449loPI   GL1 7173   2.845   3.363   9.026 -0.3301  0.0814 -0.0783
  449loPI   GL2 7174   3.086   3.221   9.057  0.5620 -0.0399  0.4038
  449loPI   C1A 7175   2.770   3.347   8.603  0.0495 -0.2351 -0.3564
  449loPI   C2A 7176   2.873   3.066   8.201 -0.0334  0.3957 -0.0110
  449loPI   C3A 7177   2.794   3.094   7.653  0.0893 -0.1299 -0.3042
  449loPI   C4A 7178   2.439   3.013   7.556 -0.1062 -0.3435 -0.0204
  449loPI   C5A 7179   2.330   3.095   7.119 -0.3005  0.1589 -0.1786
  449loPI   C6A 7180   2.443   3.418   6.915  0.1172 -0.2560 -0.0640
  449loPI   C1B 7181   3.133   3.003   8.746 -0.0928  0.2045  0.1280
  449loPI   C2B 7182   2.677   2.875   8.678  0.2085 -0.1144 -0.2163
  449loPI   C3B 7183   2.303   2.862   8.777 -0.0660 -0.0663 -0.0699
  449loPI   C4B 7184   1.999   2.585   8.809 -0.2314 -0.2948 -0.1933
  450loPI    C1 7185  13.108  14.797  10.209  0.1374 -0.0266  0.1576
  450loPI    C2 7186  12.890  14.764  10.543 -0.0264 -0.0968  0.0452
  450loPI    C3 7187  13.028  14.436  10.360 -0.0846 -0.0680 -0.0517
  450loPI   PO4 7188  13.200  15.091  10.317  0.2341  0.1506  0.0301
  450loPI   GL1 7189  13.413  15.207   9.890  0.1993 -0.2821  0.1928
  450loPI   GL2 7190  13.506  14.926   9.926  0.0289  0.2208 -0.2504
  450loPI   C1A 7191  13.135  15.256   9.543 -0.1341  0.1425  0.0809
  450loPI   C2A 7192  13.167  15.591   9.128 -0.0556  0.0843 -0.1478
  450loPI   C3A 7193  13.150  15.634   8.684  0.3481 -0.1393 -0.1514
  450loPI   C4A 7194  13.116  15.884   8.313 -0.1499 -0.0586 -0.2107
  450loPI   C5A 7195  13.469  15.834   7.959  0.4179 -0.0529  0.3166
  450loPI   C6A 7196  13.768  16.152   7.932 -0.2307 -0.0679 -0.0555
  450loPI   C1B 7197  13.400  14.822   9.475 -0.1568 -0.1417  0.0447
  450loPI   C2B 7198  13.582  14.665   9.092  0.0141 -0.0413 -0.0410
  450loPI   C3B 7199  13.509  14.791   8.689  0.1003 -0.1081  0.0503
  450loPI   C4B 7200  13.399  15.228   8.427 -0.4126 -0.1385 -0.0189
  451loPI    C1 7201   5.661   2.532   9.992 -0.3114 -0.1723  0.0609
  451loPI    C2 7202   5.464   2.697   9.685  0.0650  0.2391  0.0311
  451loPI    C3 7203   5.356   2.781  10.061 -0.0539  0.1625  0.0145
  451loPI   PO4 7204   5.934   2.603   9.855  0.0620 -0.2717  0.0481
  451loPI   GL1 7205   6.158   2.615   9.397 -0.0601 -0.1675 -0.2053
  451loPI   GL2 7206   6.333   2.334   9.416 -0.1897 -0.3441 -0.2156
  451loPI   C1A 7207   6.289   2.697   9.017 -0.2670 -0.0840 -0.2412
  451loPI   C2A 7208   6.104   2.645   8.652  0.2697  0.0410 -0.0442
  451loPI   C3A 7209   5.861   2.835   8.406 -0.1143 -0.1247 -0.0695
  451loPI   C4A 7210   5.779   2.908   7.911  0.0134  0.1718  0.0737
  451loPI   C5A 7211   5.711   2.916   7.495 -0.0068 -0.0312  0.1418
  451loPI   C6A 7212   6.160   2.783   7.306  0.2432  0.2381 -0.0250
  451loPI   C1B 7213   6.506   2.178   9.049 -0.1296 -0.0997  0.1992
  451loPI   C2B 7214   6.701   2.088   8.701  0.0635 -0.3024 -0.0374
  451loPI   C3B 7215   7.019   2.070   8.317 -0.1535  0.1941  0.4495
  451loPI   C4B 7216   7.204   1.844   8.004  0.0802  0.1530  0.0993
  452loPI    C1 7217   6.855   4.726   9.323 -0.1816  0.2813 -0.0664
  452loPI    C2 7218   6.985   4.746   9.701 -0.1137 -0.1833 -0.0601
  452loPI    C3 7219   6.654   4.944   9.592 -0.0325  0.0999  0.1953
  452loPI   PO4 7220   6.985   4.766   9.179  0.0130 -0.0857  0.0408
  452loPI   GL1 7221   7.272   4.970   8.928 -0.2904 -0.1046 -0.0354
  452loPI   GL2 7222   7.110   5.173   8.956 -0.0034  0.0377 -0.0276
  452loPI   C1A 7223   7.400   4.776   8.514 -0.0346  0.0793 -0.1465
  452loPI   C2A 7224   7.663   4.584   8.136  0.0399  0.0308  0.0282
  452loPI   C3A 7225   7.853   4.638   7.716 -0.1316  0.0395 -0.1438
  452loPI   C4A 7226   7.991   4.533   7.323 -0.1751 -0.3194  0.2202
  452loPI   C5A 7227   7.945   4.644   6.982 -0.0647 -0.1026  0.1532
  452loPI   C6A 7228   8.009   5.023   6.749 -0.1525 -0.0752  0.2046
  452loPI   C1B 7229   6.988   5.166   8.465 -0.3821 -0.2829  0.0270
  452loPI   C2B 7230   7.086   5.523   8.075  0.3980  0.2151 -0.1978
  452loPI   C3B 7231   6.717   5.683   7.832  0.1821  0.3024 -0.2276
  452loPI   C4B 7232   6.576   5.904   7.506 -0.2101  0.2605 -0.0666
  453loPI    C1 7233  17.343   5.968  10.625 -0.1328  0.0565  0.0966
  453loPI    C2 7234  16.944   5.942  10.625 -0.1365  0.0935  0.2782
  453loPI    C3 7235  17.153   5.799  10.934  0.0001 -0.0483  0.1219
  453loPI   PO4 7236  17.441   5.948  10.320 -0.1723 -0.0220  0.3131
  453loPI   GL1 7237  17.353   5.879   9.921  0.1722 -0.1431  0.2905
  453loPI   GL2 7238  17.520   6.197   9.785 -0.2721  0.0424 -0.2066
  453loPI   C1A 7239  17.552   5.675   9.621  0.2260  0.0549  0.0853
  453loPI   C2A 7240  17.492   5.327   9.399  0.0896 -0.0584  0.5475
  453loPI   C3A 7241  17.588   4.922   9.344 -0.1671  0.1063  0.4146
  453loPI   C4A 7242  17.519   4.677   8.980  0.2099  0.3048 -0.1294
  453loPI   C5A 7243  17.433   4.627   8.594 -0.0631  0.1740  0.0300
  453loPI   C6A 7244  17.436   4.900   8.211  0.3305 -0.0042  0.1495
  453loPI   C1B 7245  17.560   6.119   9.328  0.2513 -0.0044 -0.3423
  453loPI   C2B 7246  17.480   6.161   8.881 -0.2673  0.0211 -0.1373
  453loPI   C3B 7247  17.602   6.119   8.410 -0.0624 -0.0766 -0.1334
  453loPI   C4B 7248  17.405   6.122   7.984  0.0181  0.0005  0.1499
  454loPI    C1 7249  18.108  16.672  10.279 -0.0118 -0.0473 -0.1720
  454loPI    C2 7250  18.435  16.530  10.461 -0.0900 -0.3229 -0.2421
  454loPI    C3 7251  18.080  16.512  10.645 -0.0671 -0.0190 -0.1636
  454loPI   PO4 7252  18.189  16.724  10.043  0.2449 -0.0085  0.3685
  454loPI   GL1 7253  18.245  16.569   9.691  0.0265  0.0248  0.1830
  454loPI   GL2 7254  18.627  16.752   9.729 -0.0002  0.2392  0.0718
  454loPI   C1A 7255  18.311  16.460   9.268  0.2576 -0.3055  0.0864
  454loPI   C2A 7256  18.267  16.355   8.870  0.2912 -0.4567  0.0661
  454loPI   C3A 7257  18.268  16.255   8.411 -0.1755 -0.0289  0.0754
  454loPI   C4A 7258  18.374  16.125   7.960 -0.1515  0.2807  0.0561
  454loPI   C5A 7259  18.798  16.238   7.813  0.2515 -0.2151 -0.3034
  454loPI   C6A 7260  19.104  15.937   7.748 -0.3070  0.1294 -0.1485
  454loPI   C1B 7261  18.726  16.729   9.368  0.0491  0.0680  0.0696
  454loPI   C2B 7262  18.833  16.580   8.957  0.1200 -0.2323  0.3764
  454loPI   C3B 7263  18.757  16.459   8.468 -0.4306 -0.0665  0.1262
  454loPI   C4B 7264  18.535  16.579   8.076  0.0255  0.0858 -0.1642
  455loPI    C1 7265   3.022  18.213   9.362  0.2838 -0.1119  0.1763
  455loPI    C2 7266   2.959  18.280   9.751 -0.0708  0.2346  0.0655
  455loPI    C3 7267   2.760  18.493   9.476  0.0447 -0.1273 -0.3082
  455loPI   PO4 7268   3.261  18.297   9.284  0.1247 -0.1045  0.1280
  455loPI   GL1 7269   3.603  18.340   9.014  0.0408  0.0321  0.3475
  455loPI   GL2 7270   4.008  18.145   8.813 -0.6228 -0.3330 -0.1689
  455loPI   C1A 7271   3.683  18.340   8.560 -0.2661  0.0186 -0.1615
  455loPI   C2A 7272   3.836  18.419   8.172 -0.2343 -0.1401  0.3576
  455loPI   C3A 7273   4.109  18.462   7.785 -0.0090 -0.1324  0.1178
  455loPI   C4A 7274   4.159  18.346   7.359 -0.2480  0.2103 -0.4590
  455loPI   C5A 7275   4.169  18.061   7.199 -0.2285  0.0304 -0.0363
  455loPI   C6A 7276   4.260  17.877   6.791 -0.0181  0.1606  0.0969
  455loPI   C1B 7277   4.248  17.972   8.483 -0.1499 -0.2945  0.0212
  455loPI   C2B 7278   4.173  17.707   8.165  0.0937  0.0577 -0.2219
  455loPI   C3B 7279   4.005  17.482   7.773 -0.0163  0.0709 -0.0482
  455loPI   C4B 7280   3.645  17.382   7.765 -0.1576 -0.0643 -0.1720
  456loPI    C1 7281  17.613   4.666  10.486  0.0395 -0.1116  0.1585
  456loPI    C2 7282  17.718   4.577  10.862 -0.1980  0.0213  0.2581
  456loPI    C3 7283  17.821   4.930  10.703 -0.1061 -0.0309  0.2012
  456loPI   PO4 7284  17.669   4.504  10.360 -0.1237  0.2049  0.1238
  456loPI   GL1 7285  17.519   4.228  10.101  0.2620 -0.5584  0.2480
  456loPI   GL2 7286  17.533   4.453   9.835 -0.3289 -0.0906  0.0724
  456loPI   C1A 7287  17.472   3.922   9.734  0.0153 -0.1516  0.1609
  456loPI   C2A 7288  17.511   3.880   9.330 -0.2689 -0.1745 -0.0381
  456loPI   C3A 7289  17.342   3.720   8.957  0.2311 -0.3659  0.1226
  456loPI   C4A 7290  17.173   3.578   8.543  0.0186 -0.2184 -0.2241
  456loPI   C5A 7291  17.268   3.373   8.236  0.0055 -0.1605  0.1355
  456loPI   C6A 7292  17.489   3.303   7.842  0.0763 -0.0534 -0.1192
  456loPI   C1B 7293  17.257   4.565   9.480 -0.2755 -0.0001 -0.2120
  456loPI   C2B 7294  16.898   4.540   9.285 -0.2064 -0.0887  0.2468
  456loPI   C3B 7295  16.373   4.534   9.197  0.2221  0.3444  0.1299
  456loPI   C4B 7296  16.035   4.260   9.468 -0.0640 -0.0771 -0.0374
  457loPI    C1 7297   7.274  15.444  10.009  0.1582  0.1381  0.0907
  457loPI    C2 7298   7.112  15.398   9.646  0.3039 -0.0932  0.0525
  457loPI    C3 7299   6.958  15.664   9.903  0.0144 -0.1403 -0.0686
  457loPI   PO4 7300   7.513  15.390   9.952 -0.4455  0.2118 -0.3786
  457loPI   GL1 7301   7.755  15.427   9.611 -0.1493  0.1193 -0.0520
  457loPI   GL2 7302   7.514  15.196   9.360  0.0891  0.0994 -0.0597
  457loPI   C1A 7303   7.597  15.654   9.229  0.0297  0.0281  0.1395
  457loPI   C2A 7304   7.439  15.603   8.882  0.0140  0.5046  0.0866
  457loPI   C3A 7305   7.542  15.521   8.505  0.1250 -0.1015  0.1874
  457loPI   C4A 7306   7.415  15.597   8.065  0.1447 -0.3127  0.0245
  457loPI   C5A 7307   7.542  15.286   7.760  0.2047 -0.0870 -0.1430
  457loPI   C6A 7308   7.631  14.910   7.679 -0.0839 -0.1085 -0.0556
  457loPI   C1B 7309   7.662  15.151   8.942 -0.3860  0.2776  0.0168
  457loPI   C2B 7310   7.719  15.013   8.480  0.4430  0.3663 -0.0679
  457loPI   C3B 7311   7.948  15.074   8.090 -0.2612 -0.0590  0.0109
  457loPI   C4B 7312   8.015  15.172   7.649  0.6756 -0.0387  0.0097
  458loPI    C1 7313   4.599   3.107   9.935 -0.0453  0.0235  0.0545
  458loPI    C2 7314   4.889   3.033  10.200 -0.1148  0.0224  0.1307
  458loPI    C3 7315   4.977   3.210   9.852 -0.0230  0.0223  0.1535
  458loPI   PO4 7316   4.531   2.948   9.892  0.2455 -0.2125  0.0535
  458loPI   GL1 7317   4.338   2.808   9.521 -0.0791 -0.1653 -0.2449
  458loPI   GL2 7318   4.283   3.059   9.443  0.0108 -0.0142  0.0750
  458loPI   C1A 7319   4.541   2.634   9.088  0.2697 -0.2290  0.2655
  458loPI   C2A 7320   4.606   2.639   8.614 -0.0253 -0.1969  0.0373
  458loPI   C3A 7321   4.477   2.803   8.202 -0.5083  0.0783 -0.2176
  458loPI   C4A 7322   4.569   2.572   7.727 -0.1179  0.1105 -0.2927
  458loPI   C5A 7323   4.468   2.640   7.303  0.2858 -0.3276  0.0121
  458loPI   C6A 7324   4.808   2.862   7.134 -0.1436  0.0853  0.3670
  458loPI   C1B 7325   4.251   3.114   8.956 -0.0131  0.1656 -0.2085
  458loPI   C2B 7326   4.155   2.824   8.604 -0.0143 -0.4781  0.2290
  458loPI   C3B 7327   3.891   2.737   8.154 -0.1153 -0.1233 -0.1907
  458loPI   C4B 7328   3.618   2.442   7.920 -0.0560 -0.3679  0.1549
  459loPI    C1 7329  18.430  12.316   9.920 -0.2481 -0.1091  0.1517
  459loPI    C2 7330  18.258  12.168  10.249 -0.0551 -0.1615  0.2300
  459loPI    C3 7331  18.459  11.926  10.003 -0.2421 -0.1315  0.0454
  459loPI   PO4 7332  18.236  12.483   9.856 -0.0956  0.0884  0.2498
  459loPI   GL1 7333  18.405  12.718   9.554  0.0110  0.0253  0.0526
  459loPI   GL2 7334  18.545  12.323   9.420  0.4553 -0.4010 -0.2354
  459loPI   C1A 7335  18.358  12.633   9.095 -0.4644 -0.2010 -0.2279
  459loPI   C2A 7336  18.390  12.478   8.752 -0.4268  0.0535  0.4010
  459loPI   C3A 7337  18.202  12.461   8.436  0.0495 -0.2970  0.0558
  459loPI   C4A 7338  17.877  12.588   8.312  0.1123  0.0575  0.1261
  459loPI   C5A 7339  17.522  12.594   8.006 -0.2633 -0.1136 -0.1054
  459loPI   C6A 7340  17.165  12.684   7.723  0.1806 -0.0178  0.1038
  459loPI   C1B 7341  18.701  12.157   9.064 -0.1161 -0.0089  0.0030
  459loPI   C2B 7342  18.574  11.958   8.751 -0.0446  0.2602  0.3955
  459loPI   C3B 7343  18.357  11.906   8.405 -0.0208  0.3157  0.3205
  459loPI   C4B 7344  17.985  12.066   8.149 -0.2385  0.1729 -0.0017
  460loPI    C1 7345   0.175  12.533   9.566  0.1391  0.1026  0.0992
  460loPI    C2 7346   0.163  12.918   9.457  0.2190  0.1514  0.2582
  460loPI    C3 7347  -0.175  12.725   9.547  0.1383  0.0778 -0.1779
  460loPI   PO4 7348   0.497  12.504   9.450 -0.1760 -0.0859  0.0952
  460loPI   GL1 7349   0.893  12.816   9.323  0.0479 -0.0200  0.0781
  460loPI   GL2 7350   0.552  12.927   9.155 -0.0644  0.3679  0.1103
  460loPI   C1A 7351   0.960  12.871   8.831  0.1777  0.2199 -0.0225
  460loPI   C2A 7352   0.726  12.984   8.369  0.3172 -0.0392  0.3374
  460loPI   C3A 7353   0.367  13.214   8.185  0.0621 -0.1598  0.0623
  460loPI   C4A 7354  -0.002  13.343   8.032  0.2589  0.1182 -0.0888
  460loPI   C5A 7355  -0.221  13.637   7.821  0.1064  0.2462  0.0704
  460loPI   C6A 7356   0.016  13.624   7.363 -0.2862 -0.1082  0.0581
  460loPI   C1B 7357   0.475  12.770   8.737  0.0336 -0.1839 -0.1672
  460loPI   C2B 7358   0.186  12.820   8.471 -0.0900 -0.0629  0.0571
  460loPI   C3B 7359   0.190  12.720   8.091 -0.2031 -0.2604 -0.0655
  460loPI   C4B 7360   0.413  12.456   7.804 -0.2944 -0.3809 -0.1250
  461loPI    C1 7361   7.916   5.543   9.740  0.0815 -0.0349 -0.0287
  461loPI    C2 7362   7.715   5.239   9.905  0.3606 -0.0558  0.2832
  461loPI    C3 7363   8.103   5.289   9.986  0.4246  0.1300 -0.1141
  461loPI   PO4 7364   7.865   5.553   9.405 -0.0699 -0.0895  0.2239
  461loPI   GL1 7365   8.021   5.555   9.102 -0.3358 -0.1445 -0.0780
  461loPI   GL2 7366   8.195   5.258   8.912  0.2056 -0.1188 -0.2378
  461loPI   C1A 7367   7.832   5.624   8.705 -0.0276  0.0898  0.0954
  461loPI   C2A 7368   7.626   5.874   8.272 -0.3120 -0.2531  0.3731
  461loPI   C3A 7369   7.784   6.005   7.844 -0.0661  0.0332  0.3531
  461loPI   C4A 7370   7.702   6.009   7.393  0.0928  0.1177 -0.1269
  461loPI   C5A 7371   7.415   5.928   7.122  0.0289 -0.0263 -0.3398
  461loPI   C6A 7372   6.982   5.693   7.299 -0.2318 -0.1840 -0.0907
  461loPI   C1B 7373   8.211   5.445   8.467 -0.1171 -0.0196 -0.1569
  461loPI   C2B 7374   7.961   5.567   8.085  0.2137  0.0243 -0.1296
  461loPI   C3B 7375   7.536   5.478   7.812 -0.0016  0.1470  0.1185
  461loPI   C4B 7376   7.319   5.886   7.701 -0.0848 -0.0857  0.0481
  462loPI    C1 7377  11.272   7.757   9.999  0.1905  0.0746  0.1458
  462loPI    C2 7378  11.642   7.818   9.859  0.1188  0.1358 -0.0199
  462loPI    C3 7379  11.488   8.066  10.132  0.2681  0.0022  0.1881
  462loPI   PO4 7380  11.121   7.666   9.799 -0.0801  0.1022 -0.2028
  462loPI   GL1 7381  10.939   7.653   9.329 -0.1027 -0.3763  0.3272
  462loPI   GL2 7382  10.844   7.442   9.062 -0.0064 -0.1294  0.1739
  462loPI   C1A 7383  11.189   7.794   8.904  0.2746  0.0544  0.3503
  462loPI   C2A 7384  11.265   7.660   8.419  0.1130  0.4024  0.0537
  462loPI   C3A 7385  11.321   7.609   7.969 -0.0928  0.1623  0.0860
  462loPI   C4A 7386  11.407   7.470   7.516  0.1638 -0.1650 -0.3494
  462loPI   C5A 7387  11.694   7.332   7.158  0.1844 -0.3189 -0.2569
  462loPI   C6A 7388  11.882   7.185   6.844  0.1715  0.2372  0.0194
  462loPI   C1B 7389  10.880   7.437   8.741 -0.3020  0.2410  0.1673
  462loPI   C2B 7390  10.822   7.360   8.225  0.0910 -0.1009  0.3162
  462loPI   C3B 7391  10.699   7.617   7.872 -0.0347  0.3009  0.0788
  462loPI   C4B 7392  10.445   7.896   7.525  0.2482  0.2063 -0.1200
  463loPI    C1 7393  10.478   1.328  10.017  0.1517  0.2966 -0.3477
  463loPI    C2 7394  10.164   1.086   9.964  0.3131 -0.0052  0.0269
  463loPI    C3 7395  10.247   1.367   9.692 -0.1593 -0.0518 -0.1767
  463loPI   PO4 7396  10.704   1.167   9.951 -0.0927  0.1610 -0.0212
  463loPI   GL1 7397  11.046   1.029   9.642 -0.2456 -0.1744  0.0183
  463loPI   GL2 7398  10.861   0.800   9.675 -0.4244  0.4369 -0.0394
  463loPI   C1A 7399  11.224   1.032   9.307  0.3152 -0.1741  0.2006
  463loPI   C2A 7400  11.203   1.172   8.946  0.3270  0.0366  0.0493
  463loPI   C3A 7401  11.067   1.025   8.495  0.1538  0.1500 -0.2579
  463loPI   C4A 7402  10.911   1.321   8.150  0.0395  0.2275  0.1501
  463loPI   C5A 7403  10.732   1.366   7.735 -0.0801 -0.1651  0.1679
  463loPI   C6A 7404  10.522   1.122   7.413 -0.1046  0.3096  0.0496
  463loPI   C1B 7405  10.770   0.558   9.384 -0.1204 -0.0239  0.1965
  463loPI   C2B 7406  10.895   0.628   9.023 -0.0292 -0.0896 -0.0649
  463loPI   C3B 7407  10.831   0.486   8.632 -0.0607 -0.1375 -0.0377
  463loPI   C4B 7408  10.987   0.392   8.290  0.3087  0.3060  0.0837
  464loPI    C1 7409   5.796   0.037   9.827 -0.2162  0.2432 -0.1861
  464loPI    C2 7410   5.877   0.284  10.130 -0.1860 -0.0311  0.0336
  464loPI    C3 7411   6.067  -0.067  10.103 -0.0567  0.0672 -0.4048
  464loPI   PO4 7412   5.749   0.181   9.632  0.0579  0.3218 -0.0898
  464loPI   GL1 7413   5.876   0.175   9.270 -0.2723  0.0296  0.1542
  464loPI   GL2 7414   5.992   0.383   8.977 -0.0469  0.2084 -0.2271
  464loPI   C1A 7415   5.650  -0.041   8.927  0.2413  0.0069  0.2394
  464loPI   C2A 7416   5.651   0.047   8.433  0.0423 -0.0113 -0.1131
  464loPI   C3A 7417   5.878   0.006   8.115 -0.0520 -0.1049  0.1774
  464loPI   C4A 7418   6.090  -0.108   7.768  0.0584  0.2540 -0.2416
  464loPI   C5A 7419   6.244  -0.286   7.398 -0.1020  0.0648 -0.0709
  464loPI   C6A 7420   6.224  -0.500   7.062 -0.0075  0.0106 -0.1119
  464loPI   C1B 7421   6.110   0.273   8.521 -0.2128 -0.2454  0.1353
  464loPI   C2B 7422   6.043   0.474   8.153 -0.1831  0.0859 -0.0817
  464loPI   C3B 7423   6.152   0.749   7.833  0.5012  0.1889  0.2032
  464loPI   C4B 7424   6.482   1.012   7.611 -0.3408 -0.1792  0.2043
  465loPI    C1 7425  16.385   6.966   9.919  0.1308  0.0331  0.2419
  465loPI    C2 7426  16.241   6.604   9.830 -0.0625  0.2118 -0.1964
  465loPI    C3 7427  16.550   6.639  10.080 -0.0942 -0.2480 -0.0837
  465loPI   PO4 7428  16.359   7.100   9.706  0.0428 -0.1492  0.3880
  465loPI   GL1 7429  16.644   7.087   9.389  0.2321 -0.1727  0.2363
  465loPI   GL2 7430  16.910   7.240   9.264 -0.2037 -0.4751  0.0122
  465loPI   C1A 7431  16.576   6.857   9.010  0.1131  0.0894 -0.0757
  465loPI   C2A 7432  16.458   7.073   8.589 -0.3279  0.1121  0.1227
  465loPI   C3A 7433  16.219   7.164   8.279  0.1390 -0.1069 -0.0434
  465loPI   C4A 7434  15.988   7.329   7.888 -0.2417  0.4217  0.0585
  465loPI   C5A 7435  15.821   7.466   7.458 -0.0331 -0.0685  0.0389
  465loPI   C6A 7436  15.465   7.788   7.186  0.1491  0.0189  0.1933
  465loPI   C1B 7437  16.928   7.182   8.789  0.2226 -0.2263 -0.1487
  465loPI   C2B 7438  17.258   6.969   8.514 -0.1268 -0.2949  0.5153
  465loPI   C3B 7439  17.421   6.857   8.047  0.2866 -0.0658 -0.0618
  465loPI   C4B 7440  17.480   6.574   7.595 -0.2333 -0.2047  0.1479
  466loPI    C1 7441  16.042   3.130  10.573 -0.0719  0.2733  0.1273
  466loPI    C2 7442  15.733   2.946  10.748  0.1382 -0.1067  0.1109
  466loPI    C3 7443  16.072   3.005  10.952  0.0954  0.2129  0.0952
  466loPI   PO4 7444  16.108   2.981  10.438 -0.2433  0.1823  0.0272
  466loPI   GL1 7445  15.980   2.988   9.995  0.0233  0.0263 -0.0851
  466loPI   GL2 7446  16.119   2.672   9.871  0.2943 -0.3090 -0.0215
  466loPI   C1A 7447  16.217   3.208   9.716  0.0888 -0.0964  0.0799
  466loPI   C2A 7448  16.291   3.234   9.360 -0.1746  0.1843 -0.1348
  466loPI   C3A 7449  16.237   3.533   9.109  0.2113  0.1394 -0.0182
  466loPI   C4A 7450  16.264   3.523   8.650  0.0344 -0.0607  0.1680
  466loPI   C5A 7451  16.387   3.819   8.289  0.2897  0.2871 -0.4381
  466loPI   C6A 7452  16.785   4.082   8.239  0.0820 -0.1187  0.2441
  466loPI   C1B 7453  16.451   2.711   9.520  0.0924  0.1652  0.0104
  466loPI   C2B 7454  16.431   2.514   9.124 -0.2046 -0.4351 -0.0505
  466loPI   C3B 7455  16.350   2.133   8.772 -0.0506 -0.1678  0.3052
  466loPI   C4B 7456  16.059   1.804   8.466 -0.0163 -0.1077 -0.1515
  467loPI    C1 7457  12.148   0.033  10.239 -0.0414  0.0762 -0.0443
  467loPI    C2 7458  11.944  -0.307  10.182  0.0393  0.0477 -0.1686
  467loPI    C3 7459  12.088  -0.218  10.545 -0.1804  0.0609 -0.0833
  467loPI   PO4 7460  12.321   0.045  10.000  0.2738 -0.2732 -0.0419
  467loPI   GL1 7461  12.254  -0.286   9.690 -0.1882  0.0918 -0.1382
  467loPI   GL2 7462  12.547  -0.402   9.501  0.1609 -0.1271 -0.0438
  467loPI   C1A 7463  12.113  -0.089   9.332  0.0358  0.1026 -0.0000
  467loPI   C2A 7464  12.360  -0.020   8.848  0.1017 -0.3162 -0.1796
  467loPI   C3A 7465  12.667   0.221   8.618  0.2739  0.1584 -0.4591
  467loPI   C4A 7466  13.022   0.381   8.547 -0.4461 -0.1873 -0.0034
  467loPI   C5A 7467  13.234   0.683   8.540  0.3102 -0.3734 -0.1249
  467loPI   C6A 7468  13.506   0.903   8.164 -0.3403 -0.2038 -0.0381
  467loPI   C1B 7469  12.221  -0.514   9.240  0.1378  0.1083  0.1171
  467loPI   C2B 7470  12.149  -0.478   8.804  0.1118 -0.1069  0.1020
  467loPI   C3B 7471  12.251  -0.373   8.394 -0.2538  0.2667  0.3505
  467loPI   C4B 7472  12.095  -0.365   8.031  0.0544 -0.0475 -0.2081
  468loPI    C1 7473   9.642  10.610  10.057  0.1201 -0.0321 -0.0641
  468loPI    C2 7474  10.012  10.466  10.105  0.0846 -0.0737  0.0913
  468loPI    C3 7475   9.825  10.644  10.411 -0.0420 -0.0954  0.0273
  468loPI   PO4 7476   9.525  10.459   9.868  0.3346 -0.1203  0.2674
  468loPI   GL1 7477   9.789  10.319   9.516  0.1118  0.0175 -0.2730
  468loPI   GL2 7478  10.043  10.092   9.635 -0.0538  0.1130  0.2657
  468loPI   C1A 7479   9.934  10.165   9.136 -0.1366  0.1186 -0.1510
  468loPI   C2A 7480  10.096  10.288   8.739  0.4750  0.0965  0.1006
  468loPI   C3A 7481  10.196  10.504   8.447 -0.0203 -0.1319 -0.0465
  468loPI   C4A 7482  10.140  10.685   7.956  0.0764  0.1935  0.0022
  468loPI   C5A 7483  10.129  11.044   7.631  0.0757  0.1401  0.2522
  468loPI   C6A 7484  10.072  11.437   7.412 -0.1798 -0.2006  0.2002
  468loPI   C1B 7485  10.193   9.813   9.449 -0.0113 -0.3508  0.0312
  468loPI   C2B 7486  10.189   9.609   9.082  0.4661 -0.0922  0.1302
  468loPI   C3B 7487  10.510   9.578   8.676 -0.0828 -0.0971  0.0544
  468loPI   C4B 7488  10.677   9.459   8.231  0.0176  0.1350 -0.2025
  469loPI    C1 7489   3.787   5.972   9.574  0.0190 -0.4435  0.0173
  469loPI    C2 7490   3.571   5.859   9.890  0.3045 -0.2615  0.2831
  469loPI    C3 7491   3.753   6.215   9.889 -0.0829 -0.0497 -0.2886
  469loPI   PO4 7492   3.641   6.027   9.361  0.3171  0.2880 -0.1396
  469loPI   GL1 7493   3.749   5.877   9.004  0.0951  0.2416  0.1831
  469loPI   GL2 7494   3.807   5.569   8.831  0.0471  0.2728  0.0286
  469loPI   C1A 7495   3.632   6.131   8.656 -0.2042  0.1163 -0.0288
  469loPI   C2A 7496   3.595   6.215   8.246 -0.1598  0.3364 -0.1857
  469loPI   C3A 7497   3.763   6.172   7.933 -0.4127  0.3136  0.0321
  469loPI   C4A 7498   3.902   6.148   7.464 -0.0352 -0.1397 -0.2369
  469loPI   C5A 7499   3.831   6.092   7.114 -0.0837  0.0793  0.2441
  469loPI   C6A 7500   4.018   6.074   6.679 -0.3516  0.2638  0.1062
  469loPI   C1B 7501   3.685   5.680   8.300 -0.1056  0.1230  0.0776
  469loPI   C2B 7502   3.742   5.643   7.891 -0.0556 -0.0431  0.2793
  469loPI   C3B 7503   4.020   5.563   7.574  0.0792 -0.2964 -0.0573
  469loPI   C4B 7504   4.227   5.791   7.246  0.1877 -0.0895  0.0958
  470loPI    C1 7505  11.734  14.340  10.845  0.2250  0.0087 -0.1783
  470loPI    C2 7506  11.349  14.232  10.855  0.1795  0.1814 -0.0008
  470loPI    C3 7507  11.471  14.555  11.056  0.4051  0.1692 -0.1149
  470loPI   PO4 7508  11.782  14.129  10.617 -0.0686  0.1906  0.3115
  470loPI   GL1 7509  11.819  14.065  10.146  0.1642  0.2179  0.1861
  470loPI   GL2 7510  12.087  13.985  10.046 -0.2025 -0.1013 -0.0497
  470loPI   C1A 7511  11.552  13.874   9.920 -0.0190  0.0060 -0.1360
  470loPI   C2A 7512  11.457  13.715   9.456  0.2548  0.0278 -0.7217
  470loPI   C3A 7513  11.596  13.625   8.948  0.3913 -0.2389  0.1408
  470loPI   C4A 7514  11.427  13.415   8.719  0.1091  0.0938 -0.0999
  470loPI   C5A 7515  11.228  13.638   8.333 -0.0525 -0.2145  0.1221
  470loPI   C6A 7516  11.355  13.849   8.046  0.2349 -0.0118  0.0023
  470loPI   C1B 7517  12.236  13.877   9.709 -0.0724  0.1883  0.0588
  470loPI   C2B 7518  12.370  13.836   9.320  0.0203 -0.1147  0.0946
  470loPI   C3B 7519  12.437  13.697   8.928 -0.1117 -0.1496 -0.1155
  470loPI   C4B 7520  12.381  13.580   8.509  0.1665  0.1574 -0.1952
  471loPI    C1 7521   6.867   5.571   9.371  0.1150 -0.3249  0.0544
  471loPI    C2 7522   6.774   5.411   9.726 -0.0426 -0.0276  0.1502
  471loPI    C3 7523   7.064   5.685   9.699 -0.0937  0.0187  0.0646
  471loPI   PO4 7524   6.655   5.630   9.218  0.1179 -0.0491 -0.0914
  471loPI   GL1 7525   6.764   5.549   8.780 -0.1051 -0.3325  0.1183
  471loPI   GL2 7526   6.617   5.830   8.766  0.0156 -0.2886  0.1169
  471loPI   C1A 7527   6.533   5.488   8.346 -0.0781 -0.1912 -0.0733
  471loPI   C2A 7528   6.256   5.479   8.084 -0.0634  0.1347  0.2202
  471loPI   C3A 7529   6.127   5.597   7.698 -0.2690 -0.1055 -0.2953
  471loPI   C4A 7530   6.028   5.764   7.303 -0.2013 -0.0257  0.2205
  471loPI   C5A 7531   6.109   5.862   6.926 -0.6203  0.0138  0.3888
  471loPI   C6A 7532   5.873   5.811   6.435 -0.2948 -0.0414  0.1451
  471loPI   C1B 7533   6.476   5.945   8.347 -0.1799  0.3711 -0.1136
  471loPI   C2B 7534   6.364   5.972   7.973 -0.1048  0.2753 -0.1313
  471loPI   C3B 7535   6.257   6.266   7.602  0.2782 -0.2174  0.0001
  471loPI   C4B 7536   6.248   6.237   7.226 -0.1665 -0.1997 -0.0942
  472loPI    C1 7537  16.271   7.774   9.880 -0.1362  0.0430 -0.0182
  472loPI    C2 7538  16.299   8.134   9.707 -0.0689  0.0593  0.0257
  472loPI    C3 7539  16.207   8.106  10.095 -0.0836  0.0286  0.0201
  472loPI   PO4 7540  16.157   7.667   9.673 -0.1722  0.0083  0.3740
  472loPI   GL1 7541  16.231   7.670   9.271 -0.0911  0.3354  0.1099
  472loPI   GL2 7542  16.106   7.341   9.286  0.2844 -0.1478  0.0492
  472loPI   C1A 7543  16.541   7.452   9.051 -0.2441  0.0407 -0.0078
  472loPI   C2A 7544  16.559   7.572   8.666 -0.3240 -0.0070  0.1215
  472loPI   C3A 7545  16.661   7.306   8.210  0.2392  0.2310  0.0359
  472loPI   C4A 7546  16.816   7.398   7.851 -0.2199 -0.1674  0.3377
  472loPI   C5A 7547  16.954   7.755   7.614 -0.3495  0.2533 -0.2138
  472loPI   C6A 7548  16.780   7.912   7.313  0.0730  0.2973  0.2346
  472loPI   C1B 7549  16.147   7.120   8.991  0.1150 -0.1329 -0.4598
  472loPI   C2B 7550  15.934   6.988   8.733 -0.1301 -0.0795  0.3254
  472loPI   C3B 7551  15.699   7.118   8.281 -0.0332 -0.2164 -0.1397
  472loPI   C4B 7552  15.576   7.103   7.794 -0.0401  0.1275 -0.1929
  473loPI    C1 7553   3.408   7.739   9.639 -0.0619  0.2963  0.0136
  473loPI    C2 7554   3.215   7.398   9.723 -0.2688  0.3734 -0.1387
  473loPI    C3 7555   3.339   7.636  10.020  0.1169  0.0381 -0.0214
  473loPI   PO4 7556   3.393   7.735   9.341  0.2433 -0.0680  0.2515
  473loPI   GL1 7557   3.516   7.842   8.983  0.1382 -0.1288 -0.1382
  473loPI   GL2 7558   3.823   7.716   8.827  0.1554  0.3268 -0.0617
  473loPI   C1A 7559   3.330   7.932   8.570  0.1688  0.1915 -0.1112
  473loPI   C2A 7560   2.931   7.914   8.124  0.0030 -0.0228  0.2080
  473loPI   C3A 7561   2.955   8.076   7.718 -0.0386  0.1286  0.2454
  473loPI   C4A 7562   2.883   8.028   7.271  0.1058 -0.0682  0.0102
  473loPI   C5A 7563   2.620   8.025   6.954  0.1564 -0.2044 -0.1701
  473loPI   C6A 7564   2.431   8.118   6.616  0.0313 -0.1291 -0.0950
  473loPI   C1B 7565   3.796   7.759   8.414  0.0737  0.2121 -0.1976
  473loPI   C2B 7566   3.829   7.754   7.969 -0.1127 -0.0759 -0.0876
  473loPI   C3B 7567   3.810   8.056   7.728 -0.3291 -0.3294 -0.0140
  473loPI   C4B 7568   3.805   8.094   7.324 -0.2346  0.0432 -0.0441
  474POPI    C1 7569  13.565  16.204  10.937 -0.0066 -0.1911  0.1094
  474POPI    C2 7570  13.815  16.436  11.146  0.1085 -0.1981 -0.0197
  474POPI    C3 7571  13.705  16.080  11.291  0.0937 -0.1516  0.0837
  474POPI   PO4 7572  13.656  16.064  10.618 -0.1476 -0.0573  0.0270
  474POPI   GL1 7573  14.135  15.941  10.410 -0.1162 -0.1622  0.0815
  474POPI   GL2 7574  13.898  16.078  10.233  0.1153 -0.0515 -0.2958
  474POPI   C1A 7575  14.194  15.858   9.951  0.1557 -0.0175 -0.0865
  474POPI   D2A 7576  14.118  15.747   9.601 -0.0354  0.5164  0.1154
  474POPI   C3A 7577  13.844  15.668   9.180  0.2008  0.1072  0.2699
  474POPI   C4A 7578  13.537  15.941   8.897  0.2307 -0.2813 -0.3259
  474POPI   C1B 7579  13.846  16.217   9.764 -0.0151  0.0887 -0.0775
  474POPI   C2B 7580  13.948  16.129   9.346 -0.0481 -0.2451 -0.2008
  474POPI   C3B 7581  13.988  16.135   8.958  0.2600 -0.0794 -0.0466
  474POPI   C4B 7582  13.950  16.152   8.585  0.0278  0.0528 -0.0431
  475POPI    C1 7583  11.105   0.451  10.236  0.1417  0.0787 -0.0467
  475POPI    C2 7584  10.718   0.465  10.336  0.0828 -0.0322 -0.2534
  475POPI    C3 7585  10.998   0.453  10.621 -0.0703 -0.0738 -0.1031
  475POPI   PO4 7586  11.040   0.398   9.976  0.1221 -0.4782 -0.2436
  475POPI   GL1 7587  10.890   0.044   9.588  0.1982 -0.4940  0.1406
  475POPI   GL2 7588  10.591   0.236   9.734  0.1736  0.2067 -0.1994
  475POPI   C1A 7589  10.996   0.130   9.110 -0.1161  0.1306  0.1971
  475POPI   D2A 7590  10.888   0.000   8.736  0.1155  0.2131 -0.1496
  475POPI   C3A 7591  11.117  -0.125   8.452  0.3714  0.2213  0.2086
  475POPI   C4A 7592  11.201  -0.207   7.925 -0.2574 -0.0641 -0.3197
  475POPI   C1B 7593  10.471   0.193   9.284 -0.0987  0.3488 -0.2066
  475POPI   C2B 7594  10.456   0.107   8.957  0.0590 -0.0392  0.1012
  475POPI   C3B 7595  10.385  -0.147   8.613  0.0731 -0.0753 -0.0080
  475POPI   C4B 7596  10.223  -0.417   8.203 -0.3247 -0.3201  0.0049
  476POPI    C1 7597   0.436   7.505   9.753  0.0276  0.1615  0.0452
  476POPI    C2 7598   0.692   7.785   9.880 -0.0636  0.2336  0.0714
  476POPI    C3 7599   0.771   7.399   9.943 -0.0019  0.2594  0.1535
  476POPI   PO4 7600   0.452   7.503   9.541  0.0741 -0.3634  0.1181
  476POPI   GL1 7601   0.271   7.696   9.177  0.2690  0.3020 -0.1069
  476POPI   GL2 7602   0.223   7.642   8.802  0.2055  0.0977 -0.0633
  476POPI   C1A 7603  -0.115   7.554   9.104 -0.2244 -0.0028  0.1499
  476POPI   D2A 7604  -0.426   7.619   8.903  0.1484 -0.2587  0.1272
  476POPI   C3A 7605  -0.538   7.549   8.514  0.1444  0.0021 -0.1403
  476POPI   C4A 7606  -1.004   7.353   8.444 -0.1269 -0.0837  0.2136
  476POPI   C1B 7607   0.010   7.561   8.481  0.2460 -0.1140  0.2787
  476POPI   C2B 7608   0.167   7.552   8.120 -0.3846  0.2809 -0.0330
  476POPI   C3B 7609  -0.010   7.401   7.745 -0.5275  0.2230  0.0953
  476POPI   C4B 7610  -0.100   7.531   7.448 -0.3630  0.1057 -0.1057
  477POPI    C1 7611  14.100   3.391  10.083  0.3705  0.1375 -0.0165
  477POPI    C2 7612  13.796   3.309  10.330  0.1261 -0.1091 -0.3877
  477POPI    C3 7613  14.173   3.289  10.462 -0.0145  0.2877  0.1037
  477POPI   PO4 7614  14.070   3.597  10.011  0.0910  0.4454 -0.0836
  477POPI   GL1 7615  14.047   3.711   9.609  0.2044  0.1121 -0.1439
  477POPI   GL2 7616  14.346   3.884   9.401  0.2123 -0.2602 -0.3041
  477POPI   C1A 7617  13.885   3.579   9.257 -0.2811  0.2883 -0.0865
  477POPI   D2A 7618  13.692   3.507   8.951  0.0096  0.0077 -0.0169
  477POPI   C3A 7619  13.904   3.334   8.583  0.0263  0.3076  0.0615
  477POPI   C4A 7620  14.343   3.130   8.372  0.2978 -0.5323  0.1790
  477POPI   C1B 7621  14.532   4.206   9.118  0.1971  0.1090  0.0040
  477POPI   C2B 7622  14.600   4.466   8.685  0.0366  0.0179 -0.1418
  477POPI   C3B 7623  14.858   4.796   8.355  0.0069 -0.0085 -0.1273
  477POPI   C4B 7624  15.220   5.118   8.173  0.1382  0.2418  0.3316
  478POPI    C1 7625  16.571   9.571   9.865 -0.0780  0.2828  0.0149
  478POPI    C2 7626  16.724   9.751  10.188  0.1701  0.2020 -0.0552
  478POPI    C3 7627  16.527   9.405  10.226 -0.0047  0.3096  0.0363
  478POPI   PO4 7628  16.642   9.816   9.667 -0.1291  0.2783  0.2049
  478POPI   GL1 7629  16.637   9.689   9.281 -0.1767  0.1573  0.1452
  478POPI   GL2 7630  17.040   9.667   9.309  0.2092 -0.0621 -0.1004
  478POPI   C1A 7631  16.736   9.541   8.795  0.3419  0.0934 -0.1402
  478POPI   D2A 7632  16.899   9.148   8.572  0.0208 -0.1301 -0.2987
  478POPI   C3A 7633  16.736   9.263   8.083  0.0081  0.1817  0.0601
  478POPI   C4A 7634  16.714   9.568   7.684 -0.2832  0.0217 -0.4310
  478POPI   C1B 7635  17.214   9.422   8.883  0.2439 -0.1132 -0.4575
  478POPI   C2B 7636  17.369   9.177   8.466  0.2871 -0.0380 -0.2827
  478POPI   C3B 7637  17.257   9.145   8.070  0.0926 -0.0996 -0.2091
  478POPI   C4B 7638  17.207   9.453   7.741 -0.2462 -0.0860 -0.1781
  479POPI    C1 7639   5.741   4.263   9.272  0.0938  0.0608  0.0623
  479POPI    C2 7640   5.654   4.234   8.883 -0.0237 -0.0218  0.0943
  479POPI    C3 7641   5.377   4.144   9.157  0.0125  0.1749  0.1976
  479POPI   PO4 7642   6.002   4.200   9.256 -0.1824  0.2746 -0.1981
  479POPI   GL1 7643   6.199   4.172   8.862 -0.3480  0.0263 -0.1481
  479POPI   GL2 7644   6.300   3.883   9.005  0.1578 -0.4407  0.0667
  479POPI   C1A 7645   6.213   4.059   8.336  0.3606  0.0394 -0.0314
  479POPI   D2A 7646   6.321   4.069   7.952 -0.0635 -0.0891  0.1750
  479POPI   C3A 7647   6.500   4.195   7.616  0.4046  0.0264 -0.1742
  479POPI   C4A 7648   6.703   4.386   7.293  0.0817 -0.2510 -0.1317
  479POPI   C1B 7649   5.948   3.778   8.641  0.2140 -0.2070  0.1624
  479POPI   C2B 7650   5.875   3.647   8.310 -0.1823  0.2879 -0.2103
  479POPI   C3B 7651   5.456   3.785   8.142  0.2278  0.1707  0.4081
  479POPI   C4B 7652   5.044   3.917   8.045 -0.0539  0.0470  0.5100
  480POPI    C1 7653   4.852   8.997   9.480 -0.1429 -0.1572 -0.1195
  480POPI    C2 7654   4.592   8.757   9.667 -0.0079 -0.0937  0.1550
  480POPI    C3 7655   4.780   9.045   9.871  0.0102  0.0927 -0.1201
  480POPI   PO4 7656   4.966   8.678   9.332  0.0070 -0.3705  0.3113
  480POPI   GL1 7657   5.176   8.491   8.950  0.0923 -0.3324 -0.1234
  480POPI   GL2 7658   4.917   8.658   8.761  0.0873  0.0274 -0.0803
  480POPI   C1A 7659   5.347   8.530   8.527 -0.1039  0.1000 -0.2462
  480POPI   D2A 7660   5.043   8.730   8.295  0.2492  0.2397  0.3293
  480POPI   C3A 7661   4.569   8.686   8.414  0.2067  0.1015 -0.0114
  480POPI   C4A 7662   4.149   8.586   8.427  0.2947  0.3944 -0.3239
  480POPI   C1B 7663   4.883   8.318   8.519 -0.0082  0.0058  0.0391
  480POPI   C2B 7664   5.087   8.227   8.148 -0.3763 -0.2226  0.4491
  480POPI   C3B 7665   5.447   8.249   7.898 -0.1979 -0.0693 -0.0277
  480POPI   C4B 7666   5.812   8.009   7.994  0.1120 -0.0935  0.0151
  481POPI    C1 7667  19.061  11.285   9.581 -0.0164  0.0497  0.0041
  481POPI    C2 7668  19.114  11.647   9.419 -0.0433 -0.0648 -0.2645
  481POPI    C3 7669  19.404  11.483   9.641 -0.0886  0.1822 -0.0174
  481POPI   PO4 7670  18.827  11.279   9.626  0.1278 -0.0974  0.1890
  481POPI   GL1 7671  18.486  11.341   9.279  0.0473  0.0078  0.3247
  481POPI   GL2 7672  18.759  11.512   9.130  0.2755 -0.2604 -0.2179
  481POPI   C1A 7673  18.588  11.182   8.861  0.0486 -0.2771  0.5407
  481POPI   D2A 7674  18.742  11.508   8.588  0.1899 -0.2515  0.1057
  481POPI   C3A 7675  18.856  11.389   8.170 -0.2334 -0.2059  0.0981
  481POPI   C4A 7676  18.707  11.487   7.725 -0.3021  0.2566 -0.0221
  481POPI   C1B 7677  19.141  11.356   8.992 -0.1641 -0.0855  0.0190
  481POPI   C2B 7678  19.315  11.361   8.555 -0.2189 -0.0197 -0.0989
  481POPI   C3B 7679  19.381  11.210   8.173  0.1683  0.0661 -0.0583
  481POPI   C4B 7680  19.477  11.279   7.705  0.3445  0.0665 -0.0101
  482POPI    C1 7681   0.231   4.686   9.923 -0.1463  0.1262  0.0607
  482POPI    C2 7682   0.256   5.079   9.854  0.1407  0.0925 -0.0386
  482POPI    C3 7683   0.269   4.940  10.229  0.1340  0.1715 -0.0090
  482POPI   PO4 7684   0.467   4.671   9.621 -0.3206 -0.2071 -0.2264
  482POPI   GL1 7685   0.642   4.749   9.200 -0.0085 -0.0788  0.0962
  482POPI   GL2 7686   0.517   4.457   9.151  0.1183  0.1412  0.1243
  482POPI   C1A 7687   0.400   4.827   8.830  0.4136 -0.4432 -0.1354
  482POPI   D2A 7688   0.052   4.805   8.866  0.1593 -0.1117  0.0715
  482POPI   C3A 7689  -0.189   4.426   8.752 -0.0780  0.4097 -0.0807
  482POPI   C4A 7690  -0.216   4.402   8.409  0.1218 -0.7603  0.1563
  482POPI   C1B 7691   0.327   4.378   8.720  0.3463 -0.0260  0.1185
  482POPI   C2B 7692   0.175   4.701   8.342  0.1849  0.2393 -0.1756
  482POPI   C3B 7693   0.100   4.616   7.992 -0.1412 -0.4640  0.2411
  482POPI   C4B 7694   0.116   4.447   7.573 -0.2874 -0.2284  0.0697
  483POPI    C1 7695   7.447   5.007   9.521  0.0345 -0.0700 -0.4004
  483POPI    C2 7696   7.088   5.164   9.444  0.1281  0.2696 -0.1678
  483POPI    C3 7697   7.411   5.399   9.448  0.3122  0.0186 -0.0860
  483POPI   PO4 7698   7.483   4.780   9.396 -0.1249 -0.0243 -0.3148
  483POPI   GL1 7699   7.634   4.660   8.946 -0.0376  0.0746  0.0903
  483POPI   GL2 7700   7.792   4.921   9.018 -0.0388 -0.1109  0.1961
  483POPI   C1A 7701   7.792   4.498   8.605  0.0979  0.1197 -0.3230
  483POPI   D2A 7702   8.117   4.443   8.311  0.0197 -0.0783  0.1362
  483POPI   C3A 7703   8.269   4.686   8.076  0.0158 -0.2461 -0.0801
  483POPI   C4A 7704   8.446   4.783   7.774 -0.1703 -0.0595 -0.3199
  483POPI   C1B 7705   7.886   4.975   8.591 -0.2174  0.3016 -0.1967
  483POPI   C2B 7706   7.872   5.080   8.183  0.1696  0.0500  0.2090
  483POPI   C3B 7707   7.934   5.154   7.696  0.1012 -0.1409  0.3435
  483POPI   C4B 7708   7.954   5.097   7.255  0.1415  0.2506 -0.0450
  484POPI    C1 7709  18.499   7.347  10.015  0.1375  0.1784  0.0384
  484POPI    C2 7710  18.347   7.684   9.862 -0.0111  0.0315 -0.1410
  484POPI    C3 7711  18.128   7.460  10.111  0.0761  0.0503 -0.0466
  484POPI   PO4 7712  18.640   7.275   9.754 -0.0725  0.0748 -0.0276
  484POPI   GL1 7713  18.595   7.102   9.498 -0.1634  0.0875  0.3124
  484POPI   GL2 7714  18.636   7.277   9.251  0.1555  0.2126 -0.0994
  484POPI   C1A 7715  18.619   6.799   9.120 -0.4173  0.1614 -0.3669
  484POPI   D2A 7716  18.699   6.576   8.717  0.2708  0.0629 -0.3137
  484POPI   C3A 7717  19.097   6.604   8.515  0.2922  0.5117  0.2552
  484POPI   C4A 7718  19.613   6.579   8.508 -0.0315 -0.1822 -0.0336
  484POPI   C1B 7719  18.289   7.179   8.958  0.0624 -0.4813 -0.2201
  484POPI   C2B 7720  18.317   6.892   8.547 -0.0764  0.1641 -0.1456
  484POPI   C3B 7721  18.207   6.828   8.031 -0.2664 -0.1055  0.0837
  484POPI   C4B 7722  18.112   6.789   7.662  0.0628  0.3363 -0.0980
  485POPI    C1 7723   6.828  10.275   9.839 -0.0427  0.1072 -0.0537
  485POPI    C2 7724   6.782  10.183   9.453 -0.1326 -0.3171  0.0536
  485POPI    C3 7725   6.600   9.964   9.734  0.0168 -0.0764  0.3434
  485POPI   PO4 7726   7.149  10.331   9.779 -0.2084  0.5923  0.2603
  485POPI   GL1 7727   7.273  10.339   9.459  0.1649  0.1268 -0.1016
  485POPI   GL2 7728   7.290  10.686   9.446  0.1034 -0.0664 -0.1929
  485POPI   C1A 7729   7.151  10.471   9.036 -0.0177  0.3442  0.0280
  485POPI   D2A 7730   7.158  10.604   8.580  0.1092  0.0159  0.1924
  485POPI   C3A 7731   6.746  10.622   8.497 -0.4304  0.1786  0.3897
  485POPI   C4A 7732   6.535  10.550   8.246  0.0668  0.0303  0.0786
  485POPI   C1B 7733   7.491  10.894   9.124 -0.4580 -0.1361  0.1291
  485POPI   C2B 7734   7.563  11.021   8.624 -0.0009 -0.0344  0.0027
  485POPI   C3B 7735   7.625  11.086   8.186  0.1349  0.0607  0.0360
  485POPI   C4B 7736   7.397  10.955   7.779  0.0143 -0.1227 -0.0028
  486POPI    C1 7737  16.383   6.178  10.120 -0.0262  0.0325  0.0853
  486POPI    C2 7738  16.531   5.810  10.170 -0.0574  0.0053 -0.0183
  486POPI    C3 7739  16.464   6.043  10.488 -0.1740 -0.1318  0.0593
  486POPI   PO4 7740  16.374   6.161   9.852 -0.1445 -0.2391 -0.0731
  486POPI   GL1 7741  16.328   6.110   9.442  0.0801 -0.0427  0.1995
  486POPI   GL2 7742  16.159   6.217   9.353 -0.1617  0.2726  0.0104
  486POPI   C1A 7743  16.544   6.164   8.954  0.1356 -0.1900 -0.0611
  486POPI   D2A 7744  16.487   5.988   8.597  0.3547 -0.1141  0.1499
  486POPI   C3A 7745  16.626   6.311   8.280  0.0543 -0.2683  0.1784
  486POPI   C4A 7746  16.546   6.400   7.896 -0.0899  0.2322 -0.0257
  486POPI   C1B 7747  16.043   6.090   8.944  0.1425  0.0397  0.0166
  486POPI   C2B 7748  16.049   6.117   8.511  0.4155  0.0356  0.0761
  486POPI   C3B 7749  16.002   6.151   7.940  0.0029 -0.4858 -0.5598
  486POPI   C4B 7750  16.172   6.441   7.599 -0.1105 -0.0695 -0.1033
  487POPI    C1 7751   2.807   6.610   9.333  0.3840  0.1367  0.1664
  487POPI    C2 7752   2.914   6.243   9.214  0.3117  0.1787 -0.0323
  487POPI    C3 7753   2.796   6.304   9.591 -0.1656 -0.1069 -0.1273
  487POPI   PO4 7754   2.566   6.669   9.167 -0.0086  0.4314  0.1485
  487POPI   GL1 7755   2.328   6.599   8.830  0.3083 -0.4045 -0.0702
  487POPI   GL2 7756   2.521   6.375   8.789  0.0928  0.2028 -0.1536
  487POPI   C1A 7757   2.242   6.885   8.549  0.0186  0.0144  0.3039
  487POPI   D2A 7758   2.313   6.878   8.176  0.1090 -0.0893 -0.1130
  487POPI   C3A 7759   2.210   7.169   7.922  0.0087 -0.0093 -0.1243
  487POPI   C4A 7760   2.396   7.348   7.584  0.0174 -0.0245 -0.1311
  487POPI   C1B 7761   2.716   5.968   8.420  0.2037  0.0784  0.0254
  487POPI   C2B 7762   2.832   6.048   7.993  0.0477  0.2286  0.4320
  487POPI   C3B 7763   2.704   5.837   7.691  0.3242 -0.0055  0.2191
  487POPI   C4B 7764   2.471   5.874   7.336 -0.2481  0.0401 -0.0957
  488POPI    C1 7765   3.506   4.709   9.538 -0.0814 -0.1270  0.1116
  488POPI    C2 7766   3.317   5.061   9.521  0.1185 -0.0230  0.0002
  488POPI    C3 7767   3.411   4.901   9.876  0.0519  0.0485  0.0504
  488POPI   PO4 7768   3.641   4.809   9.236 -0.2045  0.3073 -0.1965
  488POPI   GL1 7769   3.723   4.716   8.887  0.0540 -0.1183 -0.2938
  488POPI   GL2 7770   4.025   4.685   8.825  0.1445  0.0512 -0.0970
  488POPI   C1A 7771   3.932   5.161   8.644  0.1405  0.0722  0.1471
  488POPI   D2A 7772   4.053   5.384   8.249  0.1930 -0.2605 -0.1845
  488POPI   C3A 7773   4.259   5.264   7.887 -0.1851  0.3438 -0.1910
  488POPI   C4A 7774   4.208   5.102   7.483  0.3152  0.1164 -0.1150
  488POPI   C1B 7775   3.967   4.749   8.408 -0.2511  0.1617  0.0886
  488POPI   C2B 7776   3.899   4.943   8.022 -0.0352 -0.1744 -0.1301
  488POPI   C3B 7777   3.629   5.125   7.635 -0.0731 -0.0718  0.1272
  488POPI   C4B 7778   3.272   5.113   7.264 -0.1812  0.0508 -0.0116
  489POPI    C1 7779  13.526  18.346  10.442  0.3623 -0.0866  0.2838
  489POPI    C2 7780  13.458  18.714  10.301  0.4166 -0.2029 -0.0565
  489POPI    C3 7781  13.425  18.641  10.693  0.1324  0.0990 -0.0191
  489POPI   PO4 7782  13.669  18.197  10.296 -0.1909 -0.2620 -0.0072
  489POPI   GL1 7783  13.898  18.118   9.894 -0.2837 -0.2629  0.0604
  489POPI   GL2 7784  14.053  17.928  10.032 -0.2722 -0.0916 -0.3300
  489POPI   C1A 7785  13.952  18.477   9.633  0.1252  0.0866 -0.0548
  489POPI   D2A 7786  14.081  18.697   9.323 -0.1633 -0.2071 -0.1363
  489POPI   C3A 7787  13.826  18.508   8.883 -0.0442  0.2830 -0.1866
  489POPI   C4A 7788  13.850  18.300   8.519  0.1170  0.2848  0.2775
  489POPI   C1B 7789  13.904  17.702   9.512  0.0372  0.1061  0.3803
  489POPI   C2B 7790  14.086  17.779   9.132 -0.0242 -0.0079 -0.2171
  489POPI   C3B 7791  14.225  17.896   8.793 -0.3216 -0.1230  0.1257
  489POPI   C4B 7792  14.315  17.997   8.372  0.0762 -0.1078  0.2126
  490POPI    C1 7793   8.300   0.116  10.259  0.1214  0.1864  0.0280
  490POPI    C2 7794   7.920   0.229  10.311  0.1828  0.4568 -0.0935
  490POPI    C3 7795   8.166   0.208  10.625 -0.0237 -0.0749  0.0429
  490POPI   PO4 7796   8.255   0.110   9.953 -0.2960  0.0257 -0.2981
  490POPI   GL1 7797   8.463  -0.145   9.648  0.1534 -0.0225  0.1327
  490POPI   GL2 7798   8.260  -0.441   9.525  0.0959 -0.1884 -0.1298
  490POPI   C1A 7799   8.364  -0.024   9.156  0.2069  0.0809 -0.0337
  490POPI   D2A 7800   8.359   0.237   8.907  0.0553  0.1018 -0.3092
  490POPI   C3A 7801   8.441   0.410   8.490  0.0274 -0.0540 -0.1836
  490POPI   C4A 7802   8.240   0.882   8.357 -0.1592  0.0386 -0.1872
  490POPI   C1B 7803   8.239  -0.538   9.089  0.4112  0.0901  0.2824
  490POPI   C2B 7804   8.009  -0.679   8.790  0.3073  0.0820  0.6164
  490POPI   C3B 7805   7.969  -0.888   8.401  0.0436 -0.1820 -0.0550
  490POPI   C4B 7806   7.887  -0.713   7.942  0.0877 -0.3436 -0.2777
  491POPI    C1 7807   5.505   7.861   9.530  0.0742 -0.0809  0.3113
  491POPI    C2 7808   5.389   7.478   9.544 -0.0771 -0.0391  0.2155
  491POPI    C3 7809   5.131   7.770   9.638 -0.1157  0.0652 -0.1961
  491POPI   PO4 7810   5.580   8.033   9.158 -0.1491  0.0246  0.0593
  491POPI   GL1 7811   5.547   7.887   8.793  0.1467  0.0321 -0.0499
  491POPI   GL2 7812   5.204   8.019   8.678 -0.2304 -0.2430  0.0049
  491POPI   C1A 7813   5.734   8.201   8.508  0.0575 -0.0660 -0.1562
  491POPI   D2A 7814   5.766   8.554   8.196 -0.0449 -0.3950  0.1871
  491POPI   C3A 7815   5.485   8.742   8.001 -0.2995  0.3170  0.0720
  491POPI   C4A 7816   5.063   8.667   7.766  0.0479 -0.1987 -0.0718
  491POPI   C1B 7817   5.411   7.885   8.306  0.2541 -0.2201 -0.0369
  491POPI   C2B 7818   5.216   7.764   7.910 -0.1124  0.0449  0.0351
  491POPI   C3B 7819   5.174   7.654   7.557  0.3392 -0.0211 -0.0119
  491POPI   C4B 7820   5.321   7.332   7.337  0.4162  0.4927  0.0784
  492POPI    C1 7821  11.662   3.292   9.660  0.2507 -0.1090 -0.2951
  492POPI    C2 7822  11.904   3.525   9.877 -0.3146  0.3320 -0.1142
  492POPI    C3 7823  11.807   3.160  10.008  0.0256  0.2605 -0.0541
  492POPI   PO4 7824  11.706   3.331   9.405  0.1988 -0.1834  0.0653
  492POPI   GL1 7825  11.792   3.149   9.107  0.0535  0.0442 -0.0442
  492POPI   GL2 7826  11.926   2.884   8.906  0.1622  0.0092  0.0994
  492POPI   C1A 7827  11.409   2.973   8.939  0.1459 -0.0525 -0.0089
  492POPI   D2A 7828  11.169   2.658   8.652  0.0218 -0.0898  0.0958
  492POPI   C3A 7829  11.065   2.682   8.253  0.0613  0.0557 -0.0862
  492POPI   C4A 7830  10.814   2.899   8.054  0.0365 -0.1243  0.0711
  492POPI   C1B 7831  11.975   2.779   8.492 -0.1527  0.2504  0.0274
  492POPI   C2B 7832  12.246   2.913   8.218 -0.0631  0.2560 -0.0843
  492POPI   C3B 7833  12.306   3.125   7.804  0.1053  0.0285  0.3002
  492POPI   C4B 7834  12.396   3.430   7.493 -0.0812  0.2777 -0.0683
  493POPI    C1 7835  14.116   2.807  10.032 -0.0036 -0.2176 -0.0723
  493POPI    C2 7836  14.014   2.801  10.419  0.0051  0.0817 -0.0625
  493POPI    C3 7837  14.399   2.776  10.313 -0.0037 -0.0862 -0.0568
  493POPI   PO4 7838  13.982   2.674   9.888 -0.4236 -0.0222  0.1238
  493POPI   GL1 7839  13.997   2.520   9.392  0.0554  0.4088  0.1024
  493POPI   GL2 7840  14.078   2.292   9.469 -0.1631 -0.2859 -0.2215
  493POPI   C1A 7841  13.785   2.515   8.920  0.0403 -0.3127  0.2770
  493POPI   D2A 7842  13.409   2.435   8.771  0.0831 -0.1606 -0.1894
  493POPI   C3A 7843  13.259   2.592   8.406  0.1717 -0.1299 -0.0243
  493POPI   C4A 7844  13.377   2.741   8.038  0.2419 -0.0952  0.1272
  493POPI   C1B 7845  14.154   2.206   9.070  0.0593  0.3764 -0.2258
  493POPI   C2B 7846  14.264   2.422   8.739 -0.1543  0.0818  0.1880
  493POPI   C3B 7847  14.461   2.611   8.380  0.0071  0.4162 -0.0851
  493POPI   C4B 7848  14.433   2.360   7.929  0.0873 -0.3402  0.2362
  494POPI    C1 7849   9.577   8.583   9.789  0.0316  0.1671 -0.0269
  494POPI    C2 7850   9.689   8.959   9.866 -0.2320  0.2677 -0.1244
  494POPI    C3 7851   9.529   8.735  10.156 -0.1319  0.2502 -0.0821
  494POPI   PO4 7852   9.793   8.532   9.611  0.0993 -0.0324  0.1981
  494POPI   GL1 7853  10.011   8.806   9.233 -0.2096 -0.4062 -0.3346
  494POPI   GL2 7854  10.159   8.501   9.070 -0.1927  0.3533  0.0444
  494POPI   C1A 7855   9.981   8.831   8.782 -0.1433 -0.1820 -0.0679
  494POPI   D2A 7856  10.273   9.097   8.497  0.1200  0.1892  0.0767
  494POPI   C3A 7857  10.259   9.151   8.034  0.1169 -0.2901 -0.1477
  494POPI   C4A 7858   9.955   9.020   7.720 -0.0387 -0.0956 -0.0072
  494POPI   C1B 7859  10.433   8.713   8.742 -0.0087  0.3182 -0.0973
  494POPI   C2B 7860  10.447   8.625   8.226 -0.0319  0.2816 -0.0206
  494POPI   C3B 7861  10.540   8.845   7.762  0.3639 -0.3112 -0.0207
  494POPI   C4B 7862  10.693   8.853   7.339 -0.0579 -0.4480  0.1390
  495POPI    C1 7863  17.156   8.402   9.876 -0.2196 -0.1871  0.2424
  495POPI    C2 7864  17.274   8.362  10.256  0.1070  0.0838  0.1747
  495POPI    C3 7865  17.053   8.677  10.148  0.0589  0.0346  0.1290
  495POPI   PO4 7866  17.295   8.421   9.723 -0.1133  0.0321 -0.1398
  495POPI   GL1 7867  17.067   8.474   9.318 -0.0261 -0.1225  0.2743
  495POPI   GL2 7868  17.332   8.624   9.206  0.0196  0.1514 -0.4461
  495POPI   C1A 7869  16.845   8.784   8.993  0.2965  0.0792  0.2054
  495POPI   D2A 7870  16.673   9.032   9.084 -0.0645 -0.0230 -0.2318
  495POPI   C3A 7871  16.289   9.351   8.886  0.1462 -0.3339 -0.2120
  495POPI   C4A 7872  15.991   9.362   8.545 -0.1392 -0.0994 -0.0881
  495POPI   C1B 7873  17.519   8.499   8.935  0.1738 -0.0210  0.1544
  495POPI   C2B 7874  17.480   8.225   8.615 -0.0509 -0.0486 -0.2578
  495POPI   C3B 7875  17.420   7.952   8.229 -0.1551 -0.0583 -0.0504
  495POPI   C4B 7876  17.316   7.980   7.965 -0.2323  0.2754  0.3515
  496POPI    C1 7877  14.361   1.913  10.262 -0.2327 -0.2408 -0.0721
  496POPI    C2 7878  14.309   2.281  10.409  0.0933 -0.1488 -0.1768
  496POPI    C3 7879  14.198   1.962  10.624  0.0922 -0.0003  0.0468
  496POPI   PO4 7880  14.338   1.854   9.938 -0.1344 -0.1800 -0.1569
  496POPI   GL1 7881  14.186   1.812   9.536 -0.0212 -0.4362  0.2326
  496POPI   GL2 7882  14.478   1.993   9.484  0.1389  0.0343  0.1777
  496POPI   C1A 7883  14.023   1.703   9.072 -0.2179  0.1512 -0.0094
  496POPI   D2A 7884  13.973   1.534   8.608  0.0313 -0.4104 -0.0720
  496POPI   C3A 7885  14.124   1.716   8.169 -0.2137 -0.4461  0.0300
  496POPI   C4A 7886  14.456   1.883   7.969 -0.0184 -0.0204  0.1579
  496POPI   C1B 7887  14.655   2.282   9.115 -0.2439 -0.0214  0.2237
  496POPI   C2B 7888  14.771   2.295   8.657 -0.2844 -0.0204  0.2258
  496POPI   C3B 7889  14.917   2.376   8.241  0.0730 -0.1954 -0.0586
  496POPI   C4B 7890  14.961   2.238   7.792  0.1072  0.1898  0.0424
  497POPI    C1 7891  15.248  17.447  10.750  0.2743  0.2535 -0.1335
  497POPI    C2 7892  15.567  17.206  10.771 -0.0151 -0.1150  0.1959
  497POPI    C3 7893  15.213  17.082  10.910 -0.2529  0.3772  0.0545
  497POPI   PO4 7894  15.324  17.632  10.542  0.0770 -0.0283  0.0579
  497POPI   GL1 7895  15.323  18.013  10.181  0.3881  0.0636  0.2576
  497POPI   GL2 7896  15.253  18.313  10.024  0.2409  0.3050 -0.3661
  497POPI   C1A 7897  15.011  17.824   9.967 -0.0335 -0.2669 -0.3240
  497POPI   D2A 7898  14.553  17.908   9.926  0.1552  0.4561  0.0382
  497POPI   C3A 7899  14.372  18.015   9.438 -0.3453  0.0208  0.1942
  497POPI   C4A 7900  14.139  18.240   9.123 -0.3244 -0.0019  0.1815
  497POPI   C1B 7901  15.372  18.579   9.656 -0.0314 -0.2521  0.0980
  497POPI   C2B 7902  15.212  18.448   9.264  0.1177 -0.0162 -0.1803
  497POPI   C3B 7903  14.957  18.339   9.084 -0.1878  0.0875  0.0594
  497POPI   C4B 7904  14.691  18.203   8.731  0.1907  0.0260 -0.1135
  498POPI    C1 7905  13.664  13.504  10.395  0.1946 -0.0098 -0.1604
  498POPI    C2 7906  13.779  13.121  10.381 -0.2187 -0.1646  0.3476
  498POPI    C3 7907  13.732  13.302  10.734  0.1592  0.4232  0.1116
  498POPI   PO4 7908  13.637  13.591  10.125 -0.0300  0.0567 -0.1191
  498POPI   GL1 7909  13.658  13.515   9.702 -0.0004 -0.1985  0.2588
  498POPI   GL2 7910  13.345  13.811   9.744  0.0350  0.1371 -0.2011
  498POPI   C1A 7911  14.028  13.543   9.406 -0.0250  0.0554 -0.4441
  498POPI   D2A 7912  14.241  13.762   9.218 -0.2763 -0.1057 -0.1013
  498POPI   C3A 7913  14.321  13.553   8.874 -0.1795  0.2904  0.2674
  498POPI   C4A 7914  14.396  13.542   8.426 -0.3183  0.2725  0.2032
  498POPI   C1B 7915  13.497  13.753   9.318  0.0638  0.1461 -0.2546
  498POPI   C2B 7916  13.754  13.727   9.015  0.3556 -0.4969 -0.1216
  498POPI   C3B 7917  14.042  13.908   8.700 -0.1014  0.3759  0.0150
  498POPI   C4B 7918  14.253  14.224   8.539 -0.1986 -0.0706  0.1174
  499POPI    C1 7919  19.086  17.208   9.917  0.2834  0.0183  0.0651
  499POPI    C2 7920  19.105  16.808   9.913  0.3316  0.0157  0.3565
  499POPI    C3 7921  19.422  17.024   9.802  0.1596 -0.0217 -0.2438
  499POPI   PO4 7922  18.810  17.205   9.792  0.1955 -0.3625  0.1466
  499POPI   GL1 7923  18.625  17.295   9.380 -0.2376 -0.0327  0.1206
  499POPI   GL2 7924  18.302  17.002   9.409  0.0501  0.2629 -0.0813
  499POPI   C1A 7925  18.439  17.439   8.899 -0.0089  0.0195 -0.0922
  499POPI   D2A 7926  18.220  17.692   8.515  0.2617  0.0880  0.4074
  499POPI   C3A 7927  18.233  17.467   8.068  0.0685 -0.0080  0.0547
  499POPI   C4A 7928  17.940  17.437   7.712 -0.0406  0.0214 -0.1655
  499POPI   C1B 7929  18.407  16.861   8.994 -0.0949 -0.0116  0.0172
  499POPI   C2B 7930  18.406  16.876   8.487 -0.2532  0.2359  0.0665
  499POPI   C3B 7931  18.195  16.918   8.160 -0.1597  0.1986  0.0369
  499POPI   C4B 7932  18.326  17.020   7.678  0.1840 -0.1644  0.1056
  500POPI    C1 7933   1.565  12.537   9.678  0.0511  0.0562 -0.0287
  500POPI    C2 7934   1.433  12.760   9.983 -0.0767  0.0498 -0.0787
  500POPI    C3 7935   1.729  12.498  10.040 -0.1036  0.0452  0.0409
  500POPI   PO4 7936   1.395  12.685   9.479  0.2173 -0.0274  0.0097
  500POPI   GL1 7937   1.330  12.654   9.027 -0.1829 -0.1299 -0.2152
  500POPI   GL2 7938   1.531  12.941   9.015  0.0160 -0.1865  0.3959
  500POPI   C1A 7939   1.387  12.803   8.570  0.1458  0.1952 -0.0686
  500POPI   D2A 7940   1.765  12.851   8.352 -0.4409 -0.1774 -0.1035
  500POPI   C3A 7941   1.702  12.948   7.961 -0.1643  0.3224 -0.1997
  500POPI   C4A 7942   1.391  13.096   7.669  0.1919 -0.0593  0.2607
  500POPI   C1B 7943   1.655  13.197   8.645  0.1815 -0.2780 -0.5406
  500POPI   C2B 7944   1.545  13.439   8.268 -0.1478 -0.0707  0.0580
  500POPI   C3B 7945   1.281  13.518   7.957 -0.1055 -0.2178 -0.3087
  500POPI   C4B 7946   1.300  13.725   7.520 -0.2358  0.3463  0.0462
  501POPI    C1 7947   3.924  14.257   9.669  0.1393  0.2974 -0.1786
  501POPI    C2 7948   4.205  13.973   9.691 -0.1484  0.0083 -0.1557
  501POPI    C3 7949   4.156  14.230   9.994  0.0458  0.0195 -0.1323
  501POPI   PO4 7950   3.939  14.322   9.368  0.0023 -0.0048  0.1668
  501POPI   GL1 7951   4.064  14.598   9.083 -0.1345 -0.1121  0.1652
  501POPI   GL2 7952   4.287  14.695   9.170  0.1118  0.0955 -0.1321
  501POPI   C1A 7953   3.692  14.669   8.730  0.2266  0.3286  0.0035
  501POPI   D2A 7954   3.575  14.692   8.347 -0.1575  0.0936  0.2021
  501POPI   C3A 7955   3.655  14.404   8.033 -0.4074  0.1546 -0.3174
  501POPI   C4A 7956   3.665  14.098   7.762  0.2410  0.0520 -0.0103
  501POPI   C1B 7957   4.217  14.588   8.630 -0.3010 -0.1952 -0.1538
  501POPI   C2B 7958   4.425  14.669   8.191  0.0839 -0.2357  0.2920
  501POPI   C3B 7959   4.674  14.645   7.765  0.0999 -0.1709  0.0757
  501POPI   C4B 7960   4.854  14.910   7.383  0.0558  0.1158 -0.1048
  502POPI    C1 7961  13.629   5.110   9.691  0.0651 -0.0336 -0.1503
  502POPI    C2 7962  13.784   5.106  10.060 -0.0422 -0.1564 -0.1058
  502POPI    C3 7963  13.542   5.404   9.947  0.1535 -0.0110 -0.1460
  502POPI   PO4 7964  13.806   5.021   9.518  0.2478  0.0109 -0.0140
  502POPI   GL1 7965  14.123   5.051   9.260 -0.0297 -0.0900 -0.1781
  502POPI   GL2 7966  14.333   5.297   9.419 -0.1261 -0.1998 -0.3376
  502POPI   C1A 7967  14.174   4.627   8.899  0.2822  0.3228 -0.1932
  502POPI   D2A 7968  14.157   4.289   8.551 -0.2591 -0.0759  0.2610
  502POPI   C3A 7969  14.486   3.966   8.644  0.0581 -0.1478 -0.1610
  502POPI   C4A 7970  14.890   3.801   8.823  0.0870 -0.1280  0.3004
  502POPI   C1B 7971  14.328   5.426   9.089  0.0252  0.0352  0.1129
  502POPI   C2B 7972  14.076   5.179   8.736 -0.0526 -0.1396 -0.1363
  502POPI   C3B 7973  13.797   5.205   8.319  0.1674  0.0745 -0.2950
  502POPI   C4B 7974  13.578   4.899   7.952 -0.1329 -0.0270  0.3564
  503POPI    C1 7975   0.583  16.658   9.952  0.0231  0.0470 -0.0301
  503POPI    C2 7976   0.970  16.588  10.021 -0.0157  0.0607  0.2098
  503POPI    C3 7977   0.706  16.565  10.321 -0.1952  0.0916  0.0558
  503POPI   PO4 7978   0.583  16.525   9.636 -0.0997  0.1273  0.0134
  503POPI   GL1 7979   0.530  16.457   9.226 -0.0918 -0.1954 -0.0689
  503POPI   GL2 7980   0.346  16.179   9.332  0.2431  0.0720  0.1816
  503POPI   C1A 7981   0.446  16.550   8.818 -0.2935  0.1696  0.1491
  503POPI   D2A 7982   0.073  16.746   8.610 -0.1046 -0.0385  0.0338
  503POPI   C3A 7983  -0.164  16.800   8.221 -0.0445  0.1353 -0.3585
  503POPI   C4A 7984  -0.275  16.696   7.726  0.4704 -0.1086  0.0521
  503POPI   C1B 7985   0.052  16.173   8.990  0.1009  0.1806  0.1718
  503POPI   C2B 7986   0.141  16.249   8.517  0.1419  0.4137 -0.2455
  503POPI   C3B 7987   0.019  16.359   8.096  0.1841 -0.1967  0.2659
  503POPI   C4B 7988   0.202  16.482   7.722 -0.3337  0.0938 -0.2038
  504POPI    C1 7989  16.018  16.438  10.959  0.0053 -0.0946 -0.2567
  504POPI    C2 7990  15.670  16.300  11.099 -0.1142  0.2342 -0.2202
  504POPI    C3 7991  15.965  16.045  11.011 -0.2078 -0.0159  0.1643
  504POPI   PO4 7992  15.875  16.726  10.723 -0.1738  0.1523 -0.2885
  504POPI   GL1 7993  15.733  16.679  10.290  0.0946 -0.1504 -0.1658
  504POPI   GL2 7994  15.435  16.485  10.156 -0.1328 -0.0128  0.0124
  504POPI   C1A 7995  15.538  17.108  10.266  0.0133  0.2392 -0.0369
  504POPI   D2A 7996  15.247  17.374   9.923  0.0637 -0.4431 -0.0323
  504POPI   C3A 7997  15.151  17.214   9.514  0.0416 -0.1123  0.3581
  504POPI   C4A 7998  15.207  16.970   9.139  0.3998  0.0128 -0.1270
  504POPI   C1B 7999  15.487  16.825   9.742 -0.2250  0.1322 -0.4455
  504POPI   C2B 8000  15.592  16.965   9.423 -0.2650  0.3707 -0.0968
  504POPI   C3B 8001  15.632  16.822   9.001  0.1049  0.2572  0.0012
  504POPI   C4B 8002  15.429  16.536   8.572  0.2260 -0.1975 -0.2713
  505POPI    C1 8003  12.445   2.498   9.945  0.3509  0.0900  0.0019
  505POPI    C2 8004  12.128   2.571  10.178  0.3512  0.1877 -0.0274
  505POPI    C3 8005  12.319   2.220  10.203 -0.2180 -0.1797 -0.5402
  505POPI   PO4 8006  12.427   2.574   9.727 -0.0269  0.3632  0.2842
  505POPI   GL1 8007  12.191   2.722   9.289  0.3055 -0.3168 -0.2047
  505POPI   GL2 8008  12.272   2.339   9.307  0.2363 -0.1720 -0.1390
  505POPI   C1A 8009  11.787   2.502   9.272 -0.3065  0.4159  0.2033
  505POPI   D2A 8010  11.574   2.482   8.794  0.0364 -0.0080 -0.1372
  505POPI   C3A 8011  11.883   2.295   8.433 -0.2110  0.2677  0.1260
  505POPI   C4A 8012  12.023   2.446   8.020 -0.1055  0.0835 -0.2054
  505POPI   C1B 8013  12.150   2.446   8.864  0.1151 -0.0574 -0.1497
  505POPI   C2B 8014  12.374   2.412   8.497  0.2853  0.1897  0.2235
  505POPI   C3B 8015  12.756   2.455   8.190 -0.2278 -0.1246  0.0137
  505POPI   C4B 8016  12.909   2.788   7.882 -0.2140  0.0851  0.2218
  506POPI    C1 8017   4.777   9.674   9.924 -0.0003 -0.0363 -0.0699
  506POPI    C2 8018   4.693   9.414  10.217  0.1576 -0.0597 -0.0443
  506POPI    C3 8019   4.903   9.744  10.297  0.0232  0.0385 -0.0919
  506POPI   PO4 8020   4.730   9.565   9.724  0.2370  0.0329  0.2438
  506POPI   GL1 8021   4.743   9.455   9.388 -0.0108  0.0401 -0.1243
  506POPI   GL2 8022   4.940   9.725   9.182  0.2105 -0.2630 -0.0985
  506POPI   C1A 8023   4.808   9.221   9.003 -0.0230  0.0544  0.1897
  506POPI   D2A 8024   4.656   9.106   8.696 -0.0349  0.1539 -0.1071
  506POPI   C3A 8025   4.702   9.204   8.244 -0.1671 -0.0319  0.0880
  506POPI   C4A 8026   4.700   9.323   7.833  0.2673 -0.0350 -0.1919
  506POPI   C1B 8027   5.202   9.886   8.767  0.0734 -0.0771  0.2936
  506POPI   C2B 8028   5.092  10.047   8.312 -0.0369 -0.0045 -0.0347
  506POPI   C3B 8029   5.151  10.296   7.956  0.1603  0.0908  0.5762
  506POPI   C4B 8030   4.929  10.231   7.537  0.0027  0.0097  0.0910
  507POPI    C1 8031  14.347   5.792   9.866  0.1423  0.0013 -0.1241
  507POPI    C2 8032  14.060   5.515   9.894 -0.0956  0.2506 -0.0605
  507POPI    C3 8033  14.125   5.768  10.197  0.2459  0.1472 -0.0431
  507POPI   PO4 8034  14.333   5.807   9.597 -0.2688 -0.0286  0.0470
  507POPI   GL1 8035  14.634   5.701   9.279  0.0012  0.2355 -0.1203
  507POPI   GL2 8036  14.679   5.934   9.124 -0.0930  0.1025 -0.2146
  507POPI   C1A 8037  14.959   5.546   8.988  0.0470 -0.0918  0.1931
  507POPI   D2A 8038  14.818   5.292   8.479  0.0830  0.0216  0.0071
  507POPI   C3A 8039  14.847   5.516   8.215  0.0906 -0.0313  0.3778
  507POPI   C4A 8040  14.862   5.585   7.844  0.1283  0.0494  0.2431
  507POPI   C1B 8041  14.491   5.808   8.828  0.0945  0.0270 -0.0534
  507POPI   C2B 8042  14.275   5.621   8.588 -0.4416 -0.1110 -0.2349
  507POPI   C3B 8043  14.272   5.308   8.309  0.0179 -0.1336  0.0846
  507POPI   C4B 8044  14.554   5.109   8.030 -0.1004  0.0667  0.3359
  508POPI    C1 8045   7.765   8.531   9.789 -0.0386 -0.0181  0.0142
  508POPI    C2 8046   7.815   8.715  10.141  0.1016  0.0514 -0.0410
  508POPI    C3 8047   7.450   8.687   9.979  0.0288 -0.0261  0.1335
  508POPI   PO4 8048   7.846   8.651   9.561  0.0594 -0.2490 -0.2146
  508POPI   GL1 8049   8.117   8.534   9.174 -0.0893  0.3319 -0.0047
  508POPI   GL2 8050   7.758   8.488   9.003  0.0270 -0.1313  0.0521
  508POPI   C1A 8051   8.174   8.693   8.703  0.0351  0.1216  0.0188
  508POPI   D2A 8052   8.312   8.783   8.365 -0.2564  0.2363  0.3388
  508POPI   C3A 8053   8.215   9.124   8.004  0.2090  0.4269  0.0432
  508POPI   C4A 8054   8.485   9.137   7.603  0.3165 -0.0857 -0.0806
  508POPI   C1B 8055   7.668   8.488   8.540  0.0749 -0.3219 -0.1917
  508POPI   C2B 8056   7.688   8.521   8.126  0.0240 -0.0485 -0.2055
  508POPI   C3B 8057   7.803   8.542   7.728 -0.1905 -0.2946  0.0826
  508POPI   C4B 8058   8.186   8.624   7.466 -0.1034  0.5257 -0.1644
  509POPI    C1 8059  12.933  16.196  10.118 -0.2628  0.0593 -0.0090
  509POPI    C2 8060  12.874  15.913  10.394 -0.0241  0.1171  0.1037
  509POPI    C3 8061  12.703  16.273  10.436 -0.0169  0.1143  0.1579
  509POPI   PO4 8062  12.969  15.998   9.925  0.1916 -0.0037 -0.4138
  509POPI   GL1 8063  12.725  15.751   9.730  0.0052  0.1172  0.0565
  509POPI   GL2 8064  12.597  15.401   9.612  0.0358 -0.0205 -0.2551
  509POPI   C1A 8065  12.732  15.894   9.344 -0.1844 -0.3245  0.0058
  509POPI   D2A 8066  12.448  15.826   9.004 -0.0414  0.3392  0.4184
  509POPI   C3A 8067  12.412  15.571   8.590 -0.0424 -0.3427 -0.1185
  509POPI   C4A 8068  12.758  15.499   8.269 -0.0916 -0.1850  0.1169
  509POPI   C1B 8069  12.724  15.385   9.318 -0.0521 -0.0360 -0.3540
  509POPI   C2B 8070  12.785  15.368   8.838 -0.1902  0.0506  0.1552
  509POPI   C3B 8071  12.962  15.078   8.610 -0.2966 -0.1646 -0.1894
  509POPI   C4B 8072  13.006  14.718   8.539  0.1409  0.0955  0.1589
  510POPI    C1 8073  16.536  16.817  10.625  0.0849 -0.0048 -0.0632
  510POPI    C2 8074  16.442  16.431  10.677  0.0536  0.0261  0.1164
  510POPI    C3 8075  16.699  16.610  10.926  0.1202  0.1041 -0.0070
  510POPI   PO4 8076  16.439  16.929  10.358  0.0075  0.0818 -0.2997
  510POPI   GL1 8077  16.184  16.883   9.968  0.0594 -0.0010  0.0318
  510POPI   GL2 8078  16.075  17.101  10.070 -0.1343  0.0007  0.1442
  510POPI   C1A 8079  16.076  16.846   9.578  0.1385 -0.0772 -0.0521
  510POPI   D2A 8080  16.082  16.870   9.155 -0.0079 -0.2076 -0.2303
  510POPI   C3A 8081  15.923  17.216   8.944 -0.5819 -0.1723  0.1729
  510POPI   C4A 8082  15.817  17.587   8.909  0.0212 -0.2129 -0.1517
  510POPI   C1B 8083  15.731  17.260   9.842 -0.1932 -0.3104 -0.0846
  510POPI   C2B 8084  15.591  17.774   9.693 -0.0652  0.0803 -0.2036
  510POPI   C3B 8085  15.268  17.907   9.495  0.0754  0.0866  0.2248
  510POPI   C4B 8086  14.857  18.126   9.565 -0.0113  0.2523  0.0273
  511POPI    C1 8087   5.025   7.087   9.583  0.0590  0.0536  0.1320
  511POPI    C2 8088   5.188   7.220   9.923  0.2321  0.3111 -0.0484
  511POPI    C3 8089   4.860   7.396   9.777 -0.1103 -0.0876  0.2165
  511POPI   PO4 8090   5.225   7.058   9.376  0.4280 -0.3381 -0.1279
  511POPI   GL1 8091   5.469   7.167   9.149  0.0163 -0.0125 -0.1017
  511POPI   GL2 8092   5.312   7.530   9.041  0.1702  0.1880  0.0910
  511POPI   C1A 8093   5.862   6.920   8.884 -0.3987  0.1644 -0.3925
  511POPI   D2A 8094   5.913   6.939   8.483 -0.2235  0.0003 -0.0931
  511POPI   C3A 8095   5.718   6.480   8.311 -0.1857  0.1271 -0.1695
  511POPI   C4A 8096   5.448   6.247   7.986 -0.0543 -0.0943 -0.0961
  511POPI   C1B 8097   5.190   7.511   8.613  0.0397  0.2964  0.2353
  511POPI   C2B 8098   5.161   7.404   8.200 -0.1660  0.1733 -0.2418
  511POPI   C3B 8099   5.183   7.153   7.874  0.1835  0.4523 -0.0516
  511POPI   C4B 8100   4.897   7.061   7.565 -0.2025 -0.1684  0.4327
  512POPI    C1 8101  18.104   6.967   9.912 -0.0246  0.3218  0.1274
  512POPI    C2 8102  18.201   6.933  10.298 -0.0878  0.0050  0.1175
  512POPI    C3 8103  18.437   6.774  10.017 -0.1423  0.0651  0.0372
  512POPI   PO4 8104  17.907   6.855   9.859  0.0504  0.0369 -0.1235
  512POPI   GL1 8105  17.854   6.491   9.464  0.1925  0.1654  0.3839
  512POPI   GL2 8106  18.042   6.209   9.742 -0.0894  0.4635 -0.0293
  512POPI   C1A 8107  18.089   6.539   9.032 -0.0198 -0.1033  0.0787
  512POPI   D2A 8108  17.943   6.427   8.618  0.0442 -0.3060  0.0305
  512POPI   C3A 8109  18.308   6.350   8.318 -0.2233  0.2715  0.1602
  512POPI   C4A 8110  18.287   6.372   7.830  0.1328  0.0135  0.1382
  512POPI   C1B 8111  18.073   6.072   9.214  0.3954 -0.1781  0.0010
  512POPI   C2B 8112  18.283   6.077   8.870  0.0872 -0.1615  0.0939
  512POPI   C3B 8113  18.363   5.934   8.465 -0.4630  0.0915  0.1059
  512POPI   C4B 8114  18.689   5.807   8.193 -0.0055  0.3640  0.0077
  513POPI    C1 8115  12.131  15.464  10.210  0.0694 -0.2368  0.0371
  513POPI    C2 8116  12.202  15.076  10.279  0.0635 -0.2450 -0.0020
  513POPI    C3 8117  11.992  15.292  10.543  0.4835 -0.1479  0.2626
  513POPI   PO4 8118  12.364  15.550  10.050 -0.0847 -0.0029  0.3037
  513POPI   GL1 8119  12.232  15.780   9.641 -0.2065  0.3115 -0.0207
  513POPI   GL2 8120  11.982  15.516   9.678  0.2241  0.2962  0.3156
  513POPI   C1A 8121  12.277  15.469   9.288 -0.3171 -0.0940  0.0757
  513POPI   D2A 8122  12.192  15.370   8.975  0.0574 -0.2076 -0.5201
  513POPI   C3A 8123  11.889  15.423   8.622  0.1481  0.1767  0.2009
  513POPI   C4A 8124  11.637  15.651   8.226 -0.2735 -0.3110  0.0577
  513POPI   C1B 8125  11.848  15.249   9.510  0.0702  0.0238 -0.0465
  513POPI   C2B 8126  11.791  15.128   9.101 -0.0872  0.2385  0.2356
  513POPI   C3B 8127  11.994  14.930   8.742 -0.1398 -0.5494  0.2507
  513POPI   C4B 8128  12.047  14.960   8.429  0.0968 -0.2569 -0.0257
  514POPI    C1 8129  11.616   8.939  10.364  0.0160  0.0417  0.3346
  514POPI    C2 8130  11.805   9.287  10.425 -0.0580  0.1564 -0.0616
  514POPI    C3 8131  11.628   9.099  10.731  0.2966  0.2794  0.2262
  514POPI   PO4 8132  11.615   8.959  10.012 -0.2519 -0.5076 -0.1649
  514POPI   GL1 8133  11.525   9.263   9.624 -0.0562 -0.5026 -0.1130
  514POPI   GL2 8134  11.436   9.159   9.357 -0.3829 -0.0210 -0.0777
  514POPI   C1A 8135  11.588   9.663   9.569 -0.1086 -0.0993 -0.3350
  514POPI   D2A 8136  11.335   9.853   9.229 -0.1671 -0.2169 -0.1022
  514POPI   C3A 8137  11.363   9.930   8.709  0.2492 -0.4853  0.1889
  514POPI   C4A 8138  10.892   9.852   8.464 -0.0098 -0.1989  0.3322
  514POPI   C1B 8139  11.539   9.363   9.005  0.0117 -0.0789  0.1535
  514POPI   C2B 8140  11.788   9.618   8.622  0.1200 -0.2059  0.1545
  514POPI   C3B 8141  11.608   9.742   8.192 -0.1302  0.1126  0.0394
  514POPI   C4B 8142  11.315   9.951   7.877 -0.1283  0.0808  0.0230
  515POPI    C1 8143   1.875  15.238  10.486 -0.0015  0.0183 -0.1313
  515POPI    C2 8144   2.257  15.145  10.561 -0.0489  0.0403  0.1460
  515POPI    C3 8145   2.136  15.526  10.581 -0.0808  0.0362  0.0362
  515POPI   PO4 8146   1.819  15.150  10.271 -0.0136  0.2163  0.0692
  515POPI   GL1 8147   1.784  15.156   9.823  0.1845  0.5103  0.1925
  515POPI   GL2 8148   2.019  15.357   9.584  0.1827  0.2423  0.0446
  515POPI   C1A 8149   1.619  15.051   9.271  0.0139 -0.1572 -0.0533
  515POPI   D2A 8150   1.674  14.851   8.844 -0.4749  0.2026  0.0061
  515POPI   C3A 8151   1.468  15.032   8.443 -0.2110  0.2600 -0.3054
  515POPI   C4A 8152   1.504  15.033   8.103 -0.0354  0.0601 -0.0542
  515POPI   C1B 8153   2.044  15.256   9.122  0.2052  0.0055  0.0049
  515POPI   C2B 8154   1.882  15.284   8.670 -0.1066  0.1489 -0.2346
  515POPI   C3B 8155   1.668  15.510   8.307 -0.0626 -0.0519 -0.2503
  515POPI   C4B 8156   1.758  15.396   7.894  0.1303 -0.1827  0.0640
  516POPI    C1 8157   6.683  16.947   9.997 -0.0324 -0.1123 -0.2477
  516POPI    C2 8158   6.449  16.852  10.307  0.0466 -0.0441 -0.1664
  516POPI    C3 8159   6.744  16.606  10.198  0.1319  0.0163 -0.0743
  516POPI   PO4 8160   6.540  16.968   9.825  0.0127  0.0996  0.0720
  516POPI   GL1 8161   6.337  17.108   9.368 -0.4626 -0.2365  0.2645
  516POPI   GL2 8162   6.345  16.904   9.118  0.3466 -0.1340 -0.2320
  516POPI   C1A 8163   6.637  17.464   9.251  0.2836 -0.3454  0.0559
  516POPI   D2A 8164   7.007  17.584   9.155  0.0502  0.2998 -0.3163
  516POPI   C3A 8165   7.162  17.468   8.820  0.1091  0.2061 -0.0551
  516POPI   C4A 8166   7.413  17.229   8.598 -0.3546 -0.0738  0.0988
  516POPI   C1B 8167   6.399  17.252   8.841  0.0015  0.1964 -0.0567
  516POPI   C2B 8168   6.131  17.279   8.456  0.1173 -0.4206  0.2604
  516POPI   C3B 8169   6.132  16.986   8.103  0.0889 -0.0677 -0.5716
  516POPI   C4B 8170   6.328  16.643   8.014  0.3255 -0.2374  0.1352
  517POPI    C1 8171   4.506   3.770   9.573 -0.1637 -0.2225 -0.0364
  517POPI    C2 8172   4.760   3.623   9.845 -0.1051 -0.2483 -0.1047
  517POPI    C3 8173   4.680   4.015   9.837  0.2758 -0.1703 -0.3637
  517POPI   PO4 8174   4.504   3.621   9.413 -0.0134  0.1194 -0.3824
  517POPI   GL1 8175   4.437   3.645   9.022 -0.1645  0.0998  0.1109
  517POPI   GL2 8176   4.622   4.010   9.049  0.2760  0.1503  0.0461
  517POPI   C1A 8177   4.521   3.495   8.651  0.1202 -0.2729 -0.1847
  517POPI   D2A 8178   4.449   3.418   8.128  0.0508 -0.2903 -0.0297
  517POPI   C3A 8179   4.612   3.669   7.750  0.0458 -0.3446 -0.2972
  517POPI   C4A 8180   4.842   3.968   7.585 -0.1201  0.0890 -0.4591
  517POPI   C1B 8181   4.656   3.978   8.521  0.0007  0.1180  0.1741
  517POPI   C2B 8182   4.594   4.050   8.132  0.2835 -0.2424  0.0807
  517POPI   C3B 8183   4.727   4.344   7.988 -0.1555  0.3418  0.1078
  517POPI   C4B 8184   4.785   4.574   7.644  0.1008  0.4712  0.2485
  518POPI    C1 8185  16.040   9.025  10.020 -0.1573 -0.1252 -0.0558
  518POPI    C2 8186  15.831   8.788  10.265  0.1426 -0.1227  0.2093
  518POPI    C3 8187  16.134   9.005  10.408  0.2115  0.0141 -0.1343
  518POPI   PO4 8188  15.858   9.123   9.878 -0.1684  0.0015  0.0057
  518POPI   GL1 8189  15.750   9.206   9.381 -0.0895  0.2494 -0.0486
  518POPI   GL2 8190  15.793   9.511   9.339  0.2518  0.0545 -0.0720
  518POPI   C1A 8191  16.042   8.949   9.018 -0.3411 -0.0411  0.1975
  518POPI   D2A 8192  15.983   8.743   8.632  0.0003 -0.1340 -0.0711
  518POPI   C3A 8193  15.654   8.625   8.372 -0.0286 -0.1655  0.0900
  518POPI   C4A 8194  15.465   8.623   7.910 -0.0268 -0.1642  0.2198
  518POPI   C1B 8195  15.649   9.277   8.905 -0.3871 -0.0051  0.1167
  518POPI   C2B 8196  15.413   8.980   8.791  0.3469 -0.1866 -0.1059
  518POPI   C3B 8197  15.096   8.861   8.362 -0.2450 -0.1677 -0.0897
  518POPI   C4B 8198  15.043   8.954   7.926 -0.0343 -0.0664 -0.3387
  519POPI    C1 8199  14.571  17.867  10.821 -0.1367  0.0993  0.0929
  519POPI    C2 8200  14.847  17.646  11.008 -0.1022  0.1216  0.0687
  519POPI    C3 8201  14.960  17.949  10.772 -0.1464  0.1082  0.0302
  519POPI   PO4 8202  14.402  17.574  10.708 -0.2059  0.2593  0.1579
  519POPI   GL1 8203  14.724  17.406  10.338 -0.0726  0.0975 -0.0183
  519POPI   GL2 8204  14.817  17.701  10.385  0.4137 -0.0419 -0.1684
  519POPI   C1A 8205  14.746  17.318   9.938 -0.2648 -0.0637 -0.0256
  519POPI   D2A 8206  14.858  17.601   9.555  0.3994 -0.1121  0.3656
  519POPI   C3A 8207  15.035  17.548   9.155  0.2137 -0.1485 -0.0638
  519POPI   C4A 8208  15.156  17.944   8.849 -0.1310  0.0622 -0.0274
  519POPI   C1B 8209  14.873  18.126  10.330  0.0046  0.1759  0.2209
  519POPI   C2B 8210  14.653  18.472  10.189  0.2164  0.1388 -0.0513
  519POPI   C3B 8211  14.901  18.601   9.735  0.0770  0.2368  0.2570
  519POPI   C4B 8212  15.023  18.840   9.433  0.0550  0.0775  0.0680
  520POPI    C1 8213   3.609   7.057   9.538  0.1143  0.1179 -0.0605
  520POPI    C2 8214   3.670   7.210   9.902 -0.1056  0.4573 -0.1607
  520POPI    C3 8215   3.390   6.929   9.848  0.2120  0.0998  0.0015
  520POPI   PO4 8216   3.545   7.273   9.371  0.1503  0.0897 -0.1362
  520POPI   GL1 8217   3.311   7.376   9.005  0.1775 -0.1765 -0.0083
  520POPI   GL2 8218   2.984   7.415   8.912 -0.0530 -0.2664  0.2372
  520POPI   C1A 8219   3.232   7.440   8.512 -0.0858  0.0234  0.0089
  520POPI   D2A 8220   3.361   7.628   8.125 -0.3894  0.0383  0.0784
  520POPI   C3A 8221   3.357   7.763   7.716 -0.1844  0.0559  0.1460
  520POPI   C4A 8222   3.405   7.781   7.336 -0.0747  0.2061  0.0633
  520POPI   C1B 8223   2.792   7.798   8.653  0.0486 -0.0593 -0.0049
  520POPI   C2B 8224   2.701   8.127   8.486 -0.1190 -0.0930  0.1368
  520POPI   C3B 8225   2.548   8.184   8.064 -0.0389 -0.1663 -0.4019
  520POPI   C4B 8226   2.416   7.778   7.859 -0.0023 -0.1540 -0.2778
  521POPI    C1 8227   8.563   6.453   9.626  0.0396  0.0087 -0.0158
  521POPI    C2 8228   8.738   6.167   9.845  0.0382 -0.0919 -0.1448
  521POPI    C3 8229   8.866   6.545   9.870 -0.1476 -0.0492  0.2433
  521POPI   PO4 8230   8.442   6.343   9.464  0.1345 -0.0797  0.2749
  521POPI   GL1 8231   8.586   6.389   9.009  0.0068 -0.0492  0.1423
  521POPI   GL2 8232   8.781   6.130   9.090  0.0877  0.2671  0.1519
  521POPI   C1A 8233   8.846   6.676   8.703 -0.3975 -0.2000 -0.0781
  521POPI   D2A 8234   8.800   6.958   8.350  0.0411  0.0587  0.1512
  521POPI   C3A 8235   9.048   6.773   8.058  0.0198 -0.0886  0.2205
  521POPI   C4A 8236   9.314   6.846   7.712 -0.0236  0.3038  0.3637
  521POPI   C1B 8237   8.726   6.147   8.572  0.3470  0.0783 -0.1311
  521POPI   C2B 8238   8.606   6.238   8.116  0.2575 -0.0189  0.2324
  521POPI   C3B 8239   8.669   6.264   7.734 -0.1718  0.0526 -0.1287
  521POPI   C4B 8240   8.380   6.085   7.423  0.3695  0.0780  0.1870
  522POPI    C1 8241  12.409   6.492   9.377  0.2667  0.0050  0.1029
  522POPI    C2 8242  12.247   6.139   9.471 -0.1112  0.0353 -0.3953
  522POPI    C3 8243  12.621   6.156   9.330  0.0201 -0.1282 -0.0766
  522POPI   PO4 8244  12.111   6.594   9.254 -0.0172  0.1738 -0.0886
  522POPI   GL1 8245  11.969   7.022   9.104 -0.3701  0.1750 -0.0252
  522POPI   GL2 8246  11.807   7.015   8.911  0.1017 -0.0092 -0.2380
  522POPI   C1A 8247  12.268   6.855   8.725 -0.1658  0.0032  0.1591
  522POPI   D2A 8248  12.427   7.159   8.644 -0.0055 -0.2363 -0.2764
  522POPI   C3A 8249  12.497   7.273   8.197 -0.0812  0.1693  0.1289
  522POPI   C4A 8250  12.264   7.464   7.829 -0.0259 -0.0649  0.1097
  522POPI   C1B 8251  11.914   7.017   8.440  0.4526 -0.2298 -0.0087
  522POPI   C2B 8252  11.943   6.885   7.976  0.3241  0.1248  0.0664
  522POPI   C3B 8253  12.140   6.781   7.686 -0.0529 -0.2916  0.0981
  522POPI   C4B 8254  12.413   6.977   7.367 -0.0841 -0.2935  0.2402
  523POPI    C1 8255   0.321  15.166   9.863 -0.2680  0.0386  0.0801
  523POPI    C2 8256   0.217  15.055  10.233 -0.1875 -0.1668  0.0423
  523POPI    C3 8257   0.603  15.068  10.130 -0.2176 -0.2848 -0.0878
  523POPI   PO4 8258   0.238  14.930   9.646 -0.1478 -0.1223 -0.0530
  523POPI   GL1 8259   0.180  14.698   9.198 -0.0119  0.1167  0.1110
  523POPI   GL2 8260   0.029  15.082   9.161  0.0541  0.0630 -0.2351
  523POPI   C1A 8261   0.043  14.704   8.833  0.0000 -0.0178  0.2983
  523POPI   D2A 8262  -0.146  14.648   8.434 -0.0432 -0.0101  0.0847
  523POPI   C3A 8263  -0.026  14.514   8.058  0.1701 -0.2232 -0.1366
  523POPI   C4A 8264  -0.326  14.447   7.700  0.2594 -0.2917 -0.0349
  523POPI   C1B 8265   0.080  15.306   8.869  0.1019  0.0730 -0.1420
  523POPI   C2B 8266  -0.045  15.465   8.431 -0.2434  0.2347 -0.2056
  523POPI   C3B 8267  -0.181  15.226   8.102 -0.2105 -0.1516 -0.1770
  523POPI   C4B 8268  -0.136  14.970   7.678  0.0784  0.0663 -0.0699
  524DPPI    C1 8269  14.906   5.168   9.967  0.1499 -0.0526  0.0481
  524DPPI    C2 8270  14.814   5.396   9.651  0.2338  0.0385  0.0887
  524DPPI    C3 8271  14.537   5.318   9.930  0.1602 -0.0400 -0.0054
  524DPPI   PO4 8272  15.163   5.093   9.833 -0.0787  0.0027 -0.0854
  524DPPI   GL1 8273  15.316   4.976   9.355 -0.3358  0.1083  0.0041
  524DPPI   GL2 8274  15.192   5.256   9.332 -0.2676  0.0795  0.2692
  524DPPI   C1A 8275  15.433   4.676   9.118  0.0636  0.2906 -0.0020
  524DPPI   C2A 8276  15.532   4.288   8.782  0.3489  0.1240  0.0456
  524DPPI   C3A 8277  15.516   4.253   8.392 -0.0079 -0.1229  0.0584
  524DPPI   C4A 8278  15.617   4.216   7.946  0.0579  0.1896  0.3828
  524DPPI   C1B 8279  15.433   5.356   8.998 -0.1011 -0.0989 -0.1288
  524DPPI   C2B 8280  15.249   5.455   8.608  0.0898  0.1930 -0.1503
  524DPPI   C3B 8281  15.319   5.589   8.171  0.0911 -0.1807  0.3097
  524DPPI   C4B 8282  15.344   5.446   7.731 -0.0920 -0.2206 -0.0483
  525DPPI    C1 8283   9.113   8.337   9.476 -0.0846  0.1198 -0.1397
  525DPPI    C2 8284   9.096   8.477   9.850 -0.1054 -0.1152 -0.0507
  525DPPI    C3 8285   8.784   8.524   9.605  0.0253  0.3177 -0.1427
  525DPPI   PO4 8286   9.354   8.215   9.494 -0.1632  0.1290 -0.5259
  525DPPI   GL1 8287   9.603   8.351   9.169 -0.0140  0.0634 -0.1235
  525DPPI   GL2 8288   9.811   8.142   9.324 -0.1086  0.2702  0.2455
  525DPPI   C1A 8289   9.611   8.305   8.788 -0.0307  0.0078 -0.2550
  525DPPI   C2A 8290   9.555   8.244   8.336  0.1899 -0.2933  0.0248
  525DPPI   C3A 8291   9.745   8.437   7.987 -0.0148 -0.3719 -0.0220
  525DPPI   C4A 8292  10.128   8.509   7.767 -0.1237  0.0563  0.3303
  525DPPI   C1B 8293   9.948   7.993   8.898 -0.0786 -0.1695 -0.0615
  525DPPI   C2B 8294  10.158   8.228   8.614 -0.0693 -0.2412  0.1191
  525DPPI   C3B 8295  10.005   8.545   8.407 -0.1554 -0.0153 -0.4894
  525DPPI   C4B 8296   9.849   8.888   8.174  0.5221 -0.0930  0.2004
  526DPPI    C1 8297   0.870  14.307   9.761  0.1544 -0.2570 -0.3981
  526DPPI    C2 8298   1.062  14.072  10.022 -0.0526  0.2242  0.2115
  526DPPI    C3 8299   1.226  14.418   9.906 -0.0466  0.1004 -0.1617
  526DPPI   PO4 8300   0.747  14.185   9.593 -0.1759  0.2110 -0.0920
  526DPPI   GL1 8301   0.532  14.319   9.247  0.2612 -0.1503 -0.2078
  526DPPI   GL2 8302   0.676  14.013   9.118 -0.0068 -0.0055  0.3761
  526DPPI   C1A 8303   0.467  14.494   8.806 -0.1033 -0.2139 -0.2750
  526DPPI   C2A 8304   0.399  14.592   8.409 -0.1244  0.1081 -0.0275
  526DPPI   C3A 8305   0.455  14.134   8.075  0.3012  0.0427 -0.0520
  526DPPI   C4A 8306   0.907  13.991   8.087 -0.1053 -0.1016 -0.0205
  526DPPI   C1B 8307   0.430  13.802   8.881  0.2061 -0.1775  0.0454
  526DPPI   C2B 8308   0.044  13.580   8.702  0.0973 -0.3485 -0.0410
  526DPPI   C3B 8309  -0.230  13.192   8.462  0.2273 -0.0019 -0.1451
  526DPPI   C4B 8310  -0.305  12.754   8.425 -0.1185 -0.2096 -0.0122
  527DPPI    C1 8311   3.153  16.492   9.377 -0.2431  0.0978  0.0747
  527DPPI    C2 8312   3.196  16.723   9.701 -0.0394 -0.0982  0.1905
  527DPPI    C3 8313   2.958  16.402   9.714  0.1232 -0.2195  0.2099
  527DPPI   PO4 8314   3.128  16.578   9.135  0.0533 -0.0399  0.1895
  527DPPI   GL1 8315   2.852  16.609   8.860  0.0143 -0.1878  0.2025
  527DPPI   GL2 8316   2.848  16.306   8.851  0.1655 -0.0707 -0.0417
  527DPPI   C1A 8317   2.626  16.683   8.489 -0.0493 -0.2107  0.0512
  527DPPI   C2A 8318   2.447  16.571   8.077 -0.0696  0.0833 -0.1667
  527DPPI   C3A 8319   2.313  16.788   7.727  0.0119  0.0604  0.0496
  527DPPI   C4A 8320   2.368  16.926   7.360 -0.2891  0.2960 -0.1844
  527DPPI   C1B 8321   2.773  16.204   8.354 -0.0794  0.1821 -0.4143
  527DPPI   C2B 8322   2.604  16.151   7.942 -0.2139  0.3414 -0.1947
  527DPPI   C3B 8323   2.303  16.296   7.655  0.2122 -0.1754  0.0368
  527DPPI   C4B 8324   1.986  16.461   7.299  0.0873 -0.0001 -0.0436
  528DPPI    C1 8325   6.661   9.504   9.949 -0.1993 -0.0793 -0.0309
  528DPPI    C2 8326   6.324   9.469  10.161 -0.1291 -0.2226  0.0587
  528DPPI    C3 8327   6.644   9.248  10.257 -0.0679 -0.2220 -0.1403
  528DPPI   PO4 8328   6.633   9.454   9.682  0.0497  0.0503  0.3365
  528DPPI   GL1 8329   6.675   9.350   9.358 -0.0277  0.1224  0.0805
  528DPPI   GL2 8330   6.358   9.169   9.310  0.0734 -0.0403  0.1966
  528DPPI   C1A 8331   6.855   9.453   8.995 -0.1219 -0.1891  0.2427
  528DPPI   C2A 8332   7.081   9.591   8.605 -0.0330 -0.1777 -0.2356
  528DPPI   C3A 8333   6.957   9.622   8.233  0.0977  0.1113 -0.2329
  528DPPI   C4A 8334   6.918   9.567   7.928 -0.2764  0.2326 -0.0193
  528DPPI   C1B 8335   6.399   8.937   8.873  0.1972 -0.0559  0.2361
  528DPPI   C2B 8336   6.325   9.000   8.419  0.1819 -0.0389  0.1392
  528DPPI   C3B 8337   6.336   8.770   7.981 -0.1957 -0.1990 -0.1834
  528DPPI   C4B 8338   6.331   8.544   7.648  0.5033 -0.1875 -0.1083
  529DPPI    C1 8339  14.476   0.996  10.487 -0.1569 -0.1787  0.1699
  529DPPI    C2 8340  14.669   1.268  10.707  0.1263 -0.2058 -0.0387
  529DPPI    C3 8341  14.327   1.365  10.524  0.2749  0.0428 -0.1907
  529DPPI   PO4 8342  14.665   0.968  10.316 -0.1471  0.0214  0.2350
  529DPPI   GL1 8343  14.765   0.694  10.011 -0.0585  0.0741 -0.2772
  529DPPI   GL2 8344  14.888   1.019   9.890  0.1432  0.2600  0.0514
  529DPPI   C1A 8345  14.809   0.637   9.595 -0.1220 -0.4079  0.1235
  529DPPI   C2A 8346  14.665   0.324   9.352  0.1360 -0.2857 -0.2084
  529DPPI   C3A 8347  14.327   0.211   9.115  0.0224 -0.0261 -0.1808
  529DPPI   C4A 8348  14.055  -0.179   8.929  0.2562 -0.0705  0.1401
  529DPPI   C1B 8349  14.965   1.108   9.404  0.0362  0.0687 -0.0845
  529DPPI   C2B 8350  14.895   1.279   8.977  0.1286  0.4249 -0.1351
  529DPPI   C3B 8351  15.089   1.303   8.611 -0.0406 -0.1143  0.0211
  529DPPI   C4B 8352  15.238   1.458   8.325 -0.0512  0.0238 -0.0564
  530DPPI    C1 8353  11.191   7.094   9.783 -0.0948 -0.2439 -0.1167
  530DPPI    C2 8354  11.453   7.328   9.973 -0.3815  0.0674 -0.0943
  530DPPI    C3 8355  11.472   6.930  10.015 -0.0147  0.0942  0.0301
  530DPPI   PO4 8356  11.237   7.214   9.501  0.0501 -0.1476  0.3429
  530DPPI   GL1 8357  11.324   7.177   9.075 -0.0873 -0.2071  0.2027
  530DPPI   GL2 8358  11.247   6.998   8.901 -0.1980  0.0906 -0.2985
  530DPPI   C1A 8359  11.614   7.438   8.829 -0.0103 -0.0123  0.0122
  530DPPI   C2A 8360  11.724   7.532   8.421 -0.0783  0.0002 -0.3249
  530DPPI   C3A 8361  11.812   7.516   7.912 -0.1258  0.3229  0.0318
  530DPPI   C4A 8362  11.873   7.717   7.423  0.1496  0.1187  0.2342
  530DPPI   C1B 8363  11.370   7.143   8.448 -0.0582 -0.1645 -0.1219
  530DPPI   C2B 8364  11.429   7.017   8.008 -0.0224  0.1090 -0.3663
  530DPPI   C3B 8365  11.611   6.964   7.611 -0.3374 -0.1352 -0.0341
  530DPPI   C4B 8366  11.978   7.214   7.549  0.1917 -0.0456  0.1688
  531DPPI    C1 8367  12.845  12.061  10.418 -0.0892  0.1228 -0.0894
  531DPPI    C2 8368  12.787  12.345  10.694  0.5349  0.0831  0.0971
  531DPPI    C3 8369  12.936  12.442  10.336 -0.2706  0.1340 -0.2443
  531DPPI   PO4 8370  12.621  11.911  10.393 -0.2756 -0.3670 -0.0890
  531DPPI   GL1 8371  12.271  11.972   9.992 -0.3653  0.1431  0.0871
  531DPPI   GL2 8372  12.517  12.059   9.772  0.3625  0.0656 -0.1694
  531DPPI   C1A 8373  11.973  11.966   9.639 -0.2680 -0.1146 -0.1843
  531DPPI   C2A 8374  11.929  11.920   9.188 -0.1163 -0.1219  0.4531
  531DPPI   C3A 8375  11.703  12.138   8.833  0.2093  0.2556 -0.3273
  531DPPI   C4A 8376  11.529  12.617   8.887  0.0137  0.0999 -0.3755
  531DPPI   C1B 8377  12.495  12.119   9.309  0.2992  0.0437 -0.0721
  531DPPI   C2B 8378  12.435  12.091   8.864 -0.1709 -0.0147 -0.3891
  531DPPI   C3B 8379  12.425  12.229   8.472 -0.0093  0.0020 -0.2280
  531DPPI   C4B 8380  12.309  12.518   8.207  0.0057 -0.1080 -0.0239
  532DPPI    C1 8381   7.316   1.316   9.993  0.0305 -0.1974 -0.1232
  532DPPI    C2 8382   7.130   1.374  10.343 -0.1147  0.0243 -0.2350
  532DPPI    C3 8383   7.212   1.003  10.219 -0.0631 -0.0556  0.0326
  532DPPI   PO4 8384   7.403   1.535   9.967 -0.1912 -0.2780 -0.3109
  532DPPI   GL1 8385   7.392   1.693   9.611 -0.1682 -0.1244  0.3769
  532DPPI   GL2 8386   7.345   1.975   9.388  0.2563  0.1837  0.2356
  532DPPI   C1A 8387   7.449   1.458   9.257  0.0629 -0.2461  0.2048
  532DPPI   C2A 8388   7.366   1.346   8.830 -0.2031 -0.0415  0.2582
  532DPPI   C3A 8389   7.369   1.035   8.471 -0.0489  0.1931  0.2448
  532DPPI   C4A 8390   7.405   0.764   8.022  0.1703  0.0172 -0.0889
  532DPPI   C1B 8391   7.040   2.066   9.184 -0.1809  0.1535  0.1256
  532DPPI   C2B 8392   7.204   1.844   8.686 -0.2375  0.2826 -0.5331
  532DPPI   C3B 8393   7.076   1.454   8.384 -0.3067 -0.4246  0.3027
  532DPPI   C4B 8394   6.737   1.309   8.049 -0.0030  0.3059 -0.0458
  533DPPI    C1 8395   0.630  18.657  10.266 -0.0110  0.1723 -0.3266
  533DPPI    C2 8396   0.440  18.480  10.570 -0.0139  0.3211 -0.2405
  533DPPI    C3 8397   0.561  18.860  10.604  0.2279  0.2534 -0.3247
  533DPPI   PO4 8398   0.439  18.546  10.052 -0.4460 -0.3165  0.0194
  533DPPI   GL1 8399   0.238  18.623   9.660 -0.0768 -0.0472  0.0754
  533DPPI   GL2 8400   0.527  18.492   9.509 -0.0820  0.3451  0.2014
  533DPPI   C1A 8401   0.069  18.679   9.204 -0.0460  0.3937  0.2664
  533DPPI   C2A 8402  -0.017  18.665   8.766  0.1074  0.1331 -0.0637
  533DPPI   C3A 8403  -0.028  18.802   8.279  0.2437  0.0337 -0.2878
  533DPPI   C4A 8404  -0.123  18.467   7.903  0.0118 -0.3330  0.2480
  533DPPI   C1B 8405   0.538  18.414   9.099  0.1201  0.0713  0.0130
  533DPPI   C2B 8406   0.411  18.271   8.680  0.0626 -0.1296 -0.2459
  533DPPI   C3B 8407   0.528  18.083   8.277 -0.1533  0.2964 -0.3512
  533DPPI   C4B 8408   0.761  18.087   7.872 -0.0563 -0.3807  0.0080
  534DPPI    C1 8409  13.348  17.842  10.408 -0.4642 -0.1066  0.0422
  534DPPI    C2 8410  13.195  18.046  10.716 -0.1409  0.2891 -0.0495
  534DPPI    C3 8411  13.575  17.919  10.728 -0.2014  0.0894 -0.1855
  534DPPI   PO4 8412  13.173  17.978  10.203 -0.2467 -0.0511 -0.1203
  534DPPI   GL1 8413  13.283  17.787   9.842 -0.0523  0.1728 -0.0557
  534DPPI   GL2 8414  13.618  17.676   9.984 -0.0854 -0.0784  0.1018
  534DPPI   C1A 8415  13.440  17.814   9.466  0.1309  0.0320  0.0913
  534DPPI   C2A 8416  13.645  17.496   9.134 -0.1129  0.0620  0.0996
  534DPPI   C3A 8417  13.883  17.518   8.749  0.0575 -0.2043  0.1220
  534DPPI   C4A 8418  13.945  17.635   8.284 -0.0801  0.1178 -0.0587
  534DPPI   C1B 8419  13.477  17.353   9.620 -0.0976  0.1448 -0.0712
  534DPPI   C2B 8420  13.246  17.247   9.292 -0.1620 -0.0624 -0.1158
  534DPPI   C3B 8421  13.210  17.218   8.880  0.0003 -0.2448  0.1294
  534DPPI   C4B 8422  13.233  16.884   8.566  0.0306 -0.1276 -0.1041
  535DPPI    C1 8423  17.271  13.696  10.375  0.1184  0.1364 -0.2090
  535DPPI    C2 8424  17.647  13.783  10.481  0.0313 -0.0325  0.2631
  535DPPI    C3 8425  17.347  13.846  10.738 -0.2784  0.1714 -0.1363
  535DPPI   PO4 8426  17.239  13.763  10.090 -0.1186  0.0308  0.1408
  535DPPI   GL1 8427  17.066  13.836   9.627  0.2206  0.0875 -0.0963
  535DPPI   GL2 8428  16.774  13.995   9.475 -0.1360  0.0006 -0.0578
  535DPPI   C1A 8429  17.069  13.612   9.186  0.0325 -0.0828  0.1648
  535DPPI   C2A 8430  17.034  13.552   8.748 -0.0015  0.1091  0.0795
  535DPPI   C3A 8431  16.900  13.646   8.286  0.1103 -0.1416  0.4550
  535DPPI   C4A 8432  16.801  13.988   7.916 -0.2101  0.2523 -0.2735
  535DPPI   C1B 8433  17.062  14.186   9.126 -0.0506 -0.0517  0.0765
  535DPPI   C2B 8434  17.009  14.114   8.692 -0.1676 -0.0757 -0.3139
  535DPPI   C3B 8435  16.856  14.094   8.425 -0.2140 -0.2654 -0.2017
  535DPPI   C4B 8436  16.530  14.091   8.354  0.1619  0.3314 -0.0773
  536DPPI    C1 8437  14.896   3.841  10.045 -0.0462  0.0244  0.1057
  536DPPI    C2 8438  14.518   3.964   9.999 -0.1368 -0.2880 -0.0119
  536DPPI    C3 8439  14.689   3.976  10.360 -0.1107  0.2564 -0.0332
  536DPPI   PO4 8440  14.963   3.654   9.902 -0.3056  0.2703 -0.1245
  536DPPI   GL1 8441  14.928   3.272   9.613 -0.0751 -0.4410  0.2440
  536DPPI   GL2 8442  14.702   3.163   9.432  0.1999 -0.3236  0.1646
  536DPPI   C1A 8443  15.266   3.163   9.436  0.0765 -0.0293 -0.0169
  536DPPI   C2A 8444  15.454   2.884   9.143 -0.0179  0.1350  0.3412
  536DPPI   C3A 8445  15.708   2.730   8.862 -0.0857 -0.1826 -0.1341
  536DPPI   C4A 8446  15.732   2.282   8.619  0.3641  0.1237  0.0445
  536DPPI   C1B 8447  14.840   3.407   9.124 -0.0890 -0.2709 -0.1480
  536DPPI   C2B 8448  15.104   3.187   8.896  0.3779  0.2008  0.1990
  536DPPI   C3B 8449  15.341   3.336   8.579 -0.2490  0.0998 -0.1415
  536DPPI   C4B 8450  15.312   3.286   8.046  0.6144 -0.1149 -0.0709
  537DPPI    C1 8451  17.761  10.826  10.168 -0.0413  0.1164  0.0457
  537DPPI    C2 8452  17.716  10.583  10.483  0.0531 -0.1274 -0.1253
  537DPPI    C3 8453  17.961  10.899  10.507 -0.4155  0.2226  0.2490
  537DPPI   PO4 8454  17.787  10.730   9.970  0.2826  0.3891  0.1716
  537DPPI   GL1 8455  17.615  10.578   9.597 -0.0760 -0.5733 -0.0664
  537DPPI   GL2 8456  17.697  10.274   9.629 -0.0279  0.0756 -0.1462
  537DPPI   C1A 8457  17.510  10.846   9.303  0.0415 -0.3803 -0.1739
  537DPPI   C2A 8458  17.545  10.864   8.854 -0.1008  0.2672 -0.0498
  537DPPI   C3A 8459  17.684  10.631   8.422  0.1185 -0.0833  0.1795
  537DPPI   C4A 8460  17.536  10.513   8.079  0.0671  0.0231  0.1497
  537DPPI   C1B 8461  17.428  10.344   9.235 -0.0715  0.1975 -0.4053
  537DPPI   C2B 8462  17.527  10.289   8.770  0.1233 -0.1868  0.0097
  537DPPI   C3B 8463  17.722  10.153   8.357 -0.2380  0.1765  0.1741
  537DPPI   C4B 8464  17.470   9.994   7.998 -0.2211  0.0044  0.0675
  538DPPI    C1 8465   8.182   9.933   9.746  0.0456  0.0665 -0.1510
  538DPPI    C2 8466   8.484   9.708   9.613 -0.1901 -0.2404 -0.1789
  538DPPI    C3 8467   8.365   9.678   9.994  0.0401  0.1399 -0.0707
  538DPPI   PO4 8468   8.180  10.213   9.477 -0.0270  0.1056 -0.1858
  538DPPI   GL1 8469   8.248  10.228   9.143  0.0934 -0.1638  0.3303
  538DPPI   GL2 8470   8.597  10.019   9.240 -0.0906  0.2538 -0.1867
  538DPPI   C1A 8471   8.087  10.580   8.970 -0.2114 -0.4429  0.1873
  538DPPI   C2A 8472   8.100  10.974   8.737  0.1732  0.1016  0.1567
  538DPPI   C3A 8473   7.985  11.314   8.534  0.1855  0.2098 -0.1809
  538DPPI   C4A 8474   7.749  11.629   8.318 -0.2718  0.0205 -0.5046
  538DPPI   C1B 8475   8.565  10.105   8.786  0.4079  0.3183 -0.0914
  538DPPI   C2B 8476   8.575  10.102   8.304 -0.0474 -0.1460  0.0036
  538DPPI   C3B 8477   8.324  10.308   7.987 -0.2645  0.1517 -0.1388
  538DPPI   C4B 8478   8.297  10.546   7.690  0.0118  0.0533  0.3870
  539DPPI    C1 8479   9.529   5.346   9.553 -0.0627 -0.4146  0.2318
  539DPPI    C2 8480   9.430   5.549   9.883  0.2184  0.1085  0.0053
  539DPPI    C3 8481   9.784   5.364   9.861  0.0358 -0.2666  0.1427
  539DPPI   PO4 8482   9.594   5.454   9.336 -0.0554  0.2791 -0.0267
  539DPPI   GL1 8483   9.420   5.406   8.943  0.2779 -0.0983  0.1998
  539DPPI   GL2 8484   9.470   5.070   8.918 -0.0510 -0.3134  0.2808
  539DPPI   C1A 8485   9.331   5.395   8.494 -0.0374  0.0049  0.1849
  539DPPI   C2A 8486   9.060   5.269   8.174  0.0953 -0.0757 -0.2442
  539DPPI   C3A 8487   8.897   5.317   7.809 -0.2984 -0.2596  0.1320
  539DPPI   C4A 8488   8.475   5.269   7.600  0.0057 -0.1110  0.2339
  539DPPI   C1B 8489   8.997   5.195   8.810  0.0861  0.1014 -0.1459
  539DPPI   C2B 8490   8.750   5.473   8.524 -0.0799  0.2609  0.1111
  539DPPI   C3B 8491   8.591   5.643   8.118  0.2845  0.0788  0.0887
  539DPPI   C4B 8492   8.300   5.827   7.832  0.1237 -0.3361 -0.1934
  540DPPI    C1 8493  10.870  14.621  10.480  0.1975  0.0524 -0.0992
  540DPPI    C2 8494  11.246  14.646  10.614  0.1171  0.0564  0.1291
  540DPPI    C3 8495  10.944  14.602  10.872 -0.0325 -0.0308 -0.0585
  540DPPI   PO4 8496  10.878  14.467  10.269 -0.2425  0.1554 -0.1503
  540DPPI   GL1 8497  10.551  14.549   9.923  0.1653  0.2908 -0.0235
  540DPPI   GL2 8498  10.297  14.633   9.640 -0.3654 -0.0347  0.0974
  540DPPI   C1A 8499  10.593  14.205   9.580 -0.2353 -0.1108  0.0084
  540DPPI   C2A 8500  10.724  14.159   9.139  0.2533  0.0786  0.0554
  540DPPI   C3A 8501  10.763  14.144   8.783 -0.0634 -0.2777 -0.0177
  540DPPI   C4A 8502  10.983  13.849   8.763 -0.2997 -0.4295  0.0250
  540DPPI   C1B 8503  10.260  14.347   9.236 -0.3929  0.1140 -0.0699
  540DPPI   C2B 8504  10.281  14.183   8.842 -0.0490  0.1119 -0.1585
  540DPPI   C3B 8505  10.340  14.243   8.402  0.2438  0.1047 -0.0284
  540DPPI   C4B 8506  10.244  14.491   8.093 -0.4046  0.2219  0.0517
  541DPPI    C1 8507  16.410  12.546  10.617  0.1474 -0.0437  0.0563
  541DPPI    C2 8508  16.633  12.528  10.286  0.1805 -0.0582  0.0795
  541DPPI    C3 8509  16.625  12.864  10.503  0.0864 -0.0177  0.0139
  541DPPI   PO4 8510  16.180  12.302  10.477 -0.2277 -0.0596 -0.0891
  541DPPI   GL1 8511  16.101  12.324   9.996 -0.0931  0.0284 -0.0915
  541DPPI   GL2 8512  15.835  12.142   9.949  0.0366  0.1450 -0.1795
  541DPPI   C1A 8513  16.345  12.074   9.662  0.0171 -0.0219 -0.1794
  541DPPI   C2A 8514  16.582  12.155   9.313 -0.1338  0.0005 -0.1226
  541DPPI   C3A 8515  16.777  12.183   8.916 -0.1071  0.2337 -0.0691
  541DPPI   C4A 8516  16.994  12.138   8.452  0.0003 -0.3028  0.3181
  541DPPI   C1B 8517  15.404  12.163   9.677 -0.0691 -0.1682  0.2108
  541DPPI   C2B 8518  15.025  12.059   9.468  0.2005 -0.0207 -0.0243
  541DPPI   C3B 8519  14.689  12.238   9.256  0.4895 -0.1074  0.2747
  541DPPI   C4B 8520  14.308  12.265   8.991 -0.2239 -0.0108 -0.1044
  542DPPI    C1 8521  12.442  14.635  10.407 -0.0454  0.2430  0.0568
  542DPPI    C2 8522  12.232  14.298  10.454  0.1121  0.1329 -0.0198
  542DPPI    C3 8523  12.538  14.379  10.699  0.0072  0.2730  0.0660
  542DPPI   PO4 8524  12.539  14.640  10.186  0.2980 -0.0089 -0.0427
  542DPPI   GL1 8525  12.674  14.542   9.818 -0.0904 -0.1859  0.3498
  542DPPI   GL2 8526  12.307  14.406   9.811  0.0255 -0.0614 -0.0939
  542DPPI   C1A 8527  12.936  14.600   9.505  0.0706  0.2688  0.4349
  542DPPI   C2A 8528  12.992  14.779   9.150 -0.0186 -0.3260  0.1533
  542DPPI   C3A 8529  13.257  15.054   9.048  0.1501 -0.0102  0.2406
  542DPPI   C4A 8530  13.644  15.194   9.251  0.0201 -0.1706  0.3223
  542DPPI   C1B 8531  12.217  14.278   9.455 -0.2216  0.1398  0.0657
  542DPPI   C2B 8532  12.220  14.356   9.045  0.0114  0.0175 -0.2838
  542DPPI   C3B 8533  12.214  14.482   8.614  0.0942 -0.2046  0.2673
  542DPPI   C4B 8534  12.198  14.441   8.223 -0.0918 -0.1173  0.1150
  543DPPI    C1 8535   6.600  16.108  10.007 -0.0969 -0.1033 -0.0646
  543DPPI    C2 8536   6.916  16.017  10.235 -0.0796  0.0775 -0.0145
  543DPPI    C3 8537   6.556  15.865  10.322 -0.0532  0.0646  0.0729
  543DPPI   PO4 8538   6.654  16.103   9.769  0.1515 -0.0560  0.2421
  543DPPI   GL1 8539   6.441  16.257   9.494 -0.1981  0.1648  0.1404
  543DPPI   GL2 8540   6.759  16.569   9.534 -0.1088 -0.2637 -0.0006
  543DPPI   C1A 8541   6.513  16.095   8.994 -0.3011  0.3326  0.0523
  543DPPI   C2A 8542   6.576  16.029   8.644  0.0806 -0.0449  0.1208
  543DPPI   C3A 8543   6.476  15.719   8.411 -0.2605 -0.0266 -0.0308
  543DPPI   C4A 8544   6.433  15.317   8.264 -0.1923 -0.1789  0.1049
  543DPPI   C1B 8545   6.665  16.537   9.168 -0.0190 -0.3200 -0.0135
  543DPPI   C2B 8546   6.561  16.590   8.784 -0.1775 -0.3408 -0.0196
  543DPPI   C3B 8547   6.588  16.812   8.349 -0.1120  0.0392 -0.0846
  543DPPI   C4B 8548   6.636  17.013   7.895 -0.0516  0.4391  0.0202
  544DPPI    C1 8549   9.634  18.371  10.300 -0.1893  0.1064 -0.0331
  544DPPI    C2 8550   9.619  18.541  10.662  0.0190 -0.2664  0.1569
  544DPPI    C3 8551   9.913  18.284  10.573 -0.0443 -0.1989 -0.2715
  544DPPI   PO4 8552   9.788  18.576  10.036 -0.1003  0.1436  0.1149
  544DPPI   GL1 8553   9.900  18.604   9.658 -0.0388  0.0371  0.2987
  544DPPI   GL2 8554   9.944  18.471   9.424  0.4387  0.0315  0.0757
  544DPPI   C1A 8555   9.717  18.912   9.368  0.0311 -0.1699 -0.1909
  544DPPI   C2A 8556   9.656  19.043   9.034  0.0552  0.2267 -0.0094
  544DPPI   C3A 8557   9.821  19.084   8.572 -0.1867 -0.2666  0.2916
  544DPPI   C4A 8558  10.006  19.209   8.136 -0.0815  0.2569 -0.3258
  544DPPI   C1B 8559  10.025  18.217   9.165  0.2310 -0.1924 -0.0066
  544DPPI   C2B 8560  10.003  17.997   8.819  0.0077  0.1225 -0.0274
  544DPPI   C3B 8561  10.189  17.930   8.383 -0.1890  0.0516 -0.1761
  544DPPI   C4B 8562  10.315  17.864   8.105 -0.0699  0.0458 -0.1988
  545DPPI    C1 8563   5.918  13.404   9.751  0.0889  0.0339 -0.1991
  545DPPI    C2 8564   5.733  13.659   9.505 -0.0298  0.2257  0.0840
  545DPPI    C3 8565   5.913  13.795   9.836  0.3672  0.0045 -0.0348
  545DPPI   PO4 8566   5.862  13.159   9.629  0.0504  0.0606  0.1049
  545DPPI   GL1 8567   5.712  12.996   9.292  0.0379 -0.3682  0.0258
  545DPPI   GL2 8568   5.544  12.716   9.235  0.0173 -0.0360 -0.3229
  545DPPI   C1A 8569   5.781  12.983   8.863 -0.3709 -0.0043 -0.1201
  545DPPI   C2A 8570   5.742  12.840   8.446 -0.0828  0.4251  0.0416
  545DPPI   C3A 8571   5.921  12.506   8.109  0.2987  0.1855 -0.2333
  545DPPI   C4A 8572   5.975  12.140   7.918  0.0995  0.2617 -0.2155
  545DPPI   C1B 8573   5.816  12.480   8.976 -0.1328 -0.1983 -0.2225
  545DPPI   C2B 8574   6.007  12.249   8.631 -0.2631 -0.0188 -0.0530
  545DPPI   C3B 8575   6.097  11.858   8.375 -0.1868 -0.2564 -0.1126
  545DPPI   C4B 8576   6.196  11.623   8.033  0.1252  0.0418  0.0828
  546DPPI    C1 8577  13.681   6.842   9.642 -0.1396  0.1745 -0.2246
  546DPPI    C2 8578  13.698   7.165   9.407  0.0408  0.2676 -0.0858
  546DPPI    C3 8579  13.728   7.204   9.804  0.1287  0.0744 -0.0720
  546DPPI   PO4 8580  13.803   6.668   9.561 -0.1307  0.2026  0.1690
  546DPPI   GL1 8581  14.075   6.779   9.243  0.1396  0.0715 -0.1314
  546DPPI   GL2 8582  14.340   6.783   9.184  0.0336  0.2486 -0.2868
  546DPPI   C1A 8583  14.012   6.417   9.022 -0.4160 -0.1875 -0.1237
  546DPPI   C2A 8584  13.819   6.291   8.542  0.1492  0.1629  0.1593
  546DPPI   C3A 8585  13.484   6.296   8.110  0.0525  0.0426 -0.0356
  546DPPI   C4A 8586  13.222   5.954   7.952  0.1038  0.4740  0.2381
  546DPPI   C1B 8587  14.283   6.750   8.750 -0.0433  0.1813 -0.0745
  546DPPI   C2B 8588  14.162   6.620   8.329 -0.0054  0.0323  0.2285
  546DPPI   C3B 8589  13.947   6.477   8.085  0.1167  0.0587  0.2861
  546DPPI   C4B 8590  13.946   6.192   7.746 -0.1271  0.0421  0.2425
  547DPPI    C1 8591  14.048   9.575   9.896  0.0234 -0.0593  0.0760
  547DPPI    C2 8592  14.294   9.387  10.150  0.0952 -0.2619 -0.1404
  547DPPI    C3 8593  14.343   9.777  10.076  0.0816 -0.2040  0.1446
  547DPPI   PO4 8594  14.135   9.499   9.608  0.3350  0.1169 -0.1231
  547DPPI   GL1 8595  14.292   9.695   9.187 -0.0240  0.0852  0.1516
  547DPPI   GL2 8596  13.936   9.699   9.141 -0.0566  0.0677  0.2194
  547DPPI   C1A 8597  14.442   9.923   8.791 -0.0560  0.1127 -0.3774
  547DPPI   C2A 8598  14.248   9.906   8.392 -0.0655  0.2854 -0.0078
  547DPPI   C3A 8599  13.808   9.882   8.153  0.2458  0.2143 -0.2972
  547DPPI   C4A 8600  13.656  10.062   7.864 -0.1241  0.0875 -0.1149
  547DPPI   C1B 8601  14.080   9.565   8.757  0.0024  0.2860  0.0025
  547DPPI   C2B 8602  14.127   9.209   8.601 -0.1224 -0.1791  0.1801
  547DPPI   C3B 8603  14.138   8.923   8.291  0.0265  0.2739  0.1583
  547DPPI   C4B 8604  13.983   8.652   8.015 -0.0588  0.1536  0.2280
  548DPPI    C1 8605  17.501  11.806   9.945 -0.2622  0.1825 -0.1464
  548DPPI    C2 8606  17.357  11.846  10.316 -0.1918 -0.1413 -0.0808
  548DPPI    C3 8607  17.356  11.488  10.139  0.0601 -0.0487 -0.2755
  548DPPI   PO4 8608  17.342  12.041   9.779 -0.1151 -0.4126 -0.1894
  548DPPI   GL1 8609  17.495  11.888   9.405  0.2813 -0.5372 -0.1101
  548DPPI   GL2 8610  17.728  12.205   9.428  0.1764 -0.3052  0.0255
  548DPPI   C1A 8611  17.673  11.729   9.017  0.0073  0.3272  0.0299
  548DPPI   C2A 8612  17.625  11.413   8.736  0.3125  0.2702  0.2181
  548DPPI   C3A 8613  17.695  11.209   8.400 -0.2268  0.0708  0.4382
  548DPPI   C4A 8614  17.420  10.991   7.989 -0.0697  0.1846  0.3147
  548DPPI   C1B 8615  17.985  12.225   9.102  0.3904  0.0450  0.0681
  548DPPI   C2B 8616  18.018  12.038   8.767 -0.0714 -0.2424 -0.2531
  548DPPI   C3B 8617  17.874  11.764   8.549 -0.3559  0.0404 -0.2002
  548DPPI   C4B 8618  17.823  11.600   8.148 -0.2915 -0.3019  0.2130
  549DPPI    C1 8619  14.778  12.726  10.780  0.2601 -0.1224  0.0127
  549DPPI    C2 8620  14.832  13.059  10.994  0.2029 -0.0909 -0.0218
  549DPPI    C3 8621  14.972  12.709  11.130  0.1626 -0.0720  0.0692
  549DPPI   PO4 8622  14.738  12.756  10.543 -0.1201 -0.2956  0.0212
  549DPPI   GL1 8623  14.689  12.853  10.152  0.1664 -0.1999 -0.2244
  549DPPI   GL2 8624  14.957  13.132  10.185 -0.0375  0.1185  0.1555
  549DPPI   C1A 8625  14.560  13.081   9.826 -0.1236 -0.0512  0.1837
  549DPPI   C2A 8626  14.492  13.383   9.508 -0.0625  0.3403 -0.1040
  549DPPI   C3A 8627  14.803  13.576   9.413  0.3195  0.0087 -0.4247
  549DPPI   C4A 8628  15.171  13.775   9.631 -0.1311 -0.2073 -0.2155
  549DPPI   C1B 8629  15.041  13.187   9.743  0.3763 -0.1391  0.1871
  549DPPI   C2B 8630  15.237  13.235   9.336 -0.3581  0.1334  0.1656
  549DPPI   C3B 8631  15.074  13.500   8.998  0.0288 -0.5359  0.2285
  549DPPI   C4B 8632  15.138  13.921   8.867  0.2580 -0.0992  0.1110
  550DPPI    C1 8633   0.953   6.528   9.839 -0.0561 -0.0595 -0.0206
  550DPPI    C2 8634   0.879   6.868  10.035 -0.0041  0.1136 -0.2963
  550DPPI    C3 8635   0.625   6.561  10.066 -0.0880  0.2006 -0.1017
  550DPPI   PO4 8636   1.106   6.630   9.618  0.1622 -0.1008  0.3396
  550DPPI   GL1 8637   1.128   6.638   9.250  0.0405 -0.4119  0.0508
  550DPPI   GL2 8638   1.054   6.219   9.076  0.0041  0.3560 -0.0744
  550DPPI   C1A 8639   1.128   6.660   8.798  0.5044 -0.1049 -0.3865
  550DPPI   C2A 8640   0.947   6.576   8.344  0.1305  0.0994  0.0196
  550DPPI   C3A 8641   0.776   6.819   8.055 -0.0858  0.0327  0.2671
  550DPPI   C4A 8642   0.487   7.132   7.794 -0.4250  0.1109 -0.1129
  550DPPI   C1B 8643   1.180   6.130   8.704 -0.0308 -0.3606 -0.3508
  550DPPI   C2B 8644   1.438   6.327   8.365 -0.2445  0.1021  0.1470
  550DPPI   C3B 8645   1.463   6.431   7.827  0.1268  0.2440  0.0017
  550DPPI   C4B 8646   1.697   6.437   7.518  0.1757  0.0028 -0.2561
  551DPPI    C1 8647  12.136  18.052  10.194 -0.2023  0.2010  0.0795
  551DPPI    C2 8648  11.925  17.768  10.380 -0.0608  0.0159 -0.0398
  551DPPI    C3 8649  12.228  17.948  10.569 -0.0396 -0.0362 -0.0242
  551DPPI   PO4 8650  12.240  17.904   9.876 -0.0525 -0.4173 -0.0879
  551DPPI   GL1 8651  12.516  17.934   9.525 -0.4482 -0.1019 -0.2702
  551DPPI   GL2 8652  12.406  18.237   9.521  0.5230 -0.3309 -0.2137
  551DPPI   C1A 8653  12.538  17.753   9.100  0.0301 -0.1151 -0.1018
  551DPPI   C2A 8654  12.758  17.505   8.820  0.1065  0.1097 -0.0254
  551DPPI   C3A 8655  12.822  17.255   8.412 -0.1212 -0.2225  0.0129
  551DPPI   C4A 8656  12.775  16.818   8.187  0.0019 -0.1504  0.2739
  551DPPI   C1B 8657  12.663  18.244   9.088  0.4494  0.3663 -0.0246
  551DPPI   C2B 8658  12.873  18.025   8.726  0.0280  0.1890 -0.0746
  551DPPI   C3B 8659  13.037  17.713   8.302 -0.0892 -0.0639 -0.2393
  551DPPI   C4B 8660  12.886  17.350   7.952  0.1828  0.1880 -0.2716
  552DPPI    C1 8661   5.327   6.301   9.867 -0.3015 -0.2417 -0.0715
  552DPPI    C2 8662   5.173   6.669   9.835  0.0730 -0.0778 -0.0471
  552DPPI    C3 8663   5.022   6.411  10.101 -0.2123  0.0458 -0.0860
  552DPPI   PO4 8664   5.604   6.380   9.736  0.0039  0.2652 -0.1010
  552DPPI   GL1 8665   5.816   6.528   9.361  0.1080 -0.1196 -0.1080
  552DPPI   GL2 8666   5.538   6.665   9.238 -0.2260  0.0796  0.0942
  552DPPI   C1A 8667   6.026   6.440   8.890  0.0479 -0.0730 -0.2011
  552DPPI   C2A 8668   6.259   6.380   8.490  0.0280  0.3499 -0.1054
  552DPPI   C3A 8669   6.246   6.430   8.035 -0.1302 -0.0236 -0.1310
  552DPPI   C4A 8670   5.856   6.526   7.802 -0.1508  0.0965 -0.0737
  552DPPI   C1B 8671   5.551   6.540   8.836  0.0222 -0.2206 -0.1888
  552DPPI   C2B 8672   5.242   6.439   8.461 -0.0129  0.2398  0.1743
  552DPPI   C3B 8673   5.149   6.667   7.991 -0.1481 -0.0186  0.2642
  552DPPI   C4B 8674   5.212   6.697   7.466  0.2123  0.4160 -0.2570
  553DPPI    C1 8675  12.792  11.412  10.292 -0.1260  0.0208  0.0405
  553DPPI    C2 8676  13.126  11.608  10.392 -0.1662  0.0223  0.1745
  553DPPI    C3 8677  12.840  11.549  10.665 -0.2062 -0.1194  0.1029
  553DPPI   PO4 8678  12.909  11.244  10.115  0.1114  0.0880 -0.2194
  553DPPI   GL1 8679  13.136  11.155   9.781 -0.0482 -0.1410 -0.2258
  553DPPI   GL2 8680  12.967  11.361   9.531  0.5671  0.2621 -0.0547
  553DPPI   C1A 8681  13.145  10.905   9.362 -0.2293 -0.1188 -0.1330
  553DPPI   C2A 8682  13.145  10.724   8.924  0.1781  0.0157 -0.1660
  553DPPI   C3A 8683  13.073  10.944   8.432  0.1376 -0.2471 -0.2116
  553DPPI   C4A 8684  13.056  10.902   8.004  0.4424 -0.1504 -0.2002
  553DPPI   C1B 8685  13.311  11.385   9.344 -0.1546  0.0976 -0.1699
  553DPPI   C2B 8686  13.738  11.472   9.225 -0.0063 -0.0095 -0.1658
  553DPPI   C3B 8687  14.158  11.495   9.212 -0.0863 -0.3029  0.0188
  553DPPI   C4B 8688  14.479  11.786   9.027  0.0929  0.1285  0.0743
  554PYPI    C1 8689   0.741  15.544  10.059 -0.1524 -0.0021 -0.0427
  554PYPI    C2 8690   1.067  15.317  10.103 -0.1814 -0.0440 -0.0435
  554PYPI    C3 8691   0.856  15.428  10.424 -0.0565  0.1450 -0.0252
  554PYPI   PO4 8692   0.673  15.534   9.795  0.0078  0.1678 -0.1076
  554PYPI   GL1 8693   0.767  15.311   9.536  0.1207  0.0185  0.4948
  554PYPI   GL2 8694   0.507  15.155   9.249  0.1218  0.0453 -0.1001
  554PYPI   C1A 8695   1.021  15.127   9.291 -0.2764 -0.1392 -0.0274
  554PYPI   C2A 8696   1.214  15.010   8.911  0.3524  0.1892 -0.3543
  554PYPI   D3A 8697   1.016  14.957   8.550  0.2452 -0.2281  0.0565
  554PYPI   C4A 8698   0.738  15.022   8.316  0.2213 -0.0660 -0.0812
  554PYPI   C1B 8699   0.743  15.419   8.961 -0.3180 -0.0742  0.0253
  554PYPI   C2B 8700   0.686  15.476   8.512 -0.0119 -0.1262 -0.2387
  554PYPI   C3B 8701   0.583  15.394   8.039  0.1792 -0.0140 -0.1679
  554PYPI   C4B 8702   0.197  15.347   7.810 -0.1267  0.1345  0.1025
  555PYPI    C1 8703   1.934   7.689   9.758 -0.0917  0.3084 -0.0190
  555PYPI    C2 8704   1.569   7.853   9.774 -0.3390 -0.2271  0.0522
  555PYPI    C3 8705   1.771   7.780  10.112 -0.1541  0.0822  0.0122
  555PYPI   PO4 8706   1.998   7.533   9.496 -0.1726 -0.0040 -0.0510
  555PYPI   GL1 8707   1.938   7.516   8.973 -0.2556  0.0437  0.3457
  555PYPI   GL2 8708   1.814   7.700   9.091 -0.1223 -0.1344  0.0441
  555PYPI   C1A 8709   1.821   7.294   8.587 -0.1336  0.0826  0.1554
  555PYPI   C2A 8710   1.640   7.189   8.257  0.1331 -0.3940 -0.0941
  555PYPI   D3A 8711   1.756   6.920   7.944  0.0598  0.1304 -0.0092
  555PYPI   C4A 8712   1.790   7.088   7.544  0.1841  0.1353 -0.0314
  555PYPI   C1B 8713   1.757   7.824   8.595  0.1706  0.3305  0.2116
  555PYPI   C2B 8714   1.488   7.677   8.264 -0.1256 -0.2815  0.1114
  555PYPI   C3B 8715   1.527   7.494   7.892  0.0948 -0.2355  0.1038
  555PYPI   C4B 8716   1.437   7.509   7.427 -0.0060  0.1476 -0.0441
  556PYPI    C1 8717  15.401   2.286  10.480  0.1563 -0.2521  0.0679
  556PYPI    C2 8718  15.216   2.427  10.806  0.1239 -0.0460 -0.0379
  556PYPI    C3 8719  15.614   2.448  10.777  0.1190  0.0277 -0.0545
  556PYPI   PO4 8720  15.328   2.360  10.306 -0.2866  0.2157  0.5447
  556PYPI   GL1 8721  15.241   2.306   9.924 -0.3530 -0.2538  0.2846
  556PYPI   GL2 8722  15.416   2.020   9.843 -0.2058  0.1754 -0.4803
  556PYPI   C1A 8723  15.370   2.415   9.491  0.0960  0.4188  0.0763
  556PYPI   C2A 8724  15.407   2.199   9.000  0.1299  0.4004 -0.1057
  556PYPI   D3A 8725  15.256   2.095   8.606 -0.0541 -0.1390 -0.0878
  556PYPI   C4A 8726  15.418   2.318   8.206  0.1067  0.0905  0.1163
  556PYPI   C1B 8727  15.589   1.861   9.390 -0.1799  0.0203 -0.0496
  556PYPI   C2B 8728  15.762   1.570   9.445  0.0133 -0.1112 -0.1443
  556PYPI   C3B 8729  15.906   1.224   9.773 -0.4082  0.0574 -0.3115
  556PYPI   C4B 8730  15.878   0.864   9.940  0.0798 -0.0762 -0.0574
  557PYPI    C1 8731  11.407  15.230  10.252 -0.4794  0.2810 -0.0572
  557PYPI    C2 8732  11.550  15.594  10.334  0.0259  0.0471  0.1459
  557PYPI    C3 8733  11.476  15.338  10.631  0.0177 -0.1407 -0.0161
  557PYPI   PO4 8734  11.235  15.299  10.007  0.3304  0.0263  0.0506
  557PYPI   GL1 8735  11.346  15.356   9.551  0.0976  0.1100 -0.0650
  557PYPI   GL2 8736  11.355  14.952   9.633  0.1965 -0.1401  0.2915
  557PYPI   C1A 8737  11.565  15.561   9.116  0.1765 -0.0247 -0.1643
  557PYPI   C2A 8738  11.453  15.649   8.654  0.1230 -0.2444 -0.1622
  557PYPI   D3A 8739  11.458  16.103   8.464 -0.0907  0.1878 -0.4060
  557PYPI   C4A 8740  11.522  16.090   8.022  0.1380  0.0854  0.1169
  557PYPI   C1B 8741  11.313  14.719   9.123 -0.1433 -0.3749 -0.1933
  557PYPI   C2B 8742  11.224  14.572   8.719  0.1260 -0.1098 -0.0899
  557PYPI   C3B 8743  11.213  14.279   8.481  0.2654  0.3432 -0.2338
  557PYPI   C4B 8744  10.853  14.021   8.274  0.1219 -0.3066  0.1238
  558PYPI    C1 8745  19.151   9.520   9.645  0.1014 -0.1642  0.0821
  558PYPI    C2 8746  18.938   9.686   9.940 -0.1453 -0.1376 -0.1076
  558PYPI    C3 8747  19.292   9.842   9.836 -0.1574 -0.0171  0.0285
  558PYPI   PO4 8748  19.064   9.204   9.630 -0.0004 -0.0348  0.1691
  558PYPI   GL1 8749  18.761   9.076   9.356  0.1596 -0.0290 -0.1306
  558PYPI   GL2 8750  18.583   9.372   9.290  0.0805 -0.2166  0.0183
  558PYPI   C1A 8751  18.996   9.080   8.963  0.0679 -0.0282 -0.2074
  558PYPI   C2A 8752  18.929   9.200   8.515 -0.1406 -0.1459 -0.0282
  558PYPI   D3A 8753  18.861   9.431   8.134 -0.1591  0.0717 -0.1011
  558PYPI   C4A 8754  18.613   9.371   7.799  0.1649 -0.1800 -0.1969
  558PYPI   C1B 8755  18.692   9.506   8.896  0.1930 -0.0545 -0.3382
  558PYPI   C2B 8756  19.130   9.678   8.694 -0.1242 -0.1225  0.0423
  558PYPI   C3B 8757  19.310   9.568   8.372 -0.2162  0.0724 -0.1707
  558PYPI   C4B 8758  19.694   9.797   8.174  0.1271  0.3794  0.1772
  559PYPI    C1 8759   3.122  14.530   9.712  0.1047 -0.0899 -0.0893
  559PYPI    C2 8760   3.207  14.317  10.039  0.1510 -0.0278 -0.0608
  559PYPI    C3 8761   3.120  14.706  10.071 -0.1515 -0.0913 -0.0883
  559PYPI   PO4 8762   3.021  14.428   9.469  0.0104 -0.0086 -0.0491
  559PYPI   GL1 8763   3.227  14.406   8.957  0.2392  0.0015  0.3216
  559PYPI   GL2 8764   3.047  14.289   8.642  0.1704 -0.1621  0.0458
  559PYPI   C1A 8765   3.513  14.198   8.612  0.1654  0.0840 -0.2734
  559PYPI   C2A 8766   3.580  13.864   8.446 -0.1909  0.0726  0.2406
  559PYPI   D3A 8767   3.152  13.865   8.239 -0.4866 -0.2458 -0.0148
  559PYPI   C4A 8768   2.927  13.528   7.967 -0.3792 -0.1701 -0.1892
  559PYPI   C1B 8769   3.171  14.417   8.274  0.1414 -0.2914  0.2715
  559PYPI   C2B 8770   3.185  14.530   7.906  0.2039  0.0982 -0.1962
  559PYPI   C3B 8771   3.476  14.718   7.563 -0.0910  0.0287 -0.0425
  559PYPI   C4B 8772   3.891  14.466   7.438 -0.3624 -0.0082 -0.1664
  560PYPI    C1 8773   7.813  12.963  10.446  0.0275  0.0336  0.1159
  560PYPI    C2 8774   7.747  12.584  10.338  0.0757  0.0671 -0.0341
  560PYPI    C3 8775   8.082  12.680  10.535 -0.0061  0.0082  0.1364
  560PYPI   PO4 8776   7.606  13.036  10.267 -0.0094  0.1419  0.3276
  560PYPI   GL1 8777   7.678  12.961   9.878  0.2291  0.0058 -0.3097
  560PYPI   GL2 8778   7.724  13.178   9.621  0.2597 -0.1008  0.0251
  560PYPI   C1A 8779   7.999  12.748   9.591  0.1511  0.0589 -0.2062
  560PYPI   C2A 8780   8.036  12.392   9.357 -0.3221  0.0482  0.0018
  560PYPI   D3A 8781   8.347  12.152   9.192  0.1254 -0.0405 -0.1474
  560PYPI   C4A 8782   8.793  12.263   9.166 -0.0776  0.1026 -0.1738
  560PYPI   C1B 8783   7.563  13.214   9.290 -0.1725  0.0128  0.1001
  560PYPI   C2B 8784   7.517  13.212   8.831  0.0056 -0.0319  0.1427
  560PYPI   C3B 8785   7.664  13.221   8.376  0.1307  0.4275  0.4384
  560PYPI   C4B 8786   7.732  12.861   8.040 -0.1362  0.0729 -0.0332
  561PYPI    C1 8787   9.527   0.675  10.074 -0.1959 -0.1836  0.1226
  561PYPI    C2 8788   9.481   0.564  10.456  0.2597 -0.1229  0.2014
  561PYPI    C3 8789   9.444   0.949  10.354 -0.1352 -0.1749  0.1324
  561PYPI   PO4 8790   9.710   0.529  10.000 -0.3751  0.2742  0.2744
  561PYPI   GL1 8791   9.792   0.542   9.582 -0.0099  0.2025 -0.0043
  561PYPI   GL2 8792   9.824   0.237   9.314 -0.1447  0.0855  0.2478
  561PYPI   C1A 8793   9.707   0.683   9.208 -0.1463 -0.2528 -0.2191
  561PYPI   C2A 8794   9.747   0.710   8.847  0.2398  0.0320  0.1102
  561PYPI   D3A 8795   9.816   0.930   8.470  0.0564  0.0946  0.1249
  561PYPI   C4A 8796   9.978   0.817   8.087 -0.0305 -0.0820 -0.1170
  561PYPI   C1B 8797  10.010   0.294   8.864  0.0411  0.0311  0.2228
  561PYPI   C2B 8798  10.136   0.343   8.505  0.2377  0.2390 -0.1105
  561PYPI   C3B 8799  10.462   0.296   8.383 -0.0513  0.0556  0.1983
  561PYPI   C4B 8800  10.370   0.320   7.993  0.0522 -0.0938 -0.3514
  562PYPI    C1 8801   8.019  11.049   9.901 -0.2104  0.0061  0.0057
  562PYPI    C2 8802   7.929  11.266  10.224 -0.0438  0.1571 -0.0472
  562PYPI    C3 8803   7.674  10.987  10.093 -0.0575  0.0084  0.2857
  562PYPI   PO4 8804   8.316  11.082   9.874  0.1870  0.1754  0.2509
  562PYPI   GL1 8805   8.339  10.957   9.471 -0.2032 -0.2168  0.0296
  562PYPI   GL2 8806   8.328  11.243   9.232  0.1678  0.4083 -0.1072
  562PYPI   C1A 8807   8.638  10.802   9.152 -0.1109 -0.1409 -0.0983
  562PYPI   C2A 8808   8.553  10.717   8.663 -0.4966  0.0162 -0.0966
  562PYPI   D3A 8809   8.629  10.584   8.264  0.0805 -0.2295  0.2291
  562PYPI   C4A 8810   8.846  10.599   7.868  0.1146 -0.1369  0.0321
  562PYPI   C1B 8811   8.477  11.282   8.805 -0.0896  0.2391  0.1644
  562PYPI   C2B 8812   8.757  11.109   8.435  0.3195  0.1224 -0.0268
  562PYPI   C3B 8813   9.069  11.164   8.190  0.2225 -0.1207  0.2665
  562PYPI   C4B 8814   9.420  10.971   8.078 -0.2200  0.1526  0.0416
  563PYPI    C1 8815   5.452  11.587  10.072  0.1623 -0.0643 -0.0599
  563PYPI    C2 8816   5.457  11.938   9.880  0.0165  0.0571  0.1540
  563PYPI    C3 8817   5.684  11.885  10.205  0.0958 -0.0735  0.0783
  563PYPI   PO4 8818   5.469  11.437   9.939 -0.1492 -0.1853  0.2944
  563PYPI   GL1 8819   5.534  11.483   9.465  0.2518 -0.1990 -0.1287
  563PYPI   GL2 8820   5.212  11.641   9.546 -0.2699  0.0272  0.1894
  563PYPI   C1A 8821   5.495  11.468   9.002  0.0015 -0.1471  0.3932
  563PYPI   C2A 8822   5.824  11.550   8.596 -0.3740 -0.1325 -0.1352
  563PYPI   D3A 8823   6.242  11.445   8.614  0.1165 -0.0119  0.1858
  563PYPI   C4A 8824   6.400  11.818   8.804 -0.3734  0.3611  0.0260
  563PYPI   C1B 8825   5.128  11.871   9.132 -0.0317  0.2840 -0.0329
  563PYPI   C2B 8826   5.056  11.832   8.723  0.1425 -0.1748  0.0762
  563PYPI   C3B 8827   5.102  12.082   8.379 -0.1098 -0.0320 -0.2372
  563PYPI   C4B 8828   4.825  12.480   8.079 -0.3659  0.2163 -0.0008
  564PYPI    C1 8829   9.104  15.464  10.116 -0.1952 -0.0175 -0.0441
  564PYPI    C2 8830   9.393  15.547  10.380 -0.1779  0.2541 -0.1452
  564PYPI    C3 8831   9.009  15.582  10.486 -0.1757 -0.0172 -0.0392
  564PYPI   PO4 8832   9.160  15.228   9.936 -0.0409 -0.2628 -0.4872
  564PYPI   GL1 8833   9.182  15.148   9.517  0.0662  0.1844  0.0340
  564PYPI   GL2 8834   8.998  14.952   9.469 -0.1598 -0.0083 -0.1167
  564PYPI   C1A 8835   9.338  15.238   9.109 -0.0169 -0.1195  0.2907
  564PYPI   C2A 8836   9.366  15.099   8.740 -0.1082 -0.0977  0.0223
  564PYPI   D3A 8837   9.365  14.848   8.256  0.1772  0.0600 -0.1243
  564PYPI   C4A 8838   9.609  14.904   7.836 -0.1815  0.0089 -0.1373
  564PYPI   C1B 8839   9.149  14.689   9.115 -0.1539 -0.1872  0.3027
  564PYPI   C2B 8840   9.236  14.619   8.696  0.1314  0.0136 -0.2934
  564PYPI   C3B 8841   9.331  14.285   8.402 -0.1021 -0.1650  0.1607
  564PYPI   C4B 8842   9.455  14.459   7.998  0.0230  0.1537  0.1290
  565PYPI    C1 8843   4.826  17.366   9.876 -0.0667  0.1642 -0.0674
  565PYPI    C2 8844   5.036  17.117  10.108 -0.2663 -0.1762 -0.2426
  565PYPI    C3 8845   5.222  17.413   9.913 -0.0800  0.0451  0.2534
  565PYPI   PO4 8846   4.690  17.182   9.657  0.1523 -0.2751 -0.0178
  565PYPI   GL1 8847   4.522  17.147   9.336  0.3884 -0.2705 -0.2710
  565PYPI   GL2 8848   4.680  17.444   9.235 -0.1749  0.0765  0.1209
  565PYPI   C1A 8849   4.394  17.141   8.911  0.1512 -0.0768  0.2637
  565PYPI   C2A 8850   4.292  17.224   8.425  0.1304  0.2593  0.1333
  565PYPI   D3A 8851   4.500  17.291   8.022 -0.0306  0.0771 -0.0441
  565PYPI   C4A 8852   4.711  16.956   7.691  0.1497 -0.1165 -0.1504
  565PYPI   C1B 8853   4.881  17.279   8.880  0.3545  0.0450  0.3467
  565PYPI   C2B 8854   4.743  17.109   8.543  0.0873 -0.2924  0.0130
  565PYPI   C3B 8855   4.842  16.924   8.263  0.2247  0.1573  0.0816
  565PYPI   C4B 8856   4.799  16.584   8.015 -0.0738 -0.1094  0.1383
  566PYPI    C1 8857   3.677   0.128   9.090  0.0360 -0.2692 -0.0692
  566PYPI    C2 8858   3.658   0.190   9.485 -0.1138  0.1086 -0.1315
  566PYPI    C3 8859   4.005   0.236   9.292 -0.0090 -0.2135 -0.0252
  566PYPI   PO4 8860   3.543  -0.156   9.065  0.2643 -0.0766 -0.0059
  566PYPI   GL1 8861   3.621  -0.352   8.691  0.3000 -0.3192  0.1001
  566PYPI   GL2 8862   3.507   0.021   8.553  0.1850  0.0251 -0.0314
  566PYPI   C1A 8863   3.946  -0.310   8.347 -0.0468 -0.2656 -0.0288
  566PYPI   C2A 8864   3.824  -0.259   7.939 -0.0895 -0.1220  0.3768
  566PYPI   D3A 8865   3.946  -0.256   7.516  0.0884  0.1119 -0.3457
  566PYPI   C4A 8866   3.612  -0.271   7.228 -0.0135 -0.0472 -0.1375
  566PYPI   C1B 8867   3.525   0.083   8.167  0.0690 -0.1799 -0.0961
  566PYPI   C2B 8868   3.310   0.299   7.879 -0.0011 -0.3075  0.2457
  566PYPI   C3B 8869   2.945   0.325   7.703  0.2247  0.2405  0.2245
  566PYPI   C4B 8870   3.003   0.067   7.345  0.1521 -0.1955 -0.1168
  567PYPI    C1 8871  12.722   8.203   9.506 -0.1127 -0.2277 -0.0003
  567PYPI    C2 8872  12.923   8.004   9.789 -0.0682  0.0092  0.1373
  567PYPI    C3 8873  13.084   8.052   9.426  0.0253  0.0014  0.1773
  567PYPI   PO4 8874  12.503   8.081   9.520  0.0941  0.3410  0.1287
  567PYPI   GL1 8875  12.273   8.041   9.136  0.0744 -0.0143  0.0605
  567PYPI   GL2 8876  11.921   8.269   9.025 -0.2119 -0.1369  0.0652
  567PYPI   C1A 8877  12.677   8.041   8.860  0.0939  0.1449 -0.0080
  567PYPI   C2A 8878  12.827   8.099   8.492  0.0290 -0.0794 -0.1644
  567PYPI   D3A 8879  13.025   8.070   8.127 -0.0933 -0.4251 -0.2537
  567PYPI   C4A 8880  13.405   7.869   8.098 -0.4488 -0.0859  0.1674
  567PYPI   C1B 8881  12.119   8.291   8.745 -0.0811  0.2688 -0.0519
  567PYPI   C2B 8882  12.378   8.197   8.433 -0.1974  0.0205 -0.2232
  567PYPI   C3B 8883  12.575   8.312   8.103  0.1216  0.0108  0.3139
  567PYPI   C4B 8884  12.912   8.339   7.723  0.0675  0.0262  0.3085
  568PYPI    C1 8885   1.576  18.294   9.530 -0.1556 -0.3196  0.0831
  568PYPI    C2 8886   1.869  18.056   9.663 -0.0769 -0.1529  0.2108
  568PYPI    C3 8887   1.746  18.366   9.885 -0.1047 -0.0101 -0.0009
  568PYPI   PO4 8888   1.616  18.314   9.271 -0.0197 -0.0281  0.0964
  568PYPI   GL1 8889   1.746  18.244   8.822  0.3174  0.0555  0.0441
  568PYPI   GL2 8890   1.906  18.618   8.831 -0.0339  0.0363 -0.3779
  568PYPI   C1A 8891   1.805  18.093   8.489  0.2650 -0.2393 -0.0509
  568PYPI   C2A 8892   1.735  18.093   8.043  0.0830 -0.1125 -0.0410
  568PYPI   D3A 8893   1.705  18.220   7.739  0.4706  0.0381 -0.0181
  568PYPI   C4A 8894   1.489  18.398   7.349  0.0563 -0.3433  0.0307
  568PYPI   C1B 8895   1.759  18.592   8.424 -0.0700  0.1426 -0.0718
  568PYPI   C2B 8896   1.797  18.715   8.052  0.2143 -0.0755 -0.0381
  568PYPI   C3B 8897   1.477  18.744   7.733 -0.2647 -0.0273 -0.0410
  568PYPI   C4B 8898   1.223  18.826   7.398 -0.0732 -0.4126 -0.1571
  569PYPI    C1 8899  17.765   0.727  10.357  0.0185  0.1163  0.2026
  569PYPI    C2 8900  17.990   1.056  10.327  0.0397  0.0882  0.0455
  569PYPI    C3 8901  17.811   0.967  10.674  0.4429 -0.0010  0.2362
  569PYPI   PO4 8902  17.913   0.527  10.171  0.1882  0.0726  0.2931
  569PYPI   GL1 8903  18.013   0.386   9.764 -0.2725 -0.3227  0.0195
  569PYPI   GL2 8904  17.673   0.310   9.748 -0.0902  0.0388  0.2575
  569PYPI   C1A 8905  17.910   0.575   9.407  0.1617 -0.2811  0.3537
  569PYPI   C2A 8906  17.683   0.803   9.056  0.0046 -0.0812  0.4197
  569PYPI   D3A 8907  17.523   0.829   8.649  0.1407  0.6097 -0.0325
  569PYPI   C4A 8908  17.136   0.721   8.449  0.1005  0.2177  0.2094
  569PYPI   C1B 8909  17.487   0.416   9.309  0.5596 -0.0475  0.0046
  569PYPI   C2B 8910  17.479   0.312   8.967  0.3989  0.2666 -0.1278
  569PYPI   C3B 8911  17.240   0.175   8.566 -0.0645 -0.0281 -0.1977
  569PYPI   C4B 8912  17.303  -0.157   8.215  0.0829  0.0516  0.1814
  570PYPI    C1 8913  14.382  14.110  10.473 -0.3000  0.1852  0.1723
  570PYPI    C2 8914  14.046  14.015  10.277 -0.1365  0.1170 -0.0800
  570PYPI    C3 8915  14.327  14.236  10.098  0.0831 -0.0748  0.0224
  570PYPI   PO4 8916  14.433  13.838  10.549 -0.2974 -0.1262  0.2393
  570PYPI   GL1 8917  14.647  13.719  10.221 -0.0793  0.0685 -0.1215
  570PYPI   GL2 8918  14.878  13.688   9.966  0.0955  0.2196  0.0288
  570PYPI   C1A 8919  14.343  13.653   9.868 -0.1625 -0.0218 -0.0174
  570PYPI   C2A 8920  14.141  13.979   9.631 -0.1505 -0.0882  0.0636
  570PYPI   D3A 8921  13.920  14.482   9.729  0.0179 -0.0479 -0.0552
  570PYPI   C4A 8922  13.893  14.802   9.494 -0.0544  0.1638  0.0607
  570PYPI   C1B 8923  14.644  14.032   9.801  0.0053 -0.0057  0.1981
  570PYPI   C2B 8924  14.403  14.320   9.390 -0.2039  0.4413 -0.1090
  570PYPI   C3B 8925  14.092  14.218   9.090 -0.1762 -0.0739 -0.0677
  570PYPI   C4B 8926  13.845  14.449   8.743  0.0160  0.0340 -0.0968
  571PYPI    C1 8927  11.653   9.821  10.442  0.2367  0.1792 -0.0568
  571PYPI    C2 8928  11.268   9.914  10.387  0.1532 -0.1793 -0.1041
  571PYPI    C3 8929  11.443   9.986  10.740  0.1259  0.2483 -0.1721
  571PYPI   PO4 8930  11.826   9.873  10.230 -0.1636 -0.0560  0.0748
  571PYPI   GL1 8931  11.806  10.018   9.821 -0.1556 -0.0137  0.1474
  571PYPI   GL2 8932  12.070   9.914   9.630 -0.2273  0.0571 -0.0188
  571PYPI   C1A 8933  11.465  10.144   9.604 -0.1275 -0.1620 -0.3440
  571PYPI   C2A 8934  11.409  10.350   9.188  0.2252  0.1711 -0.1719
  571PYPI   D3A 8935  11.274  10.720   8.918  0.1353 -0.4357  0.1664
  571PYPI   C4A 8936  11.302  10.772   8.486 -0.2241 -0.1814 -0.2607
  571PYPI   C1B 8937  11.852   9.973   9.181  0.0913  0.0751  0.0581
  571PYPI   C2B 8938  11.842  10.071   8.778  0.0758 -0.1193 -0.1751
  571PYPI   C3B 8939  11.760  10.204   8.367  0.0411 -0.0181 -0.1486
  571PYPI   C4B 8940  11.861  10.190   7.971  0.0933  0.2007  0.2095
  572PYPI    C1 8941   5.575  18.449   9.660  0.0037 -0.2424  0.1959
  572PYPI    C2 8942   5.251  18.414   9.893 -0.1750  0.3962  0.0632
  572PYPI    C3 8943   5.430  18.770   9.851  0.2468  0.1552 -0.2651
  572PYPI   PO4 8944   5.553  18.249   9.530 -0.2251 -0.1512  0.0131
  572PYPI   GL1 8945   5.922  17.987   9.333 -0.2844 -0.3193  0.0768
  572PYPI   GL2 8946   6.257  18.022   9.348  0.1234 -0.1561 -0.0008
  572PYPI   C1A 8947   5.979  18.290   8.890  0.2620 -0.0047  0.4023
  572PYPI   C2A 8948   5.841  18.424   8.630 -0.0440 -0.1539  0.1787
  572PYPI   D3A 8949   5.839  18.637   8.283 -0.0329  0.3397  0.1931
  572PYPI   C4A 8950   5.725  18.702   7.854  0.1083 -0.3877  0.1085
  572PYPI   C1B 8951   6.448  18.334   9.047 -0.1685  0.1406  0.2058
  572PYPI   C2B 8952   6.511  18.251   8.665  0.2538 -0.0354 -0.0062
  572PYPI   C3B 8953   6.605  17.860   8.243 -0.1193  0.1920 -0.2476
  572PYPI   C4B 8954   6.251  17.618   8.140 -0.5483 -0.0974  0.3329
  573PYPI    C1 8955   5.225  17.226   9.481 -0.2388  0.2030  0.2012
  573PYPI    C2 8956   4.993  16.953   9.303  0.0475  0.0741  0.0186
  573PYPI    C3 8957   5.099  16.906   9.686  0.0031 -0.0119  0.0205
  573PYPI   PO4 8958   5.141  17.490   9.434  0.4797  0.0708  0.2571
  573PYPI   GL1 8959   5.151  17.695   9.019  0.0379  0.1051 -0.2430
  573PYPI   GL2 8960   5.419  17.900   9.224  0.0623 -0.1903 -0.2415
  573PYPI   C1A 8961   5.126  17.726   8.560  0.0531  0.2172 -0.1724
  573PYPI   C2A 8962   5.138  17.493   8.203 -0.0376  0.1398  0.1804
  573PYPI   D3A 8963   5.070  17.249   7.877 -0.0531 -0.0909 -0.1035
  573PYPI   C4A 8964   5.416  17.312   7.737 -0.0198  0.0781 -0.0105
  573PYPI   C1B 8965   5.520  17.952   8.782 -0.2476  0.0912 -0.0793
  573PYPI   C2B 8966   5.609  17.992   8.274 -0.1103  0.0630 -0.1466
  573PYPI   C3B 8967   5.872  18.198   7.871 -0.2030 -0.0089  0.0850
  573PYPI   C4B 8968   5.993  18.405   7.473 -0.2775  0.0410  0.0665
  574ERGO   ROH 8969  17.806   8.318   9.528 -0.1810 -0.0869 -0.0668
  574ERGO    R1 8970  17.998   8.374   9.329 -0.2072  0.0383 -0.0575
  574ERGO    R2 8971  18.002   8.245   9.084 -0.0751 -0.0028 -0.0326
  574ERGO    R3 8972  17.996   8.498   8.986 -0.2758 -0.0241 -0.0808
  574ERGO    R4 8973  18.166   8.350   8.799  0.0729  0.1271  0.0988
  574ERGO    R5 8974  18.217   8.535   8.903 -0.2329  0.2104  0.1181
  574ERGO    C1 8975  18.257   8.649   8.541 -0.0291  0.1826  0.1303
  574ERGO    C2 8976  18.147   8.742   8.229  0.1637  0.0874 -0.2543
  575ERGO   ROH 8977   1.005   4.506   8.990  0.0490 -0.2447  0.0499
  575ERGO    R1 8978   0.828   4.534   8.771 -0.0456 -0.3273  0.1141
  575ERGO    R2 8979   0.915   4.593   8.516 -0.1880  0.0720  0.1445
  575ERGO    R3 8980   0.773   4.370   8.451  0.1734 -0.1126 -0.0357
  575ERGO    R4 8981   0.789   4.523   8.201 -0.1501  0.1552  0.1111
  575ERGO    R5 8982   0.607   4.447   8.296  0.0009 -0.2468  0.0843
  575ERGO    C1 8983   0.583   4.272   7.958  0.2112  0.0304 -0.0777
  575ERGO    C2 8984   0.499   4.058   7.667  0.2101  0.0351 -0.1591
  576ERGO   ROH 8985   4.406  11.104   9.210  0.0548 -0.0322 -0.0772
  576ERGO    R1 8986   4.532  11.164   8.964  0.0748  0.1609 -0.0219
  576ERGO    R2 8987   4.398  11.283   8.754  0.0061  0.0349 -0.0485
  576ERGO    R3 8988   4.602  11.462   8.768 -0.2121  0.2823  0.0528
  576ERGO    R4 8989   4.475  11.514   8.508  0.0364 -0.0945 -0.1613
  576ERGO    R5 8990   4.686  11.473   8.544  0.0496  0.1756  0.1387
  576ERGO    C1 8991   4.711  11.816   8.378 -0.1509  0.0624 -0.1321
  576ERGO    C2 8992   4.546  12.033   8.145 -0.2055 -0.0923  0.0492
  577ERGO   ROH 8993   6.976   3.816   8.800  0.2141 -0.0542 -0.1626
  577ERGO    R1 8994   7.034   3.667   8.566  0.1804 -0.0436 -0.1788
  577ERGO    R2 8995   7.222   3.749   8.380  0.1820 -0.0535 -0.1859
  577ERGO    R3 8996   7.325   3.502   8.424  0.1504 -0.0697 -0.2082
  577ERGO    R4 8997   7.403   3.566   8.150  0.1605 -0.0563 -0.1994
  577ERGO    R5 8998   7.298   3.387   8.216  0.1388 -0.0476 -0.2170
  577ERGO    C1 8999   7.605   3.226   8.057  0.1183 -0.0731 -0.2282
  577ERGO    C2 9000   7.730   3.299   7.759  0.2512 -0.1318  0.2201
  578ERGO   ROH 9001   6.557  13.194   9.185 -0.1253 -0.1678 -0.0322
  578ERGO    R1 9002   6.734  13.083   8.994 -0.0483  0.0412 -0.0842
  578ERGO    R2 9003   6.713  12.821   8.906  0.2401  0.0140 -0.0693
  578ERGO    R3 9004   6.707  12.939   8.661  0.0240 -0.0007 -0.0733
  578ERGO    R4 9005   6.760  12.656   8.606  0.4511  0.0649 -0.0666
  578ERGO    R5 9006   6.877  12.826   8.536  0.1860  0.2489 -0.0916
  578ERGO    C1 9007   6.781  12.670   8.201  0.3711  0.0807 -0.0688
  578ERGO    C2 9008   6.672  12.532   7.869  0.1067  0.0496  0.0716
  579ERGO   ROH 9009   9.226  10.742   9.561 -0.1435 -0.1848 -0.0639
  579ERGO    R1 9010   9.405  10.872   9.384 -0.2339  0.0062 -0.0180
  579ERGO    R2 9011   9.623  10.744   9.272  0.0100  0.2693  0.1383
  579ERGO    R3 9012   9.513  10.830   9.039  0.0013  0.0304  0.0508
  579ERGO    R4 9013   9.794  10.780   8.973  0.0813  0.2945  0.1822
  579ERGO    R5 9014   9.684  10.965   8.938 -0.1038  0.1607  0.0447
  579ERGO    C1 9015   9.790  10.882   8.581  0.1147  0.0851  0.1256
  579ERGO    C2 9016   9.887  10.897   8.282  0.0251 -0.3645 -0.1416
  580ERGO   ROH 9017   1.812   1.132   9.147 -0.0190 -0.2236  0.1009
  580ERGO    R1 9018   1.857   1.022   8.890 -0.2249 -0.1446  0.0268
  580ERGO    R2 9019   1.657   0.998   8.701 -0.2746  0.3815 -0.0094
  580ERGO    R3 9020   1.833   1.136   8.546  0.0157  0.1469  0.1030
  580ERGO    R4 9021   1.652   1.006   8.355 -0.0069  0.3583 -0.0149
  580ERGO    R5 9022   1.869   0.994   8.357 -0.0220  0.0847  0.1459
  580ERGO    C1 9023   1.813   1.140   8.009  0.4214  0.1245  0.0874
  580ERGO    C2 9024   1.751   1.121   7.638  0.1891 -0.0477  0.2113
  581ERGO   ROH 9025  14.494   7.997   8.477 -0.1616  0.0755  0.0952
  581ERGO    R1 9026  14.466   7.774   8.305 -0.2925  0.0584  0.1370
  581ERGO    R2 9027  14.220   7.667   8.238 -0.3655  0.2716  0.0525
  581ERGO    R3 9028  14.309   7.706   7.984 -0.2128  0.1299  0.0829
  581ERGO    R4 9029  14.056   7.560   7.953 -0.2576  0.2284  0.0061
  581ERGO    R5 9030  14.249   7.504   7.869 -0.2374  0.1104  0.1321
  581ERGO    C1 9031  14.043   7.534   7.549 -0.0517  0.0702  0.0075
  581ERGO    C2 9032  13.831   7.707   7.226 -0.1298 -0.0818  0.1355
  582ERGO   ROH 9033  18.274   1.667   9.725  0.0418  0.1929  0.0876
  582ERGO    R1 9034  18.129   1.831   9.544  0.0237  0.1216  0.0381
  582ERGO    R2 9035  18.177   1.830   9.273  0.0235  0.0432  0.0405
  582ERGO    R3 9036  17.911   1.779   9.258  0.0280  0.0112  0.0536
  582ERGO    R4 9037  18.002   1.780   8.979  0.0247 -0.0190  0.0496
  582ERGO    R5 9038  17.839   1.897   9.062  0.0118 -0.0238  0.0364
  582ERGO    C1 9039  17.650   1.703   8.794  0.0297 -0.0853  0.0670
  582ERGO    C2 9040  17.509   1.705   8.435 -0.3680  0.1568 -0.0370
  583ERGO   ROH 9041   6.991  17.098   9.551 -0.0732  0.1282 -0.0318
  583ERGO    R1 9042   6.934  16.961   9.310 -0.1357  0.0574  0.0218
  583ERGO    R2 9043   6.841  17.089   9.084 -0.2115 -0.0093  0.0082
  583ERGO    R3 9044   7.054  16.967   8.967 -0.2353 -0.0272 -0.0135
  583ERGO    R4 9045   6.880  17.045   8.743 -0.1577  0.1438 -0.0057
  583ERGO    R5 9046   6.959  16.845   8.784 -0.2393  0.0992 -0.0918
  583ERGO    C1 9047   7.102  16.904   8.435 -0.1487  0.2159 -0.0342
  583ERGO    C2 9048   7.296  16.981   8.169  0.0722  0.1752 -0.0667
  584ERGO   ROH 9049   7.358  18.406   9.554 -0.1328  0.1305 -0.0797
  584ERGO    R1 9050   7.348  18.462   9.277  0.0453  0.1649 -0.0800
  584ERGO    R2 9051   7.389  18.716   9.175  0.1954  0.1595 -0.0290
  584ERGO    R3 9052   7.577  18.589   9.024  0.2354  0.1098  0.0614
  584ERGO    R4 9053   7.495  18.820   8.862  0.2065  0.0109 -0.0756
  584ERGO    R5 9054   7.498  18.611   8.799  0.2519 -0.0274  0.0392
  584ERGO    C1 9055   7.733  18.762   8.539  0.2505 -0.1224 -0.0179
  584ERGO    C2 9056   7.910  18.797   8.278  0.2072 -0.0332  0.1542
  585ERGO   ROH 9057   8.961  15.600   9.325 -0.2696  0.0923 -0.0732
  585ERGO    R1 9058   8.987  15.689   9.058  0.1029  0.1855 -0.0129
  585ERGO    R2 9059   9.223  15.670   8.916  0.1676 -0.2558  0.1353
  585ERGO    R3 9060   9.067  15.540   8.736 -0.0077  0.1751 -0.0356
  585ERGO    R4 9061   9.324  15.575   8.600  0.1346 -0.2311  0.1178
  585ERGO    R5 9062   9.129  15.635   8.525  0.2814  0.2087  0.0605
  585ERGO    C1 9063   9.236  15.398   8.246 -0.0493  0.1878 -0.0528
  585ERGO    C2 9064   9.299  15.277   7.893 -0.2150 -0.0002 -0.1270
  586ERGO   ROH 9065   2.521   7.376   8.810  0.0057  0.0709  0.0288
  586ERGO    R1 9066   2.673   7.310   8.581 -0.0038 -0.0458  0.0552
  586ERGO    R2 9067   2.563   7.295   8.329  0.0212  0.0061  0.0406
  586ERGO    R3 9068   2.760   7.471   8.266  0.1447 -0.1257  0.0544
  586ERGO    R4 9069   2.667   7.368   8.007  0.1155 -0.0881  0.0493
  586ERGO    R5 9070   2.873   7.370   8.080  0.1073 -0.2146  0.0793
  586ERGO    C1 9071   2.914   7.576   7.762  0.2864 -0.2667  0.0674
  586ERGO    C2 9072   2.940   7.557   7.412 -0.1370 -0.4760  0.0447
  587ERGO   ROH 9073   6.080  16.334   8.991  0.1508  0.2713 -0.2496
  587ERGO    R1 9074   5.891  16.186   8.841  0.2598  0.0521 -0.1744
  587ERGO    R2 9075   5.666  16.300   8.730  0.0303 -0.2233 -0.0085
  587ERGO    R3 9076   5.762  16.190   8.501  0.0471 -0.0307 -0.0959
  587ERGO    R4 9077   5.477  16.235   8.448  0.0552  0.0232 -0.0850
  587ERGO    R5 9078   5.585  16.047   8.425  0.0504  0.0390 -0.2360
  587ERGO    C1 9079   5.458  16.093   8.069  0.0854  0.3476 -0.2116
  587ERGO    C2 9080   5.503  16.311   7.834  0.1830 -0.0873 -0.0565
  588ERGO   ROH 9081   9.901   0.998   9.503  0.0314 -0.3883 -0.1059
  588ERGO    R1 9082   9.939   1.175   9.285  0.1834 -0.3026 -0.0095
  588ERGO    R2 9083  10.112   1.121   9.077  0.1555 -0.3258 -0.0184
  588ERGO    R3 9084   9.891   1.165   8.925  0.2037 -0.0735 -0.0216
  588ERGO    R4 9085  10.116   1.259   8.761  0.3525 -0.5343 -0.1115
  588ERGO    R5 9086   9.937   1.373   8.814  0.5293 -0.2086 -0.1618
  588ERGO    C1 9087   9.911   1.382   8.433  0.5124 -0.4190 -0.1688
  588ERGO    C2 9088  10.016   1.616   8.141 -0.2047 -0.2116 -0.2478
  589ERGO   ROH 9089  13.393   2.867   9.151  0.0670  0.1464  0.0729
  589ERGO    R1 9090  13.396   3.054   8.938 -0.0658  0.1195  0.0469
  589ERGO    R2 9091  13.513   3.000   8.694  0.0850  0.2130  0.0980
  589ERGO    R3 9092  13.269   3.069   8.597  0.0389 -0.0748 -0.0021
  589ERGO    R4 9093  13.449   3.092   8.367  0.1242  0.2127  0.0898
  589ERGO    R5 9094  13.314   3.246   8.443 -0.1112  0.0242  0.0648
  589ERGO    C1 9095  13.182   3.211   8.086  0.1037 -0.0577 -0.0089
  589ERGO    C2 9096  13.163   3.200   7.767 -0.1091 -0.4109 -0.1470
  590ERGO   ROH 9097   0.764   7.905   9.123  0.0050 -0.0464 -0.1689
  590ERGO    R1 9098   0.762   8.134   8.957  0.0088 -0.0075 -0.1153
  590ERGO    R2 9099   0.988   8.223   8.823  0.0350  0.0781 -0.0145
  590ERGO    R3 9100   0.825   8.207   8.606  0.1158  0.0906 -0.0766
  590ERGO    R4 9101   1.082   8.301   8.500  0.1921 -0.0219  0.0059
  590ERGO    R5 9102   0.888   8.395   8.471  0.2362  0.0412 -0.0915
  590ERGO    C1 9103   0.985   8.331   8.108  0.3594 -0.0686 -0.0404
  590ERGO    C2 9104   1.107   8.229   7.773 -0.0626 -0.0127 -0.0366
  591ERGO   ROH 9105   5.555  15.833   8.874 -0.1344 -0.1700 -0.0083
  591ERGO    R1 9106   5.601  15.616   8.698 -0.1578 -0.2065  0.0314
  591ERGO    R2 9107   5.456  15.381   8.710 -0.3102 -0.1152 -0.0461
  591ERGO    R3 9108   5.409  15.434   8.448 -0.1146 -0.1018 -0.0803
  591ERGO    R4 9109   5.400  15.141   8.468 -0.1668 -0.1054 -0.0906
  591ERGO    R5 9110   5.523  15.258   8.331 -0.0505 -0.1163 -0.0018
  591ERGO    C1 9111   5.323  15.051   8.080  0.1004 -0.0870 -0.1486
  591ERGO    C2 9112   5.229  14.976   7.727 -0.2539 -0.4583 -0.1680
  592ERGO   ROH 9113   7.979  15.927   9.473  0.0157  0.2945 -0.0484
  592ERGO    R1 9114   7.973  16.013   9.203 -0.1557  0.0833 -0.1137
  592ERGO    R2 9115   8.153  15.922   9.014  0.0261  0.2945 -0.0401
  592ERGO    R3 9116   7.927  15.857   8.877  0.1479 -0.2559 -0.0023
  592ERGO    R4 9117   8.138  15.871   8.673  0.0696  0.4684 -0.0693
  592ERGO    R5 9118   7.947  15.977   8.671 -0.2478 -0.0547  0.0639
  592ERGO    C1 9119   7.917  15.780   8.345  0.2092  0.0530 -0.0507
  592ERGO    C2 9120   7.990  15.592   8.179 -0.1456 -0.3070  0.0107
  593ERGO   ROH 9121  11.899  18.135   9.446 -0.1452  0.1477 -0.3213
  593ERGO    R1 9122  11.908  18.113   9.164 -0.0789  0.0738 -0.3141
  593ERGO    R2 9123  12.090  18.252   9.009 -0.0698  0.0682 -0.3124
  593ERGO    R3 9124  12.150  18.004   8.915 -0.0024  0.0530 -0.2304
  593ERGO    R4 9125  12.277  18.189   8.725  0.1262  0.0176 -0.1741
  593ERGO    R5 9126  12.138  18.027   8.677  0.1619  0.0102 -0.2418
  593ERGO    C1 9127  12.441  17.919   8.471  0.3036 -0.0261 -0.0165
  593ERGO    C2 9128  12.574  17.758   8.176 -0.0789  0.1069  0.1879
  594ERGO   ROH 9129   0.475  18.980   9.225  0.1523 -0.2687  0.1054
  594ERGO    R1 9130   0.592  18.913   8.976 -0.1382 -0.3588 -0.0124
  594ERGO    R2 9131   0.442  18.841   8.756 -0.4348  0.0636  0.0333
  594ERGO    R3 9132   0.581  19.041   8.635 -0.1119 -0.1304  0.0720
  594ERGO    R4 9133   0.470  18.885   8.414 -0.3041  0.0565  0.0428
  594ERGO    R5 9134   0.679  18.939   8.443 -0.2287 -0.2579  0.0830
  594ERGO    C1 9135   0.616  19.099   8.102  0.0750 -0.1298  0.0848
  594ERGO    C2 9136   0.704  19.163   7.727 -0.0649 -0.0460 -0.3173
  595ERGO   ROH 9137   2.039  17.757   8.781 -0.1845  0.1716  0.0416
  595ERGO    R1 9138   2.159  17.696   8.532 -0.0195  0.0641  0.1451
  595ERGO    R2 9139   2.012  17.660   8.301  0.1203 -0.1718  0.0871
  595ERGO    R3 9140   2.179  17.851   8.204  0.0709 -0.1481  0.0495
  595ERGO    R4 9141   2.055  17.733   7.966 -0.0243 -0.1061  0.0827
  595ERGO    R5 9142   2.268  17.756   8.003 -0.0112 -0.1050 -0.0058
  595ERGO    C1 9143   2.237  17.955   7.679 -0.1550 -0.0456  0.0448
  595ERGO    C2 9144   2.052  18.090   7.445 -0.5089  0.1395 -0.0339
  596ERGO   ROH 9145  18.555  14.079   9.086 -0.0266  0.1000 -0.0550
  596ERGO    R1 9146  18.433  13.975   8.853  0.0395  0.0161 -0.0535
  596ERGO    R2 9147  18.196  14.077   8.751 -0.0112 -0.1144 -0.0765
  596ERGO    R3 9148  18.343  14.101   8.524 -0.0076 -0.0562 -0.0674
  596ERGO    R4 9149  18.075  14.030   8.431  0.0047 -0.0431 -0.0927
  596ERGO    R5 9150  18.260  13.928   8.380  0.0061 -0.0223 -0.1112
  596ERGO    C1 9151  18.141  14.026   8.031  0.0174  0.0530 -0.0936
  596ERGO    C2 9152  18.019  13.926   7.737 -0.0983  0.1284 -0.1155
  597ERGO   ROH 9153   8.669  13.496   8.223 -0.0593 -0.0106  0.2249
  597ERGO    R1 9154   8.702  13.710   8.042 -0.0617 -0.0310  0.1992
  597ERGO    R2 9155   8.781  13.673   7.780  0.0821 -0.0492  0.2401
  597ERGO    R3 9156   8.556  13.814   7.725  0.0461 -0.1568  0.1083
  597ERGO    R4 9157   8.714  13.828   7.479  0.1898 -0.0556  0.2128
  597ERGO    R5 9158   8.631  13.997   7.590  0.0367 -0.1088  0.1731
  597ERGO    C1 9159   8.463  14.051   7.252  0.2189 -0.1603  0.0733
  597ERGO    C2 9160   8.390  14.244   7.100  0.5199 -0.2900 -0.1147
  598ERGO   ROH 9161   9.681  13.310   9.646 -0.1268  0.0685  0.3140
  598ERGO    R1 9162   9.602  13.390   9.386  0.0345  0.1056  0.2740
  598ERGO    R2 9163   9.741  13.316   9.159  0.0123 -0.1052  0.3235
  598ERGO    R3 9164   9.498  13.225   9.079 -0.0738  0.1578  0.2822
  598ERGO    R4 9165   9.629  13.321   8.833  0.0752  0.0298  0.3052
  598ERGO    R5 9166   9.431  13.380   8.908  0.1224  0.2389  0.2760
  598ERGO    C1 9167   9.335  13.238   8.567  0.0310  0.3552  0.2557
  598ERGO    C2 9168   9.494  13.275   8.292 -0.4474  0.0512 -0.0697
  599ERGO   ROH 9169   0.746  12.407   9.036 -0.3951 -0.0656 -0.0899
  599ERGO    R1 9170   0.829  12.356   8.771 -0.2741 -0.1289 -0.0403
  599ERGO    R2 9171   0.654  12.357   8.557 -0.1575 -0.0720 -0.1329
  599ERGO    R3 9172   0.830  12.537   8.455 -0.0224 -0.1614 -0.0612
  599ERGO    R4 9173   0.670  12.452   8.225 -0.1532  0.1091 -0.0820
  599ERGO    R5 9174   0.887  12.450   8.240 -0.1466 -0.0878 -0.1283
  599ERGO    C1 9175   0.845  12.677   7.936 -0.0240  0.1307  0.0150
  599ERGO    C2 9176   0.975  12.909   7.660  0.0562 -0.2643 -0.1195
  600ERGO   ROH 9177   1.985   3.022   9.292 -0.2277 -0.3905  0.0300
  600ERGO    R1 9178   1.851   2.957   9.051 -0.1944 -0.0661 -0.0824
  600ERGO    R2 9179   1.690   3.137   8.916 -0.0270  0.1807  0.0317
  600ERGO    R3 9180   1.853   3.075   8.707  0.0052  0.2693  0.0313
  600ERGO    R4 9181   1.627   3.218   8.586 -0.0893  0.0997  0.0240
  600ERGO    R5 9182   1.703   3.022   8.529  0.0397  0.1487  0.0426
  600ERGO    C1 9183   1.743   3.207   8.198 -0.0954  0.1357  0.0191
  600ERGO    C2 9184   1.657   3.158   7.854  0.0411  0.0306 -0.0592
  601ERGO   ROH 9185   2.459   8.902   9.028 -0.3062 -0.2565 -0.2767
  601ERGO    R1 9186   2.704   8.977   8.908 -0.3878  0.1200 -0.2206
  601ERGO    R2 9187   2.885   8.793   8.810  0.1356  0.3604  0.2305
  601ERGO    R3 9188   2.861   8.939   8.582 -0.0611 -0.0810 -0.0442
  601ERGO    R4 9189   3.107   8.783   8.546  0.3677  0.4467  0.4199
  601ERGO    R5 9190   3.086   9.000   8.527 -0.1570  0.3809  0.0351
  601ERGO    C1 9191   3.214   8.915   8.177  0.3183  0.0826  0.2723
  601ERGO    C2 9192   3.336   8.775   7.844 -0.0042  0.0380  0.0915
  602ERGO   ROH 9193   3.763  15.946   8.747  0.1446 -0.0195  0.0485
  602ERGO    R1 9194   3.674  15.964   8.479  0.0935  0.0691  0.0707
  602ERGO    R2 9195   3.834  15.895   8.264 -0.0029 -0.0183  0.0250
  602ERGO    R3 9196   3.624  15.735   8.200 -0.1283  0.1311  0.0582
  602ERGO    R4 9197   3.753  15.795   7.944  0.0427 -0.1889  0.0656
  602ERGO    R5 9198   3.542  15.824   7.993  0.0468  0.0504 -0.0471
  602ERGO    C1 9199   3.508  15.586   7.697 -0.0484 -0.1480  0.1207
  602ERGO    C2 9200   3.448  15.473   7.367  0.0740 -0.4308  0.1342
  603ERGO   ROH 9201  12.200  13.402   9.931  0.2173  0.1300  0.1487
  603ERGO    R1 9202  12.407  13.408   9.738  0.0951  0.1643  0.0161
  603ERGO    R2 9203  12.488  13.182   9.601  0.2380  0.1140  0.1711
  603ERGO    R3 9204  12.439  13.336   9.382 -0.0585 -0.1285  0.0596
  603ERGO    R4 9205  12.651  13.153   9.297  0.2447  0.1780  0.1686
  603ERGO    R5 9206  12.654  13.370   9.283 -0.1318  0.1747  0.0057
  603ERGO    C1 9207  12.699  13.281   8.915 -0.0298 -0.0125  0.0625
  603ERGO    C2 9208  12.883  13.134   8.640  0.1846 -0.0296 -0.2702
  604ERGO   ROH 9209  11.972   5.949   9.064  0.1777  0.4351  0.2672
  604ERGO    R1 9210  11.922   5.899   8.790  0.1670  0.1081  0.3252
  604ERGO    R2 9211  11.733   6.038   8.645  0.0120 -0.2059  0.2134
  604ERGO    R3 9212  11.943   6.086   8.479 -0.0607 -0.1899  0.1258
  604ERGO    R4 9213  11.706   6.167   8.325 -0.1218 -0.1632  0.2408
  604ERGO    R5 9214  11.861   6.027   8.262 -0.1555 -0.1576  0.1540
  604ERGO    C1 9215  11.888   6.286   7.983 -0.2677 -0.1234  0.1746
  604ERGO    C2 9216  11.711   6.480   7.683 -0.3165  0.0753 -0.3323
  605ERGO   ROH 9217   8.966  16.650   9.028 -0.0583 -0.1510  0.2409
  605ERGO    R1 9218   8.845  16.521   8.806 -0.1075  0.0134  0.1695
  605ERGO    R2 9219   8.763  16.659   8.581  0.0699  0.1506  0.1784
  605ERGO    R3 9220   8.920  16.478   8.453 -0.0424  0.0533  0.1802
  605ERGO    R4 9221   8.724  16.561   8.252  0.0224  0.1689  0.1796
  605ERGO    R5 9222   8.769  16.357   8.312 -0.1074  0.1469  0.1777
  605ERGO    C1 9223   8.848  16.334   7.940 -0.1107  0.0882  0.1820
  605ERGO    C2 9224   8.845  16.421   7.659  0.0818 -0.3357 -0.1900
  606ERGO   ROH 9225   2.511  12.344   9.135 -0.0830 -0.2071 -0.0334
  606ERGO    R1 9226   2.444  12.187   8.909 -0.2084 -0.0967 -0.0747
  606ERGO    R2 9227   2.189  12.180   8.804 -0.2279  0.0974 -0.0504
  606ERGO    R3 9228   2.317  12.248   8.574 -0.2083  0.0880 -0.0417
  606ERGO    R4 9229   2.077  12.104   8.486 -0.1254 -0.0360 -0.0548
  606ERGO    R5 9230   2.283  12.059   8.429 -0.0968  0.0360  0.0016
  606ERGO    C1 9231   2.133  12.123   8.084 -0.0474 -0.1226 -0.0492
  606ERGO    C2 9232   2.018  12.036   7.749  0.2882  0.1792  0.0333
  607ERGO   ROH 9233   5.374  13.893   9.200  0.0833 -0.0813  0.0553
  607ERGO    R1 9234   5.342  13.849   8.923  0.0802 -0.1235  0.0632
  607ERGO    R2 9235   5.447  14.018   8.731 -0.1882  0.0198  0.0423
  607ERGO    R3 9236   5.559  13.789   8.637  0.0983  0.1675  0.0121
  607ERGO    R4 9237   5.499  13.947   8.397 -0.0605  0.1496  0.0330
  607ERGO    R5 9238   5.438  13.741   8.436  0.1764  0.0628 -0.0140
  607ERGO    C1 9239   5.636  13.690   8.114  0.2828  0.3638 -0.0006
  607ERGO    C2 9240   5.805  13.744   7.814 -0.1033 -0.0876  0.3586
  608ERGO   ROH 9241  16.200  19.091   9.672 -0.1851  0.0644  0.0800
  608ERGO    R1 9242  16.177  19.108   9.391 -0.1680  0.1895  0.0843
  608ERGO    R2 9243  16.152  18.884   9.230  0.3129  0.2210 -0.0619
  608ERGO    R3 9244  15.931  19.014   9.140  0.0562 -0.1643 -0.0083
  608ERGO    R4 9245  16.005  18.835   8.921  0.5233  0.2155 -0.1618
  608ERGO    R5 9246  15.973  19.049   8.907  0.0622  0.1635  0.0436
  608ERGO    C1 9247  15.712  18.928   8.656  0.4048 -0.1492 -0.1695
  608ERGO    C2 9248  15.528  19.090   8.417 -0.3904  0.1879  0.2620
  609ERGO   ROH 9249   0.765   1.476   9.210 -0.0297  0.3331  0.2596
  609ERGO    R1 9250   0.878   1.537   8.957  0.0481  0.1405  0.2471
  609ERGO    R2 9251   0.733   1.657   8.755  0.0955 -0.0646  0.0916
  609ERGO    R3 9252   0.937   1.836   8.759  0.0551 -0.0152  0.0089
  609ERGO    R4 9253   0.784   1.903   8.518  0.0299 -0.1537 -0.0170
  609ERGO    R5 9254   0.998   1.863   8.529  0.0412 -0.1004 -0.0061
  609ERGO    C1 9255   1.005   2.216   8.384 -0.0463 -0.1591 -0.1578
  609ERGO    C2 9256   0.977   2.328   8.008  0.4099  0.1435  0.1764
  610ERGO   ROH 9257   8.098   4.463   9.079  0.0547  0.0281  0.3042
  610ERGO    R1 9258   8.217   4.679   8.940  0.0233  0.0136  0.2547
  610ERGO    R2 9259   8.484   4.681   8.867  0.0320  0.0518  0.2874
  610ERGO    R3 9260   8.383   4.728   8.620  0.0518 -0.0444  0.2605
  610ERGO    R4 9261   8.620   4.898   8.636  0.0530 -0.0414  0.2114
  610ERGO    R5 9262   8.419   4.962   8.584  0.0579 -0.0587  0.1708
  610ERGO    C1 9263   8.604   5.069   8.269  0.0838 -0.1860  0.1420
  610ERGO    C2 9264   8.364   5.186   8.056  0.2186  0.0668  0.1402
  611ERGO   ROH 9265   2.529   1.751   9.055 -0.1405 -0.0602  0.0821
  611ERGO    R1 9266   2.392   1.782   8.809 -0.0559 -0.0198  0.0397
  611ERGO    R2 9267   2.446   1.988   8.633  0.1004 -0.0688  0.0284
  611ERGO    R3 9268   2.481   1.785   8.456  0.0454 -0.1090  0.0637
  611ERGO    R4 9269   2.418   2.019   8.290  0.4284 -0.0442  0.0007
  611ERGO    R5 9270   2.317   1.826   8.287  0.2313  0.0580 -0.0808
  611ERGO    C1 9271   2.434   1.846   7.924  0.5677 -0.0676  0.0177
  611ERGO    C2 9272   2.505   1.614   7.632 -0.1936 -0.0760  0.0212
  612ERGO   ROH 9273  10.362   5.109   8.968 -0.1020 -0.0736  0.0200
  612ERGO    R1 9274  10.407   4.931   8.753 -0.0607 -0.0568  0.0154
  612ERGO    R2 9275  10.327   4.667   8.759 -0.1057 -0.0412 -0.0399
  612ERGO    R3 9276  10.202   4.733   8.526 -0.0177  0.0010 -0.0764
  612ERGO    R4 9277  10.309   4.463   8.481  0.0621  0.0300 -0.1044
  612ERGO    R5 9278  10.342   4.639   8.356  0.0816  0.0766 -0.0413
  612ERGO    C1 9279  10.182   4.405   8.100  0.2425  0.1110 -0.1763
  612ERGO    C2 9280  10.167   4.302   7.769  0.1503  0.5902 -0.2839
  613ERGO   ROH 9281   0.619  10.544   8.964 -0.3399  0.1353  0.1242
  613ERGO    R1 9282   0.628  10.555   8.682 -0.4220  0.0490  0.1178
  613ERGO    R2 9283   0.428  10.674   8.531 -0.2816  0.3467  0.1615
  613ERGO    R3 9284   0.636  10.815   8.427 -0.0767 -0.0230  0.0491
  613ERGO    R4 9285   0.452  10.776   8.202 -0.1873  0.1397  0.1024
  613ERGO    R5 9286   0.664  10.726   8.207 -0.2560 -0.1864  0.0870
  613ERGO    C1 9287   0.661  10.969   7.913  0.0601 -0.3282 -0.0374
  613ERGO    C2 9288   0.855  11.022   7.609 -0.1698 -0.0904  0.1312
  614ERGO   ROH 9289   4.028  12.933   9.106  0.0187  0.0258 -0.0712
  614ERGO    R1 9290   4.067  13.071   8.863  0.3116  0.2014  0.0680
  614ERGO    R2 9291   4.318  13.130   8.763  0.4534 -0.2484  0.1197
  614ERGO    R3 9292   4.224  13.002   8.542  0.1460  0.1752 -0.0065
  614ERGO    R4 9293   4.482  13.116   8.459  0.4155 -0.3539  0.1043
  614ERGO    R5 9294   4.290  13.144   8.360  0.4756  0.1946  0.1277
  614ERGO    C1 9295   4.490  12.989   8.075  0.1049 -0.0176 -0.0232
  614ERGO    C2 9296   4.554  13.029   7.686 -0.1517  0.2798  0.0883
  615ERGO   ROH 9297   8.712   9.561   9.128  0.0337  0.3289  0.1079
  615ERGO    R1 9298   8.767   9.485   8.861  0.2605  0.0901  0.2188
  615ERGO    R2 9299   8.695   9.640   8.644  0.0726 -0.2940 -0.0001
  615ERGO    R3 9300   8.959   9.619   8.582  0.1383  0.0750  0.1257
  615ERGO    R4 9301   8.828   9.682   8.328  0.1488 -0.2032  0.0427
  615ERGO    R5 9302   8.961   9.514   8.367  0.3854  0.0013  0.1586
  615ERGO    C1 9303   9.153   9.687   8.085  0.2549  0.1961  0.1857
  615ERGO    C2 9304   9.121   9.864   7.739  0.0463  0.0040 -0.0422
  616ERGO   ROH 9305  12.356  14.908   9.810 -0.3741 -0.2598  0.0944
  616ERGO    R1 9306  12.461  14.948   9.550 -0.2323 -0.0079  0.1847
  616ERGO    R2 9307  12.459  14.750   9.357  0.0108  0.1223  0.0310
  616ERGO    R3 9308  12.333  14.941   9.210 -0.0178  0.1549  0.1012
  616ERGO    R4 9309  12.538  14.833   9.031  0.0469  0.3271  0.0921
  616ERGO    R5 9310  12.508  15.042   9.082 -0.0338  0.2826  0.1912
  616ERGO    C1 9311  12.467  15.061   8.703  0.0410  0.4770  0.1934
  616ERGO    C2 9312  12.521  14.828   8.375  0.0583  0.5656 -0.0178
  617ERGO   ROH 9313  13.486  13.040   9.607  0.2244 -0.0547  0.0332
  617ERGO    R1 9314  13.635  13.039   9.367 -0.0728 -0.1917 -0.1562
  617ERGO    R2 9315  13.517  13.011   9.119 -0.4461  0.1780 -0.0327
  617ERGO    R3 9316  13.649  13.242   9.065 -0.0759 -0.0307 -0.0494
  617ERGO    R4 9317  13.562  13.143   8.803 -0.5584  0.2691 -0.0117
  617ERGO    R5 9318  13.765  13.197   8.860 -0.3851 -0.1365 -0.2075
  617ERGO    C1 9319  13.713  13.437   8.568 -0.2761  0.1265 -0.0149
  617ERGO    C2 9320  13.900  13.624   8.268 -0.2871  0.3591 -0.1266
  618ERGO   ROH 9321  10.871   3.974   9.041 -0.0703 -0.0200 -0.1050
  618ERGO    R1 9322  11.047   4.005   8.821 -0.0923  0.2400 -0.0873
  618ERGO    R2 9323  11.115   3.796   8.654  0.2621  0.3298 -0.0555
  618ERGO    R3 9324  11.029   3.966   8.460  0.0140  0.1736 -0.0871
  618ERGO    R4 9325  11.173   3.755   8.316  0.1935  0.2654 -0.0603
  618ERGO    R5 9326  11.207   3.970   8.300 -0.0375  0.3043 -0.1486
  618ERGO    C1 9327  11.125   3.890   7.936 -0.0795  0.0813 -0.0927
  618ERGO    C2 9328  11.016   3.672   7.669  0.1508 -0.2924  0.3336
  619ERGO   ROH 9329   8.666  15.234   9.264  0.0714 -0.0919 -0.0016
  619ERGO    R1 9330   8.829  15.246   9.033  0.0590 -0.1211 -0.0134
  619ERGO    R2 9331   8.892  15.022   8.883 -0.0463 -0.1267 -0.0612
  619ERGO    R3 9332   8.791  15.170   8.679 -0.0051 -0.0457 -0.0215
  619ERGO    R4 9333   8.957  14.967   8.548  0.1026  0.0818 -0.0675
  619ERGO    R5 9334   8.970  15.182   8.520  0.0506  0.0964  0.0565
  619ERGO    C1 9335   8.900  15.074   8.162  0.2281  0.2794 -0.0340
  619ERGO    C2 9336   8.971  14.942   7.884  0.2273 -0.0213 -0.2285
  620ERGO   ROH 9337   7.234   9.385   9.304  0.2314  0.1530  0.2673
  620ERGO    R1 9338   7.345   9.526   9.085  0.2390  0.1150  0.2481
  620ERGO    R2 9339   7.608   9.498   9.008  0.1861 -0.0526  0.1385
  620ERGO    R3 9340   7.498   9.442   8.766  0.0525  0.0667  0.1687
  620ERGO    R4 9341   7.764   9.548   8.703  0.0463  0.0447  0.0809
  620ERGO    R5 9342   7.573   9.619   8.623  0.0152  0.1148  0.2038
  620ERGO    C1 9343   7.751   9.524   8.298 -0.1607  0.2132  0.0757
  620ERGO    C2 9344   7.787   9.559   7.899  0.4761 -0.0840  0.0793
  621ERGO   ROH 9345  17.090  12.303   9.296 -0.1988 -0.0913 -0.2668
  621ERGO    R1 9346  17.289  12.352   9.100 -0.1366  0.0989 -0.1599
  621ERGO    R2 9347  17.431  12.148   8.977  0.1252  0.2297 -0.0906
  621ERGO    R3 9348  17.341  12.267   8.750  0.1299  0.1504 -0.1332
  621ERGO    R4 9349  17.539  12.071   8.658 -0.0207 -0.0155 -0.0833
  621ERGO    R5 9350  17.535  12.284   8.611  0.0934 -0.0449 -0.2048
  621ERGO    C1 9351  17.518  12.138   8.259 -0.1012 -0.2327 -0.1190
  621ERGO    C2 9352  17.488  11.926   8.068 -0.0011  0.0296  0.2238
  622ERGO   ROH 9353   1.823  19.095   8.886  0.2054 -0.1247  0.0093
  622ERGO    R1 9354   1.734  19.043   8.622  0.1284 -0.1258  0.0361
  622ERGO    R2 9355   1.539  19.193   8.498  0.1272 -0.0990  0.0782
  622ERGO    R3 9356   1.727  19.221   8.305  0.0803 -0.1474  0.0238
  622ERGO    R4 9357   1.491  19.357   8.198  0.0785 -0.0854  0.0926
  622ERGO    R5 9358   1.606  19.200   8.100  0.0122 -0.1173  0.0579
  622ERGO    C1 9359   1.641  19.479   7.841  0.0061 -0.1228  0.0498
  622ERGO    C2 9360   1.680  19.761   7.625  0.1091  0.2326  0.1285
  623ERGO   ROH 9361   1.612  11.263   8.865  0.0711  0.3095 -0.0265
  623ERGO    R1 9362   1.716  11.220   8.605  0.0559  0.2307 -0.0201
  623ERGO    R2 9363   1.554  11.203   8.381  0.0349  0.0731  0.0047
  623ERGO    R3 9364   1.718  11.400   8.289 -0.0456  0.0913 -0.1010
  623ERGO    R4 9365   1.584  11.298   8.050 -0.0286 -0.0698 -0.0425
  623ERGO    R5 9366   1.799  11.318   8.079 -0.0335  0.0236 -0.0696
  623ERGO    C1 9367   1.755  11.538   7.771 -0.1412 -0.1358 -0.1693
  623ERGO    C2 9368   1.905  11.604   7.481  0.0901  0.6685  0.3921
  624ERGO   ROH 9369   9.531   5.940   8.704 -0.0272 -0.0214 -0.3030
  624ERGO    R1 9370   9.685   5.966   8.468 -0.0134 -0.1139 -0.3065
  624ERGO    R2 9371   9.594   5.882   8.221 -0.1067  0.0218 -0.3278
  624ERGO    R3 9372   9.653   6.137   8.148  0.1248 -0.0136 -0.2656
  624ERGO    R4 9373   9.581   6.004   7.898 -0.1393  0.1563 -0.2745
  624ERGO    R5 9374   9.764   6.115   7.938 -0.0052 -0.0512 -0.3258
  624ERGO    C1 9375   9.629   6.314   7.642  0.0591  0.2015 -0.1851
  624ERGO    C2 9376   9.423   6.454   7.379  0.1369 -0.1755  0.0345
  625ERGO   ROH 9377  10.720  13.479   9.969 -0.0447  0.2245 -0.1548
  625ERGO    R1 9378  10.735  13.284   9.765 -0.0590  0.1475 -0.0825
  625ERGO    R2 9379  10.563  13.280   9.549  0.0123  0.1470 -0.1377
  625ERGO    R3 9380  10.794  13.281   9.405  0.0605 -0.0019 -0.0633
  625ERGO    R4 9381  10.583  13.239   9.206  0.1041  0.0190 -0.1178
  625ERGO    R5 9382  10.759  13.115   9.236  0.0429 -0.0476 -0.0167
  625ERGO    C1 9383  10.812  13.215   8.872  0.2027 -0.1953 -0.0363
  625ERGO    C2 9384  10.888  13.375   8.524 -0.2689 -0.0906 -0.2117
  626ERGO   ROH 9385   2.949  10.173   8.918 -0.0410 -0.0274 -0.1349
  626ERGO    R1 9386   2.892   9.990   8.709 -0.0360  0.0515 -0.2056
  626ERGO    R2 9387   2.725  10.053   8.498 -0.0455  0.1244 -0.1734
  626ERGO    R3 9388   2.939   9.977   8.349 -0.0475  0.1956 -0.2137
  626ERGO    R4 9389   2.708   9.871   8.204 -0.0461  0.0992 -0.1580
  626ERGO    R5 9390   2.883   9.759   8.269  0.0130  0.1668 -0.1863
  626ERGO    C1 9391   2.900   9.695   7.893 -0.0483  0.1513 -0.1868
  626ERGO    C2 9392   3.100   9.797   7.658  0.0609 -0.1730  0.1419
  627ERGO   ROH 9393  18.432   0.338   9.308 -0.2184 -0.0848 -0.0428
  627ERGO    R1 9394  18.536   0.409   9.055 -0.1814  0.1857  0.0445
  627ERGO    R2 9395  18.503   0.250   8.831  0.2547  0.1851 -0.0272
  627ERGO    R3 9396  18.402   0.479   8.724 -0.1024  0.0373 -0.0202
  627ERGO    R4 9397  18.378   0.280   8.510  0.2275  0.0057 -0.0344
  627ERGO    R5 9398  18.474   0.474   8.496 -0.0773  0.1646 -0.0157
  627ERGO    C1 9399  18.210   0.512   8.223 -0.1234 -0.2375 -0.0321
  627ERGO    C2 9400  18.068   0.673   7.975 -0.1286  0.1702 -0.1671
  628ERGO   ROH 9401  14.431   6.286   8.935 -0.2590 -0.0499  0.0515
  628ERGO    R1 9402  14.372   6.301   8.659  0.0239 -0.0495 -0.0118
  628ERGO    R2 9403  14.505   6.149   8.470  0.1058 -0.1738  0.1405
  628ERGO    R3 9404  14.253   6.073   8.401  0.1164 -0.0058 -0.0930
  628ERGO    R4 9405  14.428   5.934   8.211  0.1909 -0.0523  0.0137
  628ERGO    R5 9406  14.259   6.062   8.162  0.3076  0.0613 -0.0918
  628ERGO    C1 9407  14.148   5.737   7.994  0.2505  0.1762 -0.2792
  628ERGO    C2 9408  14.124   5.452   7.798  0.0285 -0.4972  0.0152
  629ERGO   ROH 9409   9.264  12.185   9.494 -0.1728  0.2045 -0.1672
  629ERGO    R1 9410   9.405  12.278   9.267 -0.0616  0.1503 -0.1211
  629ERGO    R2 9411   9.679  12.259   9.244 -0.0691 -0.0311 -0.0660
  629ERGO    R3 9412   9.618  12.133   9.010 -0.1049  0.0512 -0.1017
  629ERGO    R4 9413   9.787  12.361   8.931  0.1318 -0.0916 -0.0183
  629ERGO    R5 9414   9.589  12.312   8.853  0.1119  0.0985 -0.0919
  629ERGO    C1 9415   9.792  12.302   8.530  0.2152 -0.0495 -0.0239
  629ERGO    C2 9416   9.915  12.537   8.221 -0.4149 -0.0217 -0.0533
  630ERGO   ROH 9417   6.592   8.353   9.053 -0.2023  0.3806  0.1381
  630ERGO    R1 9418   6.571   8.417   8.778 -0.2440  0.1541  0.0854
  630ERGO    R2 9419   6.700   8.634   8.666 -0.3910  0.1607 -0.0823
  630ERGO    R3 9420   6.799   8.447   8.496 -0.2592  0.0923  0.0675
  630ERGO    R4 9421   6.682   8.651   8.321 -0.3412 -0.0992 -0.0992
  630ERGO    R5 9422   6.638   8.438   8.318 -0.2221 -0.1243  0.0452
  630ERGO    C1 9423   6.763   8.485   7.961 -0.1884 -0.3147  0.0316
  630ERGO    C2 9424   6.801   8.759   7.665 -0.0856  0.2699 -0.0198
  631ERGO   ROH 9425   6.155  14.852   8.945 -0.1091  0.0329  0.0717
  631ERGO    R1 9426   6.312  14.846   8.709 -0.0262  0.1122  0.1237
  631ERGO    R2 9427   6.283  14.650   8.516  0.0770  0.1473  0.0713
  631ERGO    R3 9428   6.250  14.863   8.351  0.0942  0.1763  0.1053
  631ERGO    R4 9429   6.300  14.638   8.171  0.1571  0.2145  0.0728
  631ERGO    R5 9430   6.407  14.827   8.174  0.1385  0.2249  0.1341
  631ERGO    C1 9431   6.279  14.830   7.815  0.2200  0.2808  0.1056
  631ERGO    C2 9432   6.168  14.626   7.597 -0.1358 -0.1779  0.1897
  632ERGO   ROH 9433   7.242   1.068   9.524 -0.1520  0.0172  0.1570
  632ERGO    R1 9434   7.408   0.959   9.323 -0.1167  0.0439  0.1725
  632ERGO    R2 9435   7.378   0.701   9.228 -0.1000  0.0589  0.1341
  632ERGO    R3 9436   7.366   0.826   8.987 -0.0552  0.0879  0.1460
  632ERGO    R4 9437   7.429   0.546   8.924 -0.2491  0.0441  0.1155
  632ERGO    R5 9438   7.539   0.723   8.858 -0.1401 -0.0204  0.1122
  632ERGO    C1 9439   7.447   0.573   8.520 -0.2939  0.0628  0.1160
  632ERGO    C2 9440   7.473   0.337   8.276  0.2238  0.2520  0.0806
  633ERGO   ROH 9441   0.393   7.167   9.134 -0.1891  0.0477 -0.0498
  633ERGO    R1 9442   0.264   7.196   8.884 -0.0478  0.0728 -0.1219
  633ERGO    R2 9443   0.400   7.184   8.644  0.0720 -0.0276 -0.0553
  633ERGO    R3 9444   0.215   6.993   8.586  0.0106  0.0503 -0.1143
  633ERGO    R4 9445   0.369   7.024   8.339  0.2193 -0.1546 -0.0040
  633ERGO    R5 9446   0.153   7.037   8.359  0.2136 -0.0232 -0.1825
  633ERGO    C1 9447   0.178   6.752   8.108  0.2474 -0.1556 -0.0296
  633ERGO    C2 9448   0.337   6.569   7.858 -0.1274  0.4148 -0.2879
  634ERGO   ROH 9449  13.038  15.868   6.531 -0.0562  0.1457 -0.0956
  634ERGO    R1 9450  13.163  15.867   6.785  0.0187  0.0697 -0.1319
  634ERGO    R2 9451  13.075  16.024   6.995  0.0791  0.0059 -0.0577
  634ERGO    R3 9452  13.067  15.787   7.126  0.1196 -0.0343 -0.1276
  634ERGO    R4 9453  13.083  15.989   7.338  0.2150 -0.1000 -0.0710
  634ERGO    R5 9454  13.215  15.817   7.313  0.1959 -0.0993 -0.1769
  634ERGO    C1 9455  13.080  15.746   7.662  0.3322 -0.1993 -0.1444
  634ERGO    C2 9456  12.993  15.597   7.856 -0.0817  0.1008 -0.2366
  635ERGO   ROH 9457  18.634  18.077   9.505 -0.0004  0.1736  0.1315
  635ERGO    R1 9458  18.679  18.147   9.235 -0.0625  0.1780  0.1206
  635ERGO    R2 9459  18.622  17.976   9.025  0.0528  0.1087  0.1337
  635ERGO    R3 9460  18.476  18.187   8.935 -0.1080 -0.0053  0.1298
  635ERGO    R4 9461  18.471  17.995   8.715  0.0498  0.0161  0.1303
  635ERGO    R5 9462  18.531  18.204   8.703 -0.1172  0.0536  0.1404
  635ERGO    C1 9463  18.245  18.204   8.450 -0.1028 -0.1448  0.1247
  635ERGO    C2 9464  18.126  18.378   8.222 -0.1249 -0.6607  0.0618
  636ERGO   ROH 9465  12.443  11.444   9.945  0.0649 -0.0729 -0.0574
  636ERGO    R1 9466  12.357  11.470   9.677  0.0262 -0.1429 -0.0520
  636ERGO    R2 9467  12.466  11.655   9.503 -0.1632 -0.0260 -0.0473
  636ERGO    R3 9468  12.507  11.437   9.347  0.0444  0.0215 -0.0616
  636ERGO    R4 9469  12.409  11.642   9.162  0.0196 -0.0018 -0.0795
  636ERGO    R5 9470  12.328  11.442   9.188  0.1207 -0.0556 -0.1537
  636ERGO    C1 9471  12.415  11.429   8.817  0.3211  0.0569 -0.1117
  636ERGO    C2 9472  12.409  11.580   8.543 -0.0449  0.0571  0.1168
  637ERGO   ROH 9473   3.073  10.857   9.159  0.0649 -0.2749  0.0200
  637ERGO    R1 9474   3.093  10.655   8.961  0.1961 -0.2569  0.0119
  637ERGO    R2 9475   2.887  10.597   8.786  0.1402 -0.5380  0.1520
  637ERGO    R3 9476   3.079  10.639   8.598 -0.0381 -0.2769  0.0231
  637ERGO    R4 9477   2.914  10.422   8.490  0.0896 -0.3640  0.0440
  637ERGO    R5 9478   3.130  10.420   8.516  0.1050 -0.1828 -0.1239
  637ERGO    C1 9479   3.110  10.359   8.140 -0.1072 -0.0176 -0.1399
  637ERGO    C2 9480   2.943  10.307   7.904  0.2499  0.0899  0.1365
  638ERGO   ROH 9481   0.506  17.201   9.354  0.0427  0.0115 -0.0804
  638ERGO    R1 9482   0.606  17.150   9.094 -0.0993 -0.0198 -0.1294
  638ERGO    R2 9483   0.444  17.060   8.887 -0.2644  0.2040 -0.0996
  638ERGO    R3 9484   0.546  17.276   8.758 -0.0840  0.1366 -0.0745
  638ERGO    R4 9485   0.450  17.101   8.544 -0.2134  0.2268 -0.0962
  638ERGO    R5 9486   0.649  17.186   8.562 -0.1436  0.0681 -0.0768
  638ERGO    C1 9487   0.548  17.329   8.223 -0.0143  0.1766 -0.0707
  638ERGO    C2 9488   0.473  17.646   7.996  0.0959 -0.0194 -0.0384
  639ERGO   ROH 9489   9.303   0.352   9.557  0.1200  0.0557  0.0685
  639ERGO    R1 9490   9.347   0.216   9.312 -0.2893  0.0512 -0.0103
  639ERGO    R2 9491   9.225   0.291   9.076 -0.1082  0.5361  0.0405
  639ERGO    R3 9492   9.481   0.299   8.984 -0.0735 -0.1449  0.0245
  639ERGO    R4 9493   9.316   0.362   8.750  0.0564  0.8367  0.1475
  639ERGO    R5 9494   9.468   0.206   8.764 -0.4367  0.2828 -0.1519
  639ERGO    C1 9495   9.608   0.411   8.474  0.1849  0.3725  0.1946
  639ERGO    C2 9496   9.690   0.423   8.184 -0.3394 -0.2101  0.1952
  640ERGO   ROH 9497   8.243   3.654   9.206 -0.0164 -0.1701  0.2069
  640ERGO    R1 9498   8.240   3.461   8.999  0.0361  0.0041  0.0409
  640ERGO    R2 9499   8.248   3.528   8.731  0.2238  0.2271  0.1055
  640ERGO    R3 9500   8.461   3.359   8.729  0.1620  0.1471  0.0866
  640ERGO    R4 9501   8.445   3.464   8.455  0.1115  0.0880  0.0552
  640ERGO    R5 9502   8.450   3.254   8.514  0.0518  0.0947  0.1112
  640ERGO    C1 9503   8.760   3.268   8.292 -0.0118 -0.0682  0.0081
  640ERGO    C2 9504   8.848   3.248   7.928  0.2004  0.4007  0.2378
  641ERGO   ROH 9505   3.174  14.968   8.927 -0.0231 -0.1367  0.1259
  641ERGO    R1 9506   3.172  15.000   8.646  0.0025  0.0448  0.1455
  641ERGO    R2 9507   3.049  14.821   8.476  0.0882  0.1098  0.0130
  641ERGO    R3 9508   2.921  15.044   8.386  0.0211  0.1239  0.1403
  641ERGO    R4 9509   2.875  14.843   8.178  0.1882  0.2639 -0.0354
  641ERGO    R5 9510   2.958  15.042   8.150  0.1095  0.3254  0.1508
  641ERGO    C1 9511   2.654  15.064   7.920  0.1835  0.3669  0.0560
  641ERGO    C2 9512   2.497  15.005   7.600 -0.1757 -0.1015 -0.2579
  642ERGO   ROH 9513   0.727  15.904   9.400  0.0402  0.1741  0.1834
  642ERGO    R1 9514   0.827  16.027   9.166 -0.0133  0.0960  0.1191
  642ERGO    R2 9515   0.842  15.895   8.924 -0.0277  0.0005  0.1687
  642ERGO    R3 9516   0.699  16.108   8.835 -0.0750 -0.0573  0.1048
  642ERGO    R4 9517   0.772  15.961   8.592 -0.1547 -0.1801  0.1575
  642ERGO    R5 9518   0.809  16.172   8.632 -0.1554 -0.1571  0.0304
  642ERGO    C1 9519   0.598  16.201   8.315 -0.2731 -0.3398  0.0911
  642ERGO    C2 9520   0.581  16.336   7.984  0.3508  0.0697  0.1751
  643ERGO   ROH 9521  13.375   9.242   8.954  0.2992 -0.0182  0.0422
  643ERGO    R1 9522  13.545   9.308   8.738  0.2898 -0.2127 -0.0247
  643ERGO    R2 9523  13.624   9.123   8.548 -0.2134 -0.2475 -0.2055
  643ERGO    R3 9524  13.524   9.307   8.375  0.0380  0.0811 -0.0168
  643ERGO    R4 9525  13.756   9.193   8.237 -0.2601 -0.3003 -0.2387
  643ERGO    R5 9526  13.717   9.404   8.273  0.1826 -0.2337 -0.0648
  643ERGO    C1 9527  13.738   9.407   7.892 -0.0513 -0.0227 -0.0810
  643ERGO    C2 9528  13.673   9.312   7.533  0.2647 -0.1470 -0.0019
  644ERGO   ROH 9529  16.940  14.959   9.486  0.0570  0.0354  0.1224
  644ERGO    R1 9530  17.100  14.928   9.255 -0.0351  0.1621  0.0400
  644ERGO    R2 9531  17.171  14.680   9.155  0.1469  0.2150  0.0315
  644ERGO    R3 9532  17.063  14.778   8.926 -0.0711  0.0897  0.0773
  644ERGO    R4 9533  17.249  14.569   8.837  0.0627  0.2433  0.0005
  644ERGO    R5 9534  17.244  14.776   8.769 -0.1586  0.2302 -0.0266
  644ERGO    C1 9535  17.193  14.596   8.437 -0.1909  0.1422  0.0253
  644ERGO    C2 9536  17.186  14.380   8.194 -0.2024 -0.0793 -0.3139
  645ERGO   ROH 9537   3.059  18.137   8.788 -0.0520  0.0498 -0.0634
  645ERGO    R1 9538   3.051  18.120   8.506  0.0708  0.3000 -0.0846
  645ERGO    R2 9539   3.269  18.178   8.347  0.2913 -0.0164  0.0903
  645ERGO    R3 9540   3.223  17.930   8.247 -0.1706  0.1503 -0.1384
  645ERGO    R4 9541   3.353  18.076   8.028  0.3679  0.0398  0.0923
  645ERGO    R5 9542   3.163  17.969   8.018  0.1274  0.4620 -0.1710
  645ERGO    C1 9543   3.359  17.783   7.748 -0.0212  0.2291 -0.1211
  645ERGO    C2 9544   3.366  17.702   7.442 -0.2443 -0.0571 -0.0087
  646ERGO   ROH 9545   4.119   9.398   9.119 -0.0707 -0.2500 -0.0165
  646ERGO    R1 9546   4.116   9.381   8.836 -0.0573 -0.1038 -0.0258
  646ERGO    R2 9547   4.127   9.605   8.674  0.0304 -0.0228  0.0890
  646ERGO    R3 9548   4.338   9.475   8.564 -0.0063 -0.0393  0.0378
  646ERGO    R4 9549   4.336   9.738   8.434 -0.0491 -0.0613 -0.0024
  646ERGO    R5 9550   4.337   9.544   8.334 -0.0824 -0.0758  0.0277
  646ERGO    C1 9551   4.657   9.694   8.190 -0.1298 -0.0992 -0.1038
  646ERGO    C2 9552   4.811   9.813   7.896  0.1508  0.1772 -0.1211
  647ERGO   ROH 9553  16.160  13.900   9.591 -0.0583  0.1027 -0.1050
  647ERGO    R1 9554  16.233  13.932   9.320 -0.0884 -0.0998 -0.1396
  647ERGO    R2 9555  16.094  13.811   9.113 -0.3340  0.0277 -0.0606
  647ERGO    R3 9556  16.077  14.065   9.019  0.0148  0.0267 -0.1361
  647ERGO    R4 9557  16.047  13.895   8.782 -0.2367  0.0018 -0.0803
  647ERGO    R5 9558  16.190  14.057   8.808 -0.0093 -0.1901 -0.1396
  647ERGO    C1 9559  16.004  14.183   8.500  0.1471 -0.0142 -0.1628
  647ERGO    C2 9560  16.107  14.277   8.163  0.0627  0.1642  0.2804
  648ERGO   ROH 9561   9.925  16.371   9.375  0.1978  0.0226 -0.0232
  648ERGO    R1 9562   9.844  16.346   9.105  0.0547 -0.1185  0.0306
  648ERGO    R2 9563   9.944  16.507   8.904 -0.2730 -0.0185 -0.0626
  648ERGO    R3 9564  10.004  16.269   8.788 -0.0479  0.0349 -0.0587
  648ERGO    R4 9565   9.998  16.460   8.566 -0.3129  0.0066 -0.0722
  648ERGO    R5 9566   9.888  16.273   8.579 -0.1080 -0.1110 -0.0265
  648ERGO    C1 9567  10.087  16.210   8.260 -0.1249  0.0713 -0.0741
  648ERGO    C2 9568  10.140  15.885   8.083 -0.3947 -0.1194 -0.4486
  649ERGO   ROH 9569  10.941  14.655   9.574 -0.1999  0.1078  0.2245
  649ERGO    R1 9570  10.770  14.672   9.349 -0.1051  0.3545  0.1665
  649ERGO    R2 9571  10.830  14.824   9.126  0.2617  0.1590  0.1217
  649ERGO    R3 9572  10.790  14.590   8.995 -0.1518  0.1772  0.2047
  649ERGO    R4 9573  10.779  14.794   8.786  0.1719  0.1259  0.1382
  649ERGO    R5 9574  10.628  14.642   8.826 -0.0834  0.3928  0.2063
  649ERGO    C1 9575  10.711  14.556   8.464 -0.2684  0.1237  0.2258
  649ERGO    C2 9576  10.795  14.521   8.146  0.4862 -0.0766  0.0717
  650ERGO   ROH 9577   5.521   3.561   8.950 -0.0862  0.0427 -0.0852
  650ERGO    R1 9578   5.589   3.379   8.743  0.0575  0.1598 -0.1430
  650ERGO    R2 9579   5.413   3.187   8.651  0.3004 -0.1332 -0.0118
  650ERGO    R3 9580   5.465   3.301   8.410 -0.0745 -0.0309 -0.0512
  650ERGO    R4 9581   5.312   3.060   8.346  0.3883 -0.3681  0.0547
  650ERGO    R5 9582   5.506   3.116   8.264  0.2332  0.0375 -0.0598
  650ERGO    C1 9583   5.302   3.093   7.942  0.0875 -0.4089  0.0565
  650ERGO    C2 9584   5.220   3.031   7.658 -0.2181  0.4038 -0.1221
  651ERGO   ROH 9585   0.608  17.997   9.294  0.2510 -0.1342  0.0531
  651ERGO    R1 9586   0.606  17.928   9.019  0.1668 -0.1031  0.0462
  651ERGO    R2 9587   0.821  17.974   8.852  0.1551 -0.1828  0.0107
  651ERGO    R3 9588   0.796  17.708   8.800  0.0249 -0.1662 -0.0152
  651ERGO    R4 9589   0.947  17.814   8.573  0.3202 -0.2644  0.1298
  651ERGO    R5 9590   0.764  17.697   8.563  0.2468 -0.1405 -0.0488
  651ERGO    C1 9591   0.997  17.472   8.361  0.2941 -0.2967  0.1748
  651ERGO    C2 9592   1.071  17.165   8.187 -0.0055  0.3217 -0.0660
  652ERGO   ROH 9593   3.530  11.407   8.792  0.3660 -0.2452  0.0585
  652ERGO    R1 9594   3.511  11.458   8.514  0.2548 -0.3002  0.0548
  652ERGO    R2 9595   3.550  11.710   8.406 -0.0640 -0.2622  0.0157
  652ERGO    R3 9596   3.733  11.580   8.252  0.0656 -0.0654  0.0018
  652ERGO    R4 9597   3.581  11.746   8.064 -0.1881 -0.2960  0.0006
  652ERGO    R5 9598   3.616  11.531   8.049  0.0797 -0.2572  0.0394
  652ERGO    C1 9599   3.771  11.646   7.720 -0.1386 -0.1309 -0.0213
  652ERGO    C2 9600   3.956  11.843   7.520 -0.1211  0.1781  0.0894
  653ERGO   ROH 9601   8.508  12.533   9.522 -0.0559 -0.0902 -0.0454
  653ERGO    R1 9602   8.432  12.691   9.299 -0.1760 -0.1193 -0.0259
  653ERGO    R2 9603   8.587  12.712   9.072 -0.1643  0.0681 -0.0027
  653ERGO    R3 9604   8.358  12.635   8.948 -0.0777 -0.1251 -0.0459
  653ERGO    R4 9605   8.533  12.727   8.731 -0.1173  0.0326 -0.0118
  653ERGO    R5 9606   8.329  12.794   8.771 -0.1835 -0.1430 -0.0451
  653ERGO    C1 9607   8.286  12.663   8.416 -0.0084 -0.1695 -0.0576
  653ERGO    C2 9608   8.166  12.569   8.142  0.1695 -0.1077  0.0690
  654ERGO   ROH 9609   0.829   5.742   8.898 -0.1405 -0.0618  0.0859
  654ERGO    R1 9610   0.751   5.611   8.659  0.0414 -0.0191  0.0014
  654ERGO    R2 9611   0.512   5.664   8.531 -0.0347 -0.2639  0.0338
  654ERGO    R3 9612   0.674   5.709   8.317 -0.0878  0.0953  0.0631
  654ERGO    R4 9613   0.403   5.699   8.205 -0.0714 -0.2307  0.0497
  654ERGO    R5 9614   0.575   5.582   8.140  0.1034  0.0535 -0.0143
  654ERGO    C1 9615   0.492   5.762   7.814 -0.1427  0.1259  0.0864
  654ERGO    C2 9616   0.506   6.065   7.614  0.0255  0.2886  0.0616
  655ERGO   ROH 9617   7.046   6.526   9.214  0.0418 -0.1978 -0.1125
  655ERGO    R1 9618   6.924   6.707   9.034 -0.0336 -0.1444 -0.0078
  655ERGO    R2 9619   7.052   6.934   8.942 -0.1054 -0.0725  0.0738
  655ERGO    R3 9620   6.989   6.831   8.698 -0.1240  0.0269  0.0355
  655ERGO    R4 9621   7.061   7.110   8.645  0.0373  0.0080  0.1245
  655ERGO    R5 9622   6.876   7.009   8.585 -0.0108  0.1221  0.0677
  655ERGO    C1 9623   7.007   7.116   8.243  0.1029  0.1482  0.1181
  655ERGO    C2 9624   6.989   7.130   8.049  0.0844 -0.1348  0.2208
  656ERGO   ROH 9625   3.650   1.492   9.090  0.1177 -0.0777  0.0396
  656ERGO    R1 9626   3.757   1.329   8.885  0.1746 -0.2260  0.1844
  656ERGO    R2 9627   3.805   1.423   8.630 -0.1850 -0.5208 -0.0054
  656ERGO    R3 9628   4.055   1.327   8.677  0.0007 -0.0890 -0.0695
  656ERGO    R4 9629   4.053   1.392   8.391 -0.2314 -0.2223 -0.0951
  656ERGO    R5 9630   4.109   1.201   8.480  0.1242 -0.0925 -0.0312
  656ERGO    C1 9631   4.432   1.285   8.296 -0.0841  0.3569 -0.2075
  656ERGO    C2 9632   4.657   1.325   8.034 -0.1407  0.1834  0.0314
  657ERGO   ROH 9633   3.924   3.728   8.940 -0.0239 -0.2796  0.1186
  657ERGO    R1 9634   3.964   3.488   8.794  0.0522 -0.1693 -0.0439
  657ERGO    R2 9635   3.793   3.406   8.593 -0.0375 -0.1877  0.0441
  657ERGO    R3 9636   4.023   3.397   8.447 -0.1399  0.0656 -0.1428
  657ERGO    R4 9637   3.821   3.266   8.278 -0.0726 -0.5144  0.1818
  657ERGO    R5 9638   4.014   3.184   8.337  0.1448 -0.0940  0.1196
  657ERGO    C1 9639   4.052   3.176   7.958 -0.1891 -0.4669  0.0868
  657ERGO    C2 9640   4.219   3.219   7.634 -0.1358  0.2049 -0.1123
  658ERGO   ROH 9641  15.284   0.649   9.931  0.3003  0.0158  0.0860
  658ERGO    R1 9642  15.285   0.796   9.689  0.1859  0.0833  0.1252
  658ERGO    R2 9643  15.514   0.911   9.586  0.1672 -0.0039 -0.0228
  658ERGO    R3 9644  15.446   0.769   9.364 -0.0801  0.0899 -0.0095
  658ERGO    R4 9645  15.577   1.010   9.261  0.0979 -0.0226 -0.0414
  658ERGO    R5 9646  15.380   0.935   9.205 -0.0016  0.1731  0.0464
  658ERGO    C1 9647  15.549   0.935   8.863 -0.1746  0.0545 -0.0399
  658ERGO    C2 9648  15.607   0.781   8.509  0.0800 -0.1287  0.0085
  659ERGO   ROH 9649   2.687  13.912   8.552  0.1263 -0.3086 -0.0195
  659ERGO    R1 9650   2.648  13.776   8.307  0.0127 -0.2169 -0.0548
  659ERGO    R2 9651   2.414  13.641   8.247 -0.0700 -0.0925 -0.0527
  659ERGO    R3 9652   2.417  13.799   8.026 -0.0350 -0.0189  0.0019
  659ERGO    R4 9653   2.288  13.551   7.938  0.2083 -0.0712 -0.1731
  659ERGO    R5 9654   2.460  13.648   7.846  0.1953  0.0813 -0.0221
  659ERGO    C1 9655   2.219  13.646   7.550  0.4033  0.0102 -0.1919
  659ERGO    C2 9656   2.125  13.638   7.200  0.1761  0.3407  0.0530
  660ERGO   ROH 9657  12.730   5.531   8.765 -0.1543  0.0311  0.2424
  660ERGO    R1 9658  12.825   5.553   8.500 -0.2028  0.1909  0.2356
  660ERGO    R2 9659  12.906   5.334   8.352  0.1745  0.3149  0.2325
  660ERGO    R3 9660  12.726   5.430   8.172 -0.0121  0.0042  0.2488
  660ERGO    R4 9661  12.938   5.310   8.008  0.1198  0.2897  0.2302
  660ERGO    R5 9662  12.860   5.513   7.992 -0.1869  0.1654  0.1990
  660ERGO    C1 9663  12.787   5.386   7.640 -0.0872 -0.0167  0.2441
  660ERGO    C2 9664  12.819   5.199   7.328  0.0419  0.1911  0.2753
  661ERGO   ROH 9665  10.933  17.011   9.683 -0.4693 -0.0043 -0.2193
  661ERGO    R1 9666  10.977  17.238   9.520 -0.0878  0.0114 -0.1042
  661ERGO    R2 9667  11.231  17.334   9.463  0.0749 -0.3111  0.0413
  661ERGO    R3 9668  11.148  17.308   9.206  0.1400 -0.0858 -0.0039
  661ERGO    R4 9669  11.436  17.353   9.187  0.1644 -0.2086  0.1146
  661ERGO    R5 9670  11.280  17.466   9.085  0.2501 -0.0616  0.1483
  661ERGO    C1 9671  11.478  17.341   8.783  0.2778  0.0626  0.1148
  661ERGO    C2 9672  11.569  17.272   8.455  0.0944 -0.0075  0.1758
  662ERGO   ROH 9673   5.513  12.256   9.456 -0.0799 -0.2837  0.1323
  662ERGO    R1 9674   5.585  12.003   9.352 -0.0271 -0.1290 -0.2266
  662ERGO    R2 9675   5.760  11.973   9.140  0.2501  0.1956 -0.0589
  662ERGO    R3 9676   5.891  11.810   9.314 -0.0357 -0.1541 -0.1591
  662ERGO    R4 9677   6.017  11.758   9.055  0.1383  0.0839 -0.1171
  662ERGO    R5 9678   5.932  11.610   9.190 -0.1032 -0.0254 -0.3879
  662ERGO    C1 9679   6.290  11.481   9.169 -0.1951 -0.3095 -0.2451
  662ERGO    C2 9680   6.513  11.305   8.992 -0.0489 -0.1506 -0.2882
  663ERGO   ROH 9681  18.675  16.022   9.114 -0.0489 -0.0298 -0.1064
  663ERGO    R1 9682  18.670  16.097   8.841 -0.2288 -0.0728 -0.1155
  663ERGO    R2 9683  18.873  16.033   8.665 -0.2203  0.1232 -0.1789
  663ERGO    R3 9684  18.670  15.925   8.520 -0.1589 -0.1192 -0.0906
  663ERGO    R4 9685  18.902  15.920   8.340 -0.2542  0.2548 -0.2288
  663ERGO    R5 9686  18.707  16.007   8.298 -0.4031 -0.0036 -0.0903
  663ERGO    C1 9687  18.729  15.753   8.014 -0.2160  0.1040 -0.1749
  663ERGO    C2 9688  18.848  15.477   7.678 -0.1557 -0.3735 -0.0797
  664ERGO   ROH 9689   3.327   2.588   8.968  0.0130  0.2343 -0.0637
  664ERGO    R1 9690   3.265   2.494   8.709 -0.1649  0.0142  0.0533
  664ERGO    R2 9691   3.012   2.513   8.601 -0.1462  0.3451  0.0387
  664ERGO    R3 9692   3.142   2.639   8.398  0.0928 -0.1435 -0.1236
  664ERGO    R4 9693   2.887   2.554   8.281 -0.2100  0.4659  0.0798
  664ERGO    R5 9694   3.086   2.511   8.203 -0.3605 -0.1311 -0.0054
  664ERGO    C1 9695   2.936   2.696   7.904 -0.0227  0.0775 -0.0485
  664ERGO    C2 9696   2.684   2.571   7.557 -0.1441  0.0281 -0.0290
  665ERGO   ROH 9697   3.271   6.096   8.915  0.1215 -0.0214  0.0147
  665ERGO    R1 9698   3.104   6.209   8.716  0.0273 -0.1308  0.0314
  665ERGO    R2 9699   3.177   6.432   8.570 -0.1312 -0.0891  0.0219
  665ERGO    R3 9700   3.124   6.270   8.358 -0.0540 -0.1229  0.0268
  665ERGO    R4 9701   3.200   6.527   8.239 -0.0366 -0.1238  0.0177
  665ERGO    R5 9702   3.018   6.415   8.199 -0.0194 -0.1467 -0.0233
  665ERGO    C1 9703   3.164   6.431   7.847  0.0911 -0.1758  0.0199
  665ERGO    C2 9704   3.150   6.724   7.628 -0.0184  0.4144 -0.1328
  666ERGO   ROH 9705  10.196  18.962   9.412  0.1093  0.1709 -0.0042
  666ERGO    R1 9706  10.184  18.908   9.135  0.0451  0.1742 -0.0022
  666ERGO    R2 9707  10.276  18.672   9.025  0.0795  0.2026 -0.0344
  666ERGO    R3 9708  10.025  18.660   8.921  0.0529  0.1351  0.0369
  666ERGO    R4 9709  10.190  18.504   8.735 -0.0262 -0.1423  0.1909
  666ERGO    R5 9710  10.058  18.670   8.684  0.0040 -0.1699  0.0124
  666ERGO    C1 9711   9.904  18.395   8.469 -0.1127 -0.4062  0.3892
  666ERGO    C2 9712   9.806  18.150   8.207  0.0648 -0.3032  0.0146
  667ERGO   ROH 9713   8.030   2.564   9.037 -0.3008  0.1186 -0.1022
  667ERGO    R1 9714   8.122   2.422   8.811 -0.0513  0.2126 -0.0608
  667ERGO    R2 9715   7.958   2.356   8.598  0.0750 -0.0884 -0.0617
  667ERGO    R3 9716   8.149   2.483   8.453 -0.1023  0.1765 -0.0732
  667ERGO    R4 9717   7.970   2.366   8.253  0.2034 -0.3627 -0.0679
  667ERGO    R5 9718   8.186   2.340   8.265  0.2670  0.0745  0.0607
  667ERGO    C1 9719   8.157   2.490   7.915  0.1117 -0.2737 -0.0824
  667ERGO    C2 9720   8.192   2.599   7.673  0.0439  0.1077  0.2039
  668ERGO   ROH 9721   6.007   4.633   8.857  0.1833 -0.1792  0.0786
  668ERGO    R1 9722   6.072   4.667   8.584  0.0838 -0.0308  0.0742
  668ERGO    R2 9723   6.023   4.473   8.393  0.0679  0.0555  0.0018
  668ERGO    R3 9724   5.890   4.675   8.269 -0.0192  0.0820  0.1321
  668ERGO    R4 9725   5.934   4.477   8.059  0.0126  0.1852  0.0162
  668ERGO    R5 9726   5.989   4.687   8.051 -0.0514  0.2176  0.1153
  668ERGO    C1 9727   5.758   4.669   7.748 -0.1015  0.2857  0.1470
  668ERGO    C2 9728   5.685   4.849   7.457  0.0832 -0.0197 -0.2357
  669ERGO   ROH 9729   9.126   8.645   9.093 -0.3461  0.1095 -0.1386
  669ERGO    R1 9730   9.014   8.456   8.915 -0.2324  0.2293 -0.3440
  669ERGO    R2 9731   9.030   8.482   8.639  0.2977  0.2133 -0.3311
  669ERGO    R3 9732   9.137   8.232   8.655  0.0072  0.0989 -0.1207
  669ERGO    R4 9733   9.044   8.255   8.379  0.2275  0.0492 -0.1920
  669ERGO    R5 9734   8.993   8.097   8.519 -0.0468  0.1841 -0.1411
  669ERGO    C1 9735   9.151   7.889   8.242 -0.0863 -0.1538  0.0865
  669ERGO    C2 9736   9.088   7.772   7.869 -0.0863  0.0687 -0.1149
  670ERGO   ROH 9737  13.994  16.760   9.914  0.0074  0.2562 -0.0180
  670ERGO    R1 9738  14.112  16.656   9.679 -0.1687  0.0809 -0.0327
  670ERGO    R2 9739  13.982  16.653   9.436 -0.1615  0.3872 -0.0490
  670ERGO    R3 9740  14.206  16.783   9.351  0.1019 -0.0124  0.0073
  670ERGO    R4 9741  14.068  16.703   9.104 -0.1750  0.5557 -0.0277
  670ERGO    R5 9742  14.275  16.661   9.157 -0.2418  0.0372 -0.1495
  670ERGO    C1 9743  14.327  16.854   8.832  0.0646  0.2787  0.0376
  670ERGO    C2 9744  14.152  16.778   8.621 -0.3013  0.2141  0.1081
  671ERGO   ROH 9745  17.445  13.306   9.762 -0.1687 -0.0132 -0.0177
  671ERGO    R1 9746  17.545  13.367   9.504 -0.2559  0.1657 -0.0107
  671ERGO    R2 9747  17.606  13.173   9.318  0.1341  0.2655  0.0017
  671ERGO    R3 9748  17.437  13.316   9.160 -0.1289 -0.0557 -0.0178
  671ERGO    R4 9749  17.602  13.161   8.973  0.0839  0.1454  0.0064
  671ERGO    R5 9750  17.571  13.377   8.971 -0.2635  0.0976 -0.0625
  671ERGO    C1 9751  17.440  13.288   8.623 -0.1921 -0.2261 -0.0092
  671ERGO    C2 9752  17.319  13.377   8.313 -0.0863 -0.1062  0.0903
  672ERGO   ROH 9753   8.770  14.368   9.675  0.1747  0.0279  0.0131
  672ERGO    R1 9754   8.918  14.374   9.434  0.0231  0.0975 -0.0791
  672ERGO    R2 9755   9.019  14.146   9.315  0.1069  0.1515 -0.1091
  672ERGO    R3 9756   8.882  14.237   9.099 -0.0884  0.0287 -0.0403
  672ERGO    R4 9757   9.052  14.021   8.995  0.1175  0.2275 -0.1377
  672ERGO    R5 9758   9.041  14.226   8.919 -0.1447  0.2306 -0.1079
  672ERGO    C1 9759   8.943  14.034   8.604 -0.0595  0.1565 -0.0897
  672ERGO    C2 9760   8.930  14.025   8.332  0.2984 -0.2487  0.2357
  673ERGO   ROH 9761   6.832   2.624   9.560  0.1781 -0.1702 -0.0507
  673ERGO    R1 9762   6.702   2.660   9.311 -0.0420 -0.3054  0.0398
  673ERGO    R2 9763   6.817   2.801   9.102 -0.4155 -0.0178  0.0119
  673ERGO    R3 9764   6.769   2.572   8.964 -0.0925 -0.0611 -0.0321
  673ERGO    R4 9765   6.861   2.763   8.762 -0.3738  0.1087  0.0040
  673ERGO    R5 9766   6.677   2.646   8.756 -0.2062 -0.1537 -0.0121
  673ERGO    C1 9767   6.842   2.526   8.434 -0.0462  0.1417 -0.0419
  673ERGO    C2 9768   6.738   2.497   8.166 -0.2078  0.0203 -0.1289
  674ERGO   ROH 9769  18.221  15.100   9.280 -0.1475 -0.0385 -0.0584
  674ERGO    R1 9770  18.103  15.102   9.022 -0.0315 -0.0100 -0.1117
  674ERGO    R2 9771  18.162  15.295   8.833  0.0645  0.0023 -0.0677
  674ERGO    R3 9772  18.218  15.079   8.678  0.1223  0.0129 -0.0626
  674ERGO    R4 9773  18.103  15.275   8.493  0.1962  0.0283 -0.0930
  674ERGO    R5 9774  18.037  15.069   8.521  0.1823  0.0267 -0.1339
  674ERGO    C1 9775  18.122  15.061   8.150  0.3270  0.0535 -0.1029
  674ERGO    C2 9776  17.900  15.007   7.942  0.1595  0.0609 -0.0233
  675PSPI    C1 9777   5.955   2.551   5.360 -0.0935  0.2186 -0.1563
  675PSPI    C2 9778   5.683   2.271   5.274 -0.0710  0.1572 -0.0314
  675PSPI    C3 9779   6.073   2.185   5.251 -0.0649  0.1417  0.1254
  675PSPI   PO4 9780   6.057   2.593   5.608 -0.2807  0.2908 -0.0520
  675PSPI   GL1 9781   5.892   2.796   5.998 -0.1813  0.2469 -0.0385
  675PSPI   GL2 9782   6.057   3.009   6.055 -0.0405 -0.2336 -0.2356
  675PSPI   C1A 9783   5.583   2.915   6.251 -0.1564 -0.0302  0.1566
  675PSPI   C2A 9784   5.580   2.741   6.670 -0.0984  0.1648 -0.0560
  675PSPI   C3A 9785   5.799   2.805   7.005 -0.1625  0.2113 -0.1649
  675PSPI   C4A 9786   5.968   3.238   7.141  0.1229  0.0750 -0.1097
  675PSPI   C1B 9787   5.799   3.421   6.200  0.0315  0.2733  0.1742
  675PSPI   C2B 9788   5.530   3.719   6.486  0.2244 -0.2483 -0.0164
  675PSPI   C3B 9789   5.159   3.757   6.810  0.1960 -0.1347 -0.0031
  675PSPI   C4B 9790   5.126   4.100   7.176  0.1008  0.3270  0.3354
  676PSPI    C1 9791   5.865  11.785   5.528 -0.2328 -0.0578 -0.3388
  676PSPI    C2 9792   6.033  11.461   5.364  0.0262 -0.1146  0.0263
  676PSPI    C3 9793   6.223  11.813   5.351 -0.0074 -0.0936  0.0978
  676PSPI   PO4 9794   5.583  11.693   5.561 -0.0373  0.0107 -0.0881
  676PSPI   GL1 9795   5.296  11.571   5.820 -0.3230  0.0309  0.5243
  676PSPI   GL2 9796   4.926  11.374   5.858  0.1137 -0.2703  0.1832
  676PSPI   C1A 9797   5.367  11.568   6.264  0.2254 -0.4496 -0.1056
  676PSPI   C2A 9798   5.225  11.478   6.691 -0.1279 -0.0271  0.1301
  676PSPI   C3A 9799   5.317  11.527   7.103  0.0588 -0.0178  0.0411
  676PSPI   C4A 9800   5.360  11.518   7.530  0.0480  0.1287 -0.4529
  676PSPI   C1B 9801   4.865  11.372   6.315 -0.0058  0.1367 -0.0791
  676PSPI   C2B 9802   4.812  11.244   6.689  0.2079 -0.3013 -0.2242
  676PSPI   C3B 9803   4.635  11.213   7.089  0.1089  0.0188  0.0170
  676PSPI   C4B 9804   4.566  11.058   7.600  0.0402  0.0217  0.0104
  677PSPI    C1 9805  16.556   0.784   5.322  0.0333 -0.2532  0.0365
  677PSPI    C2 9806  16.703   0.679   4.965  0.0410  0.1573 -0.0854
  677PSPI    C3 9807  16.396   0.935   4.988 -0.0850 -0.0150  0.1980
  677PSPI   PO4 9808  16.638   0.632   5.483  0.0908  0.1874  0.1603
  677PSPI   GL1 9809  16.743   0.552   5.857  0.0325 -0.1008  0.2321
  677PSPI   GL2 9810  16.797   0.173   5.834  0.3363  0.0080  0.2734
  677PSPI   C1A 9811  17.075   0.742   6.011 -0.1016 -0.0912 -0.0463
  677PSPI   C2A 9812  17.319   0.879   6.434  0.0902 -0.2107  0.0632
  677PSPI   C3A 9813  17.341   1.068   6.906 -0.2499 -0.2074 -0.0974
  677PSPI   C4A 9814  17.325   1.032   7.326 -0.6163  0.0711  0.1083
  677PSPI   C1B 9815  16.734   0.288   6.255 -0.5920  0.0312  0.0215
  677PSPI   C2B 9816  16.826   0.285   6.692 -0.0610  0.0252 -0.0915
  677PSPI   C3B 9817  17.052   0.136   7.074 -0.2513 -0.2052 -0.1561
  677PSPI   C4B 9818  17.449  -0.035   7.257  0.0818 -0.0199 -0.1029
  678PSPI    C1 9819  14.877  17.394   5.784 -0.1351 -0.0308  0.0937
  678PSPI    C2 9820  14.611  17.409   5.486 -0.1730  0.0286  0.1304
  678PSPI    C3 9821  14.784  17.745   5.617  0.0099 -0.0233  0.0266
  678PSPI   PO4 9822  14.743  17.270   6.004 -0.1902 -0.1317  0.0844
  678PSPI   GL1 9823  14.789  17.425   6.385  0.3508 -0.1241  0.1524
  678PSPI   GL2 9824  14.382  17.350   6.388  0.3399  0.1193  0.1294
  678PSPI   C1A 9825  14.787  17.654   6.719  0.3161 -0.0699  0.0549
  678PSPI   C2A 9826  14.519  17.593   7.147  0.1035  0.1715 -0.2013
  678PSPI   C3A 9827  14.222  17.767   7.465  0.1175  0.0039 -0.5209
  678PSPI   C4A 9828  14.125  18.140   7.742 -0.1048 -0.2374  0.3125
  678PSPI   C1B 9829  14.166  17.558   6.737  0.3006 -0.1823 -0.0504
  678PSPI   C2B 9830  13.714  17.583   7.000 -0.1325 -0.1289  0.3212
  678PSPI   C3B 9831  13.470  17.548   7.305 -0.1347  0.1571 -0.1082
  678PSPI   C4B 9832  13.236  17.558   7.571 -0.1625 -0.1427 -0.1324
  679PSPI    C1 9833  16.828  12.551   5.617 -0.1302 -0.1722 -0.1403
  679PSPI    C2 9834  16.623  12.655   5.290 -0.2923 -0.1011 -0.0171
  679PSPI    C3 9835  16.533  12.819   5.643 -0.0700 -0.1233  0.0511
  679PSPI   PO4 9836  16.868  12.336   5.650 -0.0578  0.2528 -0.1959
  679PSPI   GL1 9837  16.850  12.169   5.984  0.3784  0.3728 -0.0170
  679PSPI   GL2 9838  17.134  12.284   6.102  0.1637 -0.0242 -0.1657
  679PSPI   C1A 9839  17.024  12.207   6.579  0.0934 -0.2918  0.0487
  679PSPI   C2A 9840  17.224  12.305   6.903  0.0035  0.0325  0.1178
  679PSPI   C3A 9841  17.427  12.523   7.270  0.1312 -0.1068 -0.1071
  679PSPI   C4A 9842  17.691  12.875   7.520  0.5249  0.2754 -0.1293
  679PSPI   C1B 9843  17.332  11.944   6.342 -0.2067 -0.3380 -0.2696
  679PSPI   C2B 9844  17.172  11.620   6.486 -0.2297  0.0135  0.0400
  679PSPI   C3B 9845  17.346  11.228   6.633 -0.0514 -0.0841 -0.0600
  679PSPI   C4B 9846  17.416  10.844   6.757  0.0620 -0.2618 -0.0069
  680PSPI    C1 9847  14.058  12.112   5.722 -0.1687 -0.0855 -0.0625
  680PSPI    C2 9848  14.123  12.500   5.652 -0.0950 -0.0556  0.1630
  680PSPI    C3 9849  14.432  12.254   5.715 -0.1373 -0.1668 -0.0532
  680PSPI   PO4 9850  13.796  12.092   5.938  0.5365  0.1910 -0.3594
  680PSPI   GL1 9851  13.530  11.992   6.240 -0.3849 -0.0267  0.0433
  680PSPI   GL2 9852  13.717  12.369   6.314  0.4150  0.3688  0.0084
  680PSPI   C1A 9853  13.535  11.932   6.670  0.1535 -0.3228 -0.2173
  680PSPI   C2A 9854  13.495  11.882   7.081  0.0768 -0.0408  0.2000
  680PSPI   C3A 9855  13.211  11.749   7.353  0.0776  0.4930 -0.2581
  680PSPI   C4A 9856  12.783  11.747   7.204 -0.2058  0.3592 -0.2665
  680PSPI   C1B 9857  13.867  12.354   6.833  0.0830 -0.3130  0.0677
  680PSPI   C2B 9858  13.822  12.271   7.303 -0.1842 -0.1569 -0.3017
  680PSPI   C3B 9859  13.612  12.109   7.603 -0.0889 -0.2260  0.2962
  680PSPI   C4B 9860  13.219  12.084   7.795 -0.2592 -0.2275 -0.1286
  681PSPI    C1 9861   7.685   7.880   5.074  0.0840  0.2132  0.0544
  681PSPI    C2 9862   7.366   8.096   5.182 -0.0736  0.0345 -0.0473
  681PSPI    C3 9863   7.612   8.232   4.898 -0.1057  0.1340 -0.0282
  681PSPI   PO4 9864   7.544   7.573   5.170 -0.2702  0.0426 -0.0255
  681PSPI   GL1 9865   7.482   7.260   5.386 -0.0457  0.0814  0.2420
  681PSPI   GL2 9866   7.788   7.156   5.570  0.1240  0.0034 -0.0241
  681PSPI   C1A 9867   7.233   7.332   5.723  0.0775  0.1912  0.2379
  681PSPI   C2A 9868   7.150   7.212   6.072 -0.0760 -0.1472  0.2368
  681PSPI   C3A 9869   7.113   7.126   6.428 -0.4829  0.2168 -0.1862
  681PSPI   C4A 9870   7.420   6.871   6.705 -0.1155 -0.2166  0.1941
  681PSPI   C1B 9871   7.659   7.480   5.903  0.1719 -0.0676  0.2192
  681PSPI   C2B 9872   7.609   7.695   6.306  0.1070 -0.0505 -0.0625
  681PSPI   C3B 9873   7.455   8.035   6.554  0.3430 -0.4547 -0.0432
  681PSPI   C4B 9874   6.976   8.154   6.744  0.3683 -0.0858  0.0380
  682PSPI    C1 9875   8.850   3.677   5.253 -0.0848  0.2092 -0.0696
  682PSPI    C2 9876   8.884   3.477   4.909 -0.1596  0.0302  0.0255
  682PSPI    C3 9877   8.911   3.876   4.912  0.0017  0.0224 -0.1644
  682PSPI   PO4 9878   9.073   3.447   5.447 -0.3115 -0.0324 -0.1024
  682PSPI   GL1 9879   9.146   3.404   5.813  0.1007  0.1118  0.1941
  682PSPI   GL2 9880   9.372   3.093   5.973  0.2467 -0.2382 -0.1718
  682PSPI   C1A 9881   9.514   3.641   5.976 -0.0865 -0.0443 -0.2468
  682PSPI   C2A 9882   9.778   3.292   6.260 -0.1188 -0.1228 -0.2154
  682PSPI   C3A 9883   9.827   2.836   6.244  0.1284 -0.0667  0.1010
  682PSPI   C4A 9884   9.693   2.447   6.463 -0.0540 -0.0720 -0.0147
  682PSPI   C1B 9885   9.254   3.316   6.321  0.1489  0.1798 -0.2074
  682PSPI   C2B 9886   9.157   3.316   6.725 -0.1791 -0.0029 -0.1628
  682PSPI   C3B 9887   9.252   3.539   7.041 -0.1069 -0.0489  0.0053
  682PSPI   C4B 9888   9.421   3.831   7.328  0.0380  0.0601 -0.0268
  683PSPI    C1 9889  11.109  17.570   5.617  0.0408  0.0769 -0.0482
  683PSPI    C2 9890  10.946  17.708   5.278 -0.0706 -0.1684 -0.0961
  683PSPI    C3 9891  11.060  17.325   5.304 -0.0072 -0.1362  0.1240
  683PSPI   PO4 9892  11.369  17.826   5.715 -0.0531 -0.2703 -0.1754
  683PSPI   GL1 9893  11.591  17.832   6.193  0.3593 -0.1375 -0.3023
  683PSPI   GL2 9894  11.816  18.028   6.310 -0.2988  0.2818  0.1814
  683PSPI   C1A 9895  11.374  18.124   6.492 -0.3271  0.0808  0.0895
  683PSPI   C2A 9896  11.295  18.031   6.972  0.0421  0.0611  0.3084
  683PSPI   C3A 9897  11.457  18.153   7.319  0.0922  0.2792  0.0759
  683PSPI   C4A 9898  11.284  18.394   7.656 -0.6276 -0.4050  0.0250
  683PSPI   C1B 9899  11.855  17.958   6.745 -0.1805 -0.0105  0.1054
  683PSPI   C2B 9900  11.911  18.051   7.159 -0.1001  0.1200 -0.4259
  683PSPI   C3B 9901  11.972  18.059   7.587 -0.2579 -0.1059 -0.0147
  683PSPI   C4B 9902  11.951  18.297   7.899  0.3304 -0.1688 -0.1250
  684PSPI    C1 9903  11.150   4.142   5.324 -0.0482 -0.0472 -0.4886
  684PSPI    C2 9904  11.023   4.483   5.490  0.1166 -0.2625  0.1040
  684PSPI    C3 9905  11.186   4.488   5.125 -0.1547  0.2423 -0.0210
  684PSPI   PO4 9906  10.880   3.921   5.405  0.1373 -0.0354  0.0880
  684PSPI   GL1 9907  10.763   3.962   5.804  0.0946  0.1090 -0.1418
  684PSPI   GL2 9908  11.121   3.809   5.817  0.2030  0.1958 -0.2989
  684PSPI   C1A 9909  10.529   3.796   6.060  0.4694  0.0007 -0.1366
  684PSPI   C2A 9910  10.111   3.668   6.076 -0.0068  0.1244  0.2201
  684PSPI   C3A 9911   9.913   3.842   6.428 -0.0434  0.3610  0.0227
  684PSPI   C4A 9912   9.470   3.709   6.602 -0.2614 -0.1911  0.0973
  684PSPI   C1B 9913  11.014   3.796   6.190 -0.4106 -0.0210 -0.1769
  684PSPI   C2B 9914  10.802   3.662   6.450  0.2546 -0.0860  0.1935
  684PSPI   C3B 9915  10.642   3.377   6.746  0.0426  0.2703  0.0290
  684PSPI   C4B 9916  10.695   3.122   7.152  0.2535  0.2416 -0.1943
  685PSPI    C1 9917   2.972   3.411   4.664 -0.1846 -0.1061 -0.0001
  685PSPI    C2 9918   2.913   3.675   4.370  0.0670 -0.0679 -0.0178
  685PSPI    C3 9919   3.008   3.297   4.282  0.3813  0.0008  0.0136
  685PSPI   PO4 9920   3.167   3.587   4.932  0.2713 -0.0810 -0.0819
  685PSPI   GL1 9921   3.059   3.551   5.505  0.1553 -0.2365  0.2137
  685PSPI   GL2 9922   3.299   3.372   5.383  0.2249  0.1808 -0.1488
  685PSPI   C1A 9923   3.112   3.699   5.929  0.2095  0.0654 -0.1227
  685PSPI   C2A 9924   3.025   4.109   6.109  0.2831  0.0408  0.0612
  685PSPI   C3A 9925   2.705   4.168   6.446  0.4368 -0.0179 -0.2180
  685PSPI   C4A 9926   2.560   3.919   6.811 -0.2914  0.0411  0.2571
  685PSPI   C1B 9927   3.389   3.254   5.749  0.1293  0.1991  0.0878
  685PSPI   C2B 9928   3.388   3.349   6.107 -0.0364  0.1773  0.1003
  685PSPI   C3B 9929   3.294   3.683   6.379 -0.1326  0.0569  0.2149
  685PSPI   C4B 9930   3.059   3.924   6.592 -0.0377 -0.0827 -0.3338
  686PSPI    C1 9931   5.592  16.592   4.776  0.1312 -0.2401 -0.1693
  686PSPI    C2 9932   5.610  16.205   4.677 -0.0339 -0.2503 -0.1615
  686PSPI    C3 9933   5.279  16.416   4.599 -0.0164 -0.1588  0.0077
  686PSPI   PO4 9934   5.703  16.612   5.080  0.2890 -0.1303 -0.0482
  686PSPI   GL1 9935   5.788  16.809   5.455 -0.1898  0.1104 -0.2004
  686PSPI   GL2 9936   5.503  16.972   5.509  0.1181 -0.0938 -0.2492
  686PSPI   C1A 9937   6.105  16.940   5.784  0.1525 -0.3392  0.1601
  686PSPI   C2A 9938   6.098  16.991   6.202 -0.0722 -0.2825 -0.1090
  686PSPI   C3A 9939   5.876  16.942   6.565 -0.4394  0.1335  0.0817
  686PSPI   C4A 9940   5.632  16.937   6.991  0.0678  0.1837  0.0449
  686PSPI   C1B 9941   5.596  17.305   5.700 -0.1582  0.0016  0.0657
  686PSPI   C2B 9942   5.629  17.300   6.200  0.3072  0.1624  0.2017
  686PSPI   C3B 9943   5.622  17.332   6.589 -0.2508  0.0294  0.2408
  686PSPI   C4B 9944   5.520  17.550   6.978 -0.2340  0.1607  0.3522
  687PSPI    C1 9945  16.409   2.215   5.721 -0.1302 -0.1448  0.0182
  687PSPI    C2 9946  16.551   2.443   5.424 -0.0590  0.1319  0.2599
  687PSPI    C3 9947  16.158   2.372   5.451 -0.0331 -0.1832 -0.0955
  687PSPI   PO4 9948  16.602   2.390   5.904  0.0251  0.1815 -0.1995
  687PSPI   GL1 9949  16.578   2.172   6.287 -0.0780 -0.4398  0.1901
  687PSPI   GL2 9950  16.255   2.247   6.267  0.1768 -0.1843  0.2408
  687PSPI   C1A 9951  16.781   2.137   6.649 -0.1351 -0.0926  0.0540
  687PSPI   C2A 9952  16.804   1.911   7.061  0.0516  0.4356 -0.1254
  687PSPI   C3A 9953  17.055   1.816   7.475 -0.2288 -0.1292  0.1359
  687PSPI   C4A 9954  17.212   1.571   7.940 -0.0911  0.0616 -0.1710
  687PSPI   C1B 9955  16.057   2.451   6.577 -0.0377 -0.2636  0.2382
  687PSPI   C2B 9956  15.956   2.440   6.999  0.4350 -0.0421  0.4852
  687PSPI   C3B 9957  15.769   2.457   7.527  0.2420  0.1935 -0.2180
  687PSPI   C4B 9958  15.740   2.662   7.858  0.3637  0.2979 -0.1279
  688PSPI    C1 9959  17.480   7.012   5.751  0.0330 -0.0476 -0.0659
  688PSPI    C2 9960  17.702   7.292   5.572 -0.0495  0.0783  0.0271
  688PSPI    C3 9961  17.621   6.950   5.381  0.1755  0.0547 -0.0295
  688PSPI   PO4 9962  17.257   7.234   5.780  0.2166  0.1381  0.0799
  688PSPI   GL1 9963  17.114   7.491   6.133 -0.1496 -0.3020 -0.3726
  688PSPI   GL2 9964  16.836   7.312   6.001  0.0726 -0.1047 -0.0133
  688PSPI   C1A 9965  17.050   7.172   6.445  0.2847 -0.0028  0.0391
  688PSPI   C2A 9966  17.056   7.131   6.907  0.0731  0.1806 -0.0158
  688PSPI   C3A 9967  17.099   6.818   7.262 -0.0275  0.2026  0.1059
  688PSPI   C4A 9968  16.904   6.432   7.401 -0.1507  0.0495  0.1367
  688PSPI   C1B 9969  16.646   7.488   6.423 -0.0886 -0.3368 -0.4108
  688PSPI   C2B 9970  16.563   7.371   6.854  0.0983  0.0107 -0.0555
  688PSPI   C3B 9971  16.432   7.417   7.188  0.1715  0.0540 -0.0862
  688PSPI   C4B 9972  16.397   7.611   7.588 -0.0847 -0.2371 -0.0930
  689PSPI    C1 9973  14.003   7.043   5.189  0.0789  0.3045 -0.3833
  689PSPI    C2 9974  14.392   6.962   5.140  0.0776  0.2532 -0.3115
  689PSPI    C3 9975  14.132   6.665   5.208  0.0523  0.3043 -0.1809
  689PSPI   PO4 9976  14.009   7.344   5.343  0.0474 -0.0691  0.1831
  689PSPI   GL1 9977  13.904   7.346   5.674  0.0816 -0.2594 -0.1114
  689PSPI   GL2 9978  13.771   7.159   5.818  0.1666  0.0748  0.0722
  689PSPI   C1A 9979  14.306   7.600   5.904 -0.0393  0.0136  0.1467
  689PSPI   C2A 9980  14.727   7.575   6.158  0.1361 -0.3575  0.2536
  689PSPI   C3A 9981  14.792   7.466   6.573 -0.0601 -0.2140  0.1652
  689PSPI   C4A 9982  14.628   7.281   6.897 -0.0807  0.3140  0.0038
  689PSPI   C1B 9983  13.525   7.056   6.145  0.0043 -0.1438 -0.1527
  689PSPI   C2B 9984  13.583   6.703   6.438  0.3094 -0.2063 -0.1286
  689PSPI   C3B 9985  13.310   6.639   6.775 -0.0186  0.2155  0.0569
  689PSPI   C4B 9986  13.358   6.878   7.237 -0.0194 -0.0327  0.2734
  690PSPI    C1 9987  15.758  17.067   6.009  0.0286  0.1485 -0.0929
  690PSPI    C2 9988  15.918  17.255   5.694  0.0520  0.0872 -0.1179
  690PSPI    C3 9989  16.133  16.984   5.895 -0.1126 -0.2005 -0.3225
  690PSPI   PO4 9990  15.570  16.905   5.941 -0.1258  0.0895 -0.2362
  690PSPI   GL1 9991  15.408  16.683   6.367  0.0807 -0.0788  0.1667
  690PSPI   GL2 9992  15.330  16.418   6.182  0.0191 -0.0675 -0.0812
  690PSPI   C1A 9993  15.311  16.685   6.797  0.0014 -0.3912 -0.1850
  690PSPI   C2A 9994  15.478  16.824   7.141  0.2616  0.0937  0.1966
  690PSPI   C3A 9995  15.683  16.837   7.568 -0.2002  0.0679  0.2432
  690PSPI   C4A 9996  15.743  17.132   7.939 -0.0720 -0.0185 -0.1552
  690PSPI   C1B 9997  15.577  16.241   6.577 -0.1323  0.1183 -0.0411
  690PSPI   C2B 9998  15.728  16.210   6.945  0.2201  0.0019  0.3262
  690PSPI   C3B 9999  15.822  16.456   7.252 -0.2639 -0.0222 -0.1695
  690PSPI   C4B10000  16.011  16.493   7.536 -0.0491 -0.4049  0.2357
  691PSPI    C110001   8.018  16.534   5.628 -0.0119  0.2746  0.1078
  691PSPI    C210002   8.342  16.745   5.525  0.1550 -0.0620 -0.0785
  691PSPI    C310003   8.083  16.626   5.244  0.1934 -0.3133 -0.0095
  691PSPI   PO410004   8.102  16.351   5.756  0.1110  0.2034  0.1582
  691PSPI   GL110005   8.337  16.080   6.181  0.0481 -0.1374 -0.0131
  691PSPI   GL210006   8.042  16.074   6.179  0.0923 -0.3032  0.0368
  691PSPI   C1A10007   8.410  15.930   6.552 -0.1700  0.3147 -0.0056
  691PSPI   C2A10008   8.324  15.832   6.975  0.0236  0.1978 -0.0247
  691PSPI   C3A10009   8.214  15.586   7.344 -0.2176  0.0613 -0.0030
  691PSPI   C4A10010   8.264  15.618   7.731 -0.1258  0.1587  0.1459
  691PSPI   C1B10011   7.795  15.908   6.590 -0.0436 -0.3511  0.2397
  691PSPI   C2B10012   7.732  15.809   7.098  0.1952  0.1925 -0.2161
  691PSPI   C3B10013   7.916  16.080   7.402 -0.4703 -0.0015 -0.0167
  691PSPI   C4B10014   7.929  16.500   7.484 -0.1327  0.2325 -0.1095
  692PSPI    C110015  17.330  15.592   5.010 -0.0749 -0.0806 -0.0163
  692PSPI    C210016  17.717  15.672   4.948 -0.0908 -0.0067 -0.0213
  692PSPI    C310017  17.556  15.338   4.799 -0.0439 -0.0064 -0.0734
  692PSPI   PO410018  17.352  15.686   5.326 -0.0633 -0.0158 -0.0949
  692PSPI   GL110019  17.451  15.588   5.775 -0.4703  0.1141 -0.0005
  692PSPI   GL210020  17.654  15.504   5.827 -0.3983  0.1660 -0.0780
  692PSPI   C1A10021  17.171  15.325   6.042 -0.0314  0.0547 -0.4647
  692PSPI   C2A10022  17.150  15.143   6.498 -0.2021 -0.1603  0.2023
  692PSPI   C3A10023  17.266  15.000   6.980  0.2042  0.3914  0.1171
  692PSPI   C4A10024  17.318  14.734   7.350 -0.0694  0.1024  0.0630
  692PSPI   C1B10025  17.640  15.155   6.088 -0.3114 -0.1440  0.2335
  692PSPI   C2B10026  17.620  15.208   6.566 -0.3076  0.0890 -0.3266
  692PSPI   C3B10027  17.782  15.060   6.997 -0.0561 -0.1220  0.3625
  692PSPI   C4B10028  18.067  15.038   7.270  0.0305  0.3026  0.0191
  693PSPI    C110029  18.719   6.531   5.162  0.1365  0.1283  0.1475
  693PSPI    C210030  18.701   6.151   5.041  0.1554  0.1422  0.1007
  693PSPI    C310031  18.716   6.445   4.771  0.3061  0.1681  0.1363
  693PSPI   PO410032  18.700   6.512   5.370  0.2911  0.0657  0.0847
  693PSPI   GL110033  18.816   6.592   5.801 -0.3112 -0.3015 -0.2215
  693PSPI   GL210034  18.441   6.688   5.859  0.0991  0.0254  0.0354
  693PSPI   C1A10035  18.798   6.727   6.176  0.0422  0.1293  0.1129
  693PSPI   C2A10036  18.744   6.636   6.589 -0.0249  0.2226  0.0889
  693PSPI   C3A10037  18.844   6.711   7.067  0.1876 -0.0103  0.0381
  693PSPI   C4A10038  18.662   7.012   7.406 -0.1072 -0.5378 -0.2441
  693PSPI   C1B10039  18.261   6.799   6.308 -0.0104 -0.2541  0.0371
  693PSPI   C2B10040  18.264   6.629   6.734 -0.4455  0.3048 -0.0880
  693PSPI   C3B10041  18.388   6.378   6.987 -0.2259  0.2591 -0.0119
  693PSPI   C4B10042  18.395   6.448   7.361  0.3089  0.0408  0.1098
  694PSPI    C110043   5.329   7.543   4.910 -0.2211  0.0031  0.1681
  694PSPI    C210044   5.530   7.885   4.857  0.0627 -0.1920 -0.0384
  694PSPI    C310045   5.145   7.862   4.753  0.0055  0.1014  0.0979
  694PSPI   PO410046   5.420   7.467   5.179  0.0935  0.0154  0.1176
  694PSPI   GL110047   5.260   7.552   5.563 -0.2303  0.2703 -0.0058
  694PSPI   GL210048   5.569   7.345   5.702 -0.1095 -0.1283 -0.1457
  694PSPI   C1A10049   4.898   7.402   5.815 -0.0616  0.2820 -0.0726
  694PSPI   C2A10050   4.637   7.294   6.196  0.0400  0.1035 -0.1305
  694PSPI   C3A10051   4.501   7.310   6.604  0.1625 -0.3668 -0.0805
  694PSPI   C4A10052   4.524   7.601   6.753 -0.1506  0.0214  0.1573
  694PSPI   C1B10053   5.313   7.251   6.004  0.1964  0.3245 -0.0429
  694PSPI   C2B10054   5.145   7.481   6.348 -0.0910  0.1195 -0.0734
  694PSPI   C3B10055   5.044   7.371   6.728  0.1743  0.1149  0.2478
  694PSPI   C4B10056   4.948   7.595   7.092 -0.0049 -0.1187 -0.4387
  695POPI    C110057  13.008   3.668   5.523 -0.0920  0.0749 -0.0055
  695POPI    C210058  13.141   3.766   5.159  0.0816 -0.0835  0.0141
  695POPI    C310059  13.337   3.892   5.485 -0.0334 -0.0004  0.0515
  695POPI   PO410060  12.752   3.748   5.614 -0.0678 -0.3628  0.6176
  695POPI   GL110061  12.514   4.013   5.766  0.1143 -0.0811 -0.3015
  695POPI   GL210062  12.571   4.246   5.828 -0.4977  0.5015 -0.2240
  695POPI   C1A10063  12.339   3.554   6.043  0.0170 -0.0364  0.0216
  695POPI   D2A10064  12.396   3.317   6.372  0.3670 -0.0736 -0.0046
  695POPI   C3A10065  12.431   3.451   6.714  0.0995 -0.0512 -0.1927
  695POPI   C4A10066  12.695   3.549   7.046  0.1028  0.3039 -0.1375
  695POPI   C1B10067  12.378   4.157   6.246  0.4799  0.1137  0.0700
  695POPI   C2B10068  12.274   4.358   6.656 -0.0895  0.1722 -0.4405
  695POPI   C3B10069  12.032   4.448   6.917  0.0637 -0.1530 -0.0282
  695POPI   C4B10070  11.784   4.796   7.222  0.1476 -0.1235  0.0374
  696POPI    C110071  11.551   6.337   4.975  0.1637  0.0668 -0.0804
  696POPI    C210072  11.834   6.215   4.720  0.0476 -0.0341 -0.1625
  696POPI    C310073  11.757   6.605   4.762  0.3247  0.0062 -0.0029
  696POPI   PO410074  11.392   6.081   5.035  0.1806  0.1397 -0.1938
  696POPI   GL110075  11.294   5.734   5.260 -0.1613 -0.2286 -0.1180
  696POPI   GL210076  10.964   5.745   5.308 -0.0998  0.0238 -0.0600
  696POPI   C1A10077  11.414   5.838   5.644  0.2437  0.0654 -0.2025
  696POPI   D2A10078  11.517   6.241   5.880 -0.0599  0.1599 -0.0852
  696POPI   C3A10079  11.299   6.395   6.321 -0.0944 -0.0746  0.2762
  696POPI   C4A10080  11.325   6.646   6.784  0.3985  0.2500 -0.1588
  696POPI   C1B10081  10.855   5.816   5.656  0.2368  0.2768  0.1558
  696POPI   C2B10082  10.766   5.858   6.072 -0.1096 -0.2867 -0.3596
  696POPI   C3B10083  10.967   6.012   6.466 -0.2683  0.0601  0.2126
  696POPI   C4B10084  10.845   6.146   6.892  0.1028  0.0159 -0.2935
  697POPI    C110085   5.964   9.761   5.141 -0.0215  0.0805 -0.0511
  697POPI    C210086   6.362   9.733   5.166  0.0037  0.3491 -0.1228
  697POPI    C310087   6.195  10.001   4.921 -0.2230  0.2051 -0.1293
  697POPI   PO410088   5.878   9.769   5.399  0.2224  0.3520  0.1448
  697POPI   GL110089   6.102   9.664   5.748  0.3294 -0.0625  0.0802
  697POPI   GL210090   6.363   9.745   5.884  0.0666 -0.4109 -0.2015
  697POPI   C1A10091   5.876   9.351   5.944 -0.0596 -0.1558  0.1374
  697POPI   D2A10092   5.872   9.007   6.303  0.2805 -0.3314 -0.1349
  697POPI   C3A10093   6.117   9.262   6.553 -0.0190  0.0546  0.1916
  697POPI   C4A10094   6.357   9.310   6.964  0.0684 -0.0662  0.2418
  697POPI   C1B10095   6.392   9.588   6.256 -0.2082 -0.2010 -0.2067
  697POPI   C2B10096   6.651   9.239   6.572  0.2027  0.0056 -0.0049
  697POPI   C3B10097   6.913   8.872   6.697  0.3979  0.2176  0.1575
  697POPI   C4B10098   7.242   8.893   7.060 -0.1013  0.1099 -0.0841
  698POPI    C110099   1.179   7.356   4.956  0.0807  0.0663  0.0074
  698POPI    C210100   1.518   7.206   4.805  0.0199 -0.1830  0.1134
  698POPI    C310101   1.184   7.205   4.585  0.0547 -0.0633  0.0593
  698POPI   PO410102   1.201   7.292   5.256 -0.3108  0.1987 -0.0041
  698POPI   GL110103   0.978   7.230   5.618 -0.1768 -0.2430 -0.1355
  698POPI   GL210104   0.629   7.422   5.725 -0.0927 -0.0679  0.0430
  698POPI   C1A10105   1.071   7.238   6.079  0.2215 -0.0137  0.2915
  698POPI   D2A10106   1.297   7.426   6.354  0.1855 -0.0595 -0.3131
  698POPI   C3A10107   1.343   7.595   6.724 -0.0090 -0.1892 -0.1882
  698POPI   C4A10108   1.502   7.792   7.026  0.0485  0.2115 -0.3765
  698POPI   C1B10109   0.580   7.431   6.111 -0.0541 -0.0746  0.4238
  698POPI   C2B10110   0.447   7.609   6.525  0.0956 -0.2441  0.2542
  698POPI   C3B10111   0.163   7.704   6.866  0.1538 -0.1673  0.3039
  698POPI   C4B10112  -0.166   7.712   6.987 -0.1443 -0.1383  0.5675
  699POPI    C110113   5.003   6.214   4.832  0.0835 -0.2109  0.1779
  699POPI    C210114   5.287   6.022   4.626  0.2092 -0.0490  0.1984
  699POPI    C310115   5.015   6.243   4.433  0.2063 -0.0586  0.1915
  699POPI   PO410116   5.125   6.179   5.081  0.0302  0.4642 -0.2966
  699POPI   GL110117   5.023   6.066   5.494  0.2680 -0.3158 -0.4099
  699POPI   GL210118   5.196   5.737   5.474  0.0143  0.4089  0.1769
  699POPI   C1A10119   5.103   6.324   5.841  0.3548  0.1990 -0.0308
  699POPI   D2A10120   5.402   6.527   6.087  0.3480 -0.2015 -0.0200
  699POPI   C3A10121   5.786   6.311   6.198 -0.0414  0.1741  0.0142
  699POPI   C4A10122   6.033   6.127   6.095 -0.2712  0.0102  0.2469
  699POPI   C1B10123   5.401   5.531   5.719  0.2343  0.1944 -0.5199
  699POPI   C2B10124   5.540   5.441   6.072 -0.1639 -0.0683  0.2094
  699POPI   C3B10125   5.749   5.313   6.473  0.2631 -0.0846  0.3434
  699POPI   C4B10126   5.722   5.546   6.889  0.0662  0.0835 -0.0889
  700POPI    C110127  16.489  10.531   5.454  0.0455  0.0538  0.0402
  700POPI    C210128  16.838  10.531   5.257  0.0698 -0.1538  0.0813
  700POPI    C310129  16.692  10.189   5.406 -0.2547 -0.1065 -0.1186
  700POPI   PO410130  16.383  10.736   5.524 -0.3009 -0.3509 -0.3347
  700POPI   GL110131  16.229  10.623   5.917  0.2083 -0.1292 -0.0264
  700POPI   GL210132  16.015  10.721   5.963 -0.2697  0.0186 -0.4194
  700POPI   C1A10133  16.145  10.277   6.271 -0.0618 -0.3356 -0.1251
  700POPI   D2A10134  16.407   9.949   6.392  0.2204  0.2825  0.0086
  700POPI   C3A10135  16.515   9.861   6.835 -0.1119  0.1747 -0.1767
  700POPI   C4A10136  16.604   9.796   7.266  0.1467  0.0297  0.1888
  700POPI   C1B10137  16.203  10.832   6.385  0.3133 -0.1643 -0.0357
  700POPI   C2B10138  16.530  10.822   6.604 -0.0704  0.0458  0.1210
  700POPI   C3B10139  16.545  10.792   7.075 -0.0515 -0.0381 -0.0244
  700POPI   C4B10140  16.686  11.024   7.404  0.4642 -0.3127  0.0377
  701POPI    C110141   8.747  19.075   5.893  0.0386 -0.0567  0.2684
  701POPI    C210142   9.043  19.031   5.627  0.0489 -0.0647  0.2810
  701POPI    C310143   8.748  18.761   5.647  0.0249 -0.0411  0.2483
  701POPI   PO410144   8.905  19.126   6.114  0.3556 -0.0318  0.1316
  701POPI   GL110145   9.077  19.074   6.423 -0.0934  0.1415  0.3538
  701POPI   GL210146   8.828  19.016   6.641  0.1277  0.0875 -0.0065
  701POPI   C1A10147   9.221  19.273   6.736 -0.4514 -0.2088 -0.3183
  701POPI   D2A10148   9.173  19.371   7.204  0.2111  0.2528 -0.2812
  701POPI   C3A10149   9.090  19.385   7.584 -0.1913  0.1795 -0.0168
  701POPI   C4A10150   8.923  18.994   7.818 -0.0244  0.1724 -0.3964
  701POPI   C1B10151   9.088  18.772   6.837 -0.0401 -0.0809 -0.1881
  701POPI   C2B10152   9.306  18.482   7.139 -0.2890  0.0844 -0.0645
  701POPI   C3B10153   9.476  18.169   7.427  0.0172  0.1342  0.0262
  701POPI   C4B10154   9.388  18.042   7.805  0.1283 -0.4330  0.0573
  702POPI    C110155   4.463  17.334   5.000  0.1917 -0.1531  0.0536
  702POPI    C210156   4.209  17.053   5.130 -0.0055 -0.0515 -0.1052
  702POPI    C310157   4.410  16.998   4.789 -0.0881  0.0247 -0.1665
  702POPI   PO410158   4.599  17.354   5.199  0.0403  0.3535  0.1454
  702POPI   GL110159   4.352  17.370   5.564 -0.1332 -0.4043 -0.1074
  702POPI   GL210160   4.202  17.576   5.530  0.0890  0.0086  0.2923
  702POPI   C1A10161   4.182  17.106   5.896  0.3729 -0.0875  0.0994
  702POPI   D2A10162   4.035  16.840   6.243 -0.4697  0.0452 -0.1397
  702POPI   C3A10163   4.296  16.920   6.645 -0.1368 -0.2040 -0.0737
  702POPI   C4A10164   4.302  17.034   7.040 -0.0763 -0.0502  0.3818
  702POPI   C1B10165   4.265  17.863   5.809 -0.1412 -0.2916 -0.2247
  702POPI   C2B10166   4.194  17.922   6.256 -0.1833  0.0965 -0.0966
  702POPI   C3B10167   3.822  17.819   6.559  0.0038  0.0442 -0.2572
  702POPI   C4B10168   3.641  17.793   7.019  0.0601  0.0688  0.4393
  703POPI    C110169  12.826  13.611   6.090 -0.0825 -0.2279  0.3033
  703POPI    C210170  12.629  13.630   5.743  0.0165  0.2747  0.2669
  703POPI    C310171  13.029  13.623   5.746  0.0129 -0.0402  0.3644
  703POPI   PO410172  12.570  13.424   6.278 -0.0566 -0.1210  0.0295
  703POPI   GL110173  12.594  13.138   6.577 -0.0710  0.1508 -0.1327
  703POPI   GL210174  12.635  13.444   6.777 -0.3078 -0.1263 -0.0097
  703POPI   C1A10175  12.690  13.022   6.968  0.1573 -0.0597 -0.1330
  703POPI   D2A10176  12.873  12.817   7.331  0.1792  0.1637  0.1750
  703POPI   C3A10177  13.129  13.006   7.493 -0.2738 -0.2357  0.0863
  703POPI   C4A10178  13.005  13.366   7.701 -0.0133  0.1182 -0.0939
  703POPI   C1B10179  12.884  13.459   7.150 -0.1019 -0.1280 -0.1275
  703POPI   C2B10180  13.226  13.686   7.252 -0.1289 -0.4114 -0.2859
  703POPI   C3B10181  13.410  14.050   7.478  0.1653  0.1869 -0.0641
  703POPI   C4B10182  13.609  14.360   7.680  0.0412  0.2928  0.3925
  704POPI    C110183   6.632  16.913   5.056  0.1931 -0.0742 -0.1229
  704POPI    C210184   6.849  16.576   5.062  0.0858 -0.1470 -0.2733
  704POPI    C310185   6.536  16.609   4.815 -0.0985 -0.0565 -0.0323
  704POPI   PO410186   6.642  17.185   5.311 -0.0458  0.3306 -0.2106
  704POPI   GL110187   6.608  17.364   5.681  0.4263  0.4591 -0.0713
  704POPI   GL210188   6.638  16.952   5.796  0.1444 -0.0147 -0.3432
  704POPI   C1A10189   6.258  17.439   5.947 -0.2815 -0.1281  0.3123
  704POPI   D2A10190   6.079  17.594   6.290 -0.0320 -0.2137  0.0393
  704POPI   C3A10191   6.123  17.380   6.657  0.0945  0.1316  0.2229
  704POPI   C4A10192   6.270  17.325   7.019  0.1581 -0.1989  0.1112
  704POPI   C1B10193   6.552  16.816   6.168 -0.0197  0.3844 -0.0117
  704POPI   C2B10194   6.379  16.765   6.592 -0.0387  0.0211  0.2941
  704POPI   C3B10195   6.325  16.862   7.006  0.1727  0.1963  0.2475
  704POPI   C4B10196   6.092  16.979   7.339 -0.4705 -0.0975 -0.5512
  705POPI    C110197   0.148   4.696   5.032  0.1099 -0.0686  0.2027
  705POPI    C210198   0.032   4.951   4.747 -0.1746 -0.1675  0.2261
  705POPI    C310199  -0.012   4.557   4.693  0.0574 -0.2024  0.2813
  705POPI   PO410200   0.027   4.803   5.290 -0.0147  0.0142  0.1582
  705POPI   GL110201   0.172   4.613   5.660  0.1761 -0.0396 -0.0132
  705POPI   GL210202  -0.127   4.566   5.709 -0.1025 -0.0998  0.1453
  705POPI   C1A10203   0.317   4.448   6.113  0.0536  0.1791 -0.0038
  705POPI   D2A10204   0.494   4.336   6.410  0.0586 -0.1381  0.2083
  705POPI   C3A10205   0.810   4.033   6.401 -0.0954  0.0893  0.2213
  705POPI   C4A10206   1.032   3.711   6.151  0.0176 -0.1689 -0.0902
  705POPI   C1B10207  -0.225   4.430   6.057  0.3240  0.0802  0.0292
  705POPI   C2B10208  -0.016   4.382   6.464  0.1000  0.2458  0.1530
  705POPI   C3B10209   0.065   4.307   6.920 -0.1843  0.1077 -0.5631
  705POPI   C4B10210   0.249   4.117   7.216 -0.0157  0.0040  0.3881
  706POPI    C110211   7.301   6.947   4.639 -0.2249 -0.0546  0.0853
  706POPI    C210212   7.499   7.260   4.789  0.1314 -0.2126 -0.0423
  706POPI    C310213   7.149   7.315   4.603  0.1199  0.0899  0.0630
  706POPI   PO410214   7.233   6.823   4.836  0.1407 -0.0518 -0.0898
  706POPI   GL110215   7.166   6.554   5.268  0.0835 -0.1529  0.0888
  706POPI   GL210216   7.192   6.896   5.367  0.0997  0.1960 -0.1771
  706POPI   C1A10217   7.448   6.456   5.644  0.1162  0.0762  0.1162
  706POPI   D2A10218   7.575   6.335   6.071  0.2399  0.1802  0.0220
  706POPI   C3A10219   7.705   6.587   6.364 -0.2600 -0.0785 -0.0500
  706POPI   C4A10220   7.913   6.728   6.774 -0.1903  0.3247 -0.0716
  706POPI   C1B10221   7.123   6.774   5.797 -0.2149 -0.0283  0.4187
  706POPI   C2B10222   7.138   6.688   6.224  0.0762  0.0564 -0.1193
  706POPI   C3B10223   7.114   6.420   6.486 -0.1233 -0.2556  0.1232
  706POPI   C4B10224   6.929   6.234   6.650  0.0749  0.2346 -0.0805
  707POPI    C110225   3.671  11.692   5.421  0.0974  0.0569 -0.1451
  707POPI    C210226   4.009  11.544   5.266  0.2258  0.1914  0.0029
  707POPI    C310227   3.661  11.492   5.075  0.2835 -0.2029 -0.0030
  707POPI   PO410228   3.707  11.968   5.442  0.0631  0.0192  0.1449
  707POPI   GL110229   3.836  12.216   5.803  0.0492  0.0257 -0.0246
  707POPI   GL210230   3.683  12.461   6.048 -0.0085 -0.0303 -0.2696
  707POPI   C1A10231   4.051  12.070   6.189  0.1330 -0.3418 -0.0948
  707POPI   D2A10232   4.090  11.860   6.638  0.2740  0.1218 -0.2700
  707POPI   C3A10233   3.962  12.102   6.979 -0.1614 -0.0166 -0.0057
  707POPI   C4A10234   4.053  12.365   7.396  0.3057 -0.0094  0.2942
  707POPI   C1B10235   3.618  12.286   6.480 -0.0876 -0.0570  0.2296
  707POPI   C2B10236   3.460  12.278   6.782 -0.0704  0.0128 -0.0405
  707POPI   C3B10237   3.298  12.390   7.145 -0.3364 -0.0468  0.2673
  707POPI   C4B10238   3.278  12.695   7.400  0.1066  0.0693  0.1584
  708POPI    C110239  10.823   4.860   5.156  0.1442  0.0377  0.2327
  708POPI    C210240  10.899   5.249   5.102 -0.1498  0.0511 -0.1197
  708POPI    C310241  10.903   4.999   4.790 -0.0651 -0.2129  0.0887
  708POPI   PO410242  10.529   4.868   5.249  0.2978 -0.0416 -0.0053
  708POPI   GL110243  10.338   5.002   5.554 -0.0195 -0.1624 -0.0080
  708POPI   GL210244  10.034   5.245   5.499 -0.3915 -0.0207  0.1755
  708POPI   C1A10245  10.524   5.071   5.922  0.1779 -0.2073  0.1945
  708POPI   D2A10246  10.485   5.021   6.438  0.0563  0.1979 -0.0710
  708POPI   C3A10247  10.490   5.391   6.693 -0.1228 -0.1352 -0.3530
  708POPI   C4A10248  10.437   5.766   6.545 -0.3061  0.0295  0.2910
  708POPI   C1B10249   9.924   5.274   5.917 -0.0688 -0.0042 -0.0996
  708POPI   C2B10250  10.138   5.337   6.343  0.3938  0.3173 -0.2655
  708POPI   C3B10251  10.077   5.124   6.809 -0.1581  0.0294  0.1640
  708POPI   C4B10252  10.032   5.032   7.249 -0.1825  0.1928  0.0546
  709POPI    C110253  12.193  15.165   5.541 -0.0823 -0.0797  0.0129
  709POPI    C210254  12.484  15.432   5.476 -0.2249  0.0478 -0.1099
  709POPI    C310255  12.576  15.051   5.555 -0.0152  0.1574  0.1947
  709POPI   PO410256  12.086  15.297   5.746 -0.1021 -0.1051  0.2696
  709POPI   GL110257  11.796  15.371   6.090 -0.1738 -0.3084  0.0814
  709POPI   GL210258  11.992  15.218   6.260 -0.1338  0.1509  0.0040
  709POPI   C1A10259  11.512  14.983   6.289 -0.5002  0.0574 -0.1661
  709POPI   D2A10260  11.446  14.908   6.743 -0.1085 -0.1785  0.0853
  709POPI   C3A10261  11.612  14.504   6.998  0.1347  0.0465  0.3153
  709POPI   C4A10262  11.703  14.086   7.126  0.1296  0.3800  0.0582
  709POPI   C1B10263  11.950  15.047   6.636 -0.0813 -0.3472  0.1529
  709POPI   C2B10264  11.912  14.946   7.143 -0.0143  0.2506  0.4298
  709POPI   C3B10265  11.622  15.098   7.506 -0.3484  0.5576 -0.0487
  709POPI   C4B10266  11.246  15.210   7.729  0.0836 -0.0693  0.0155
  710POPI    C110267  18.790   3.467   5.112  0.1069  0.1018 -0.0784
  710POPI    C210268  18.881   3.703   4.802  0.0205  0.0269 -0.1614
  710POPI    C310269  18.644   3.385   4.749  0.0321 -0.0053 -0.0246
  710POPI   PO410270  18.781   3.670   5.389  0.4445  0.3967  0.0705
  710POPI   GL110271  18.710   3.736   5.757 -0.0665 -0.1616 -0.0502
  710POPI   GL210272  18.669   4.045   5.751  0.0005  0.0036 -0.1483
  710POPI   C1A10273  18.765   3.522   6.196 -0.0330 -0.0934  0.0093
  710POPI   D2A10274  18.719   3.574   6.554  0.0648 -0.4911 -0.1534
  710POPI   C3A10275  18.602   3.453   6.979  0.1600  0.2031  0.1912
  710POPI   C4A10276  18.658   3.487   7.432 -0.0441  0.0479  0.1112
  710POPI   C1B10277  18.732   4.041   6.253  0.0507 -0.4791 -0.0457
  710POPI   C2B10278  18.951   3.973   6.742 -0.0921 -0.2264 -0.1844
  710POPI   C3B10279  19.277   3.691   6.986 -0.2585 -0.2760 -0.0195
  710POPI   C4B10280  19.117   3.320   7.231 -0.4002 -0.0106 -0.1176
  711POPI    C110281  12.947   8.803   5.083 -0.2277 -0.0330 -0.0364
  711POPI    C210282  12.828   9.036   4.781 -0.0556 -0.2407 -0.2689
  711POPI    C310283  12.939   8.659   4.710  0.2850 -0.1976  0.0089
  711POPI   PO410284  13.061   8.962   5.233 -0.1088  0.2976 -0.3564
  711POPI   GL110285  13.084   8.908   5.681 -0.0910 -0.2858  0.2638
  711POPI   GL210286  12.851   8.666   5.621 -0.1634 -0.3609  0.2536
  711POPI   C1A10287  13.042   9.159   6.059 -0.5517  0.0259  0.1834
  711POPI   D2A10288  13.415   9.456   6.085  0.2067  0.4108 -0.3772
  711POPI   C3A10289  13.740   9.437   6.466  0.0026 -0.0023  0.2212
  711POPI   C4A10290  14.096   9.662   6.552  0.1725  0.1264  0.2345
  711POPI   C1B10291  13.023   8.442   6.004  0.0727  0.0455  0.0978
  711POPI   C2B10292  12.954   8.173   6.333 -0.2039  0.1525  0.2551
  711POPI   C3B10293  12.623   8.130   6.787  0.1029  0.0387  0.1625
  711POPI   C4B10294  12.782   7.965   7.063  0.3040  0.0888  0.0512
  712POPI    C110295  15.757  10.702   5.538 -0.2959  0.0673  0.1954
  712POPI    C210296  15.407  10.819   5.383 -0.1841  0.2051  0.0436
  712POPI    C310297  15.544  10.988   5.718 -0.3625  0.0012  0.2228
  712POPI   PO410298  15.658  10.332   5.639 -0.5052  0.1195  0.3424
  712POPI   GL110299  15.605  10.160   6.109  0.0961 -0.1330 -0.0472
  712POPI   GL210300  15.850  10.023   5.994 -0.0137 -0.1360 -0.0921
  712POPI   C1A10301  15.631  10.078   6.522 -0.1442 -0.1144 -0.1584
  712POPI   D2A10302  15.556   9.773   6.729 -0.0487  0.0983 -0.0154
  712POPI   C3A10303  15.776   9.564   7.113 -0.0173 -0.0318  0.0832
  712POPI   C4A10304  15.791   9.301   7.402 -0.3869 -0.1242 -0.0947
  712POPI   C1B10305  15.930   9.769   6.365 -0.2815 -0.1125 -0.1490
  712POPI   C2B10306  16.106   9.595   6.701 -0.1291  0.2564 -0.0259
  712POPI   C3B10307  16.502   9.358   6.690  0.2417 -0.1357  0.3518
  712POPI   C4B10308  16.809   9.038   6.404 -0.1664  0.0954 -0.2671
  713POPI    C110309  12.763   9.794   5.311  0.1858 -0.1142  0.0547
  713POPI    C210310  13.151   9.869   5.378  0.1847  0.0436 -0.1092
  713POPI    C310311  12.901  10.169   5.289  0.0288 -0.0604 -0.0272
  713POPI   PO410312  12.712   9.637   5.433  0.0780 -0.1498 -0.2095
  713POPI   GL110313  12.700   9.490   5.837  0.0335 -0.1907  0.2779
  713POPI   GL210314  12.478   9.663   5.998  0.2279 -0.0743  0.0378
  713POPI   C1A10315  12.723   9.347   6.355 -0.0307 -0.1033 -0.2003
  713POPI   D2A10316  12.938   9.043   6.492  0.1516  0.1293 -0.0748
  713POPI   C3A10317  13.237   8.996   6.753 -0.1044 -0.4881 -0.1892
  713POPI   C4A10318  13.401   8.672   7.108  0.0347  0.1984 -0.1173
  713POPI   C1B10319  12.300   9.929   6.216  0.3640 -0.3058  0.0622
  713POPI   C2B10320  12.199  10.048   6.678  0.0906 -0.1130 -0.0745
  713POPI   C3B10321  12.231   9.854   7.106 -0.0271 -0.0567 -0.3312
  713POPI   C4B10322  12.022   9.813   7.566 -0.2371 -0.1349 -0.0181
  714POPI    C110323  16.312  13.850   6.271  0.0950  0.1983  0.1298
  714POPI    C210324  16.408  14.174   6.057 -0.0916  0.3003  0.1986
  714POPI    C310325  16.026  14.101   6.150 -0.0365  0.1303  0.2957
  714POPI   PO410326  16.437  13.612   6.107 -0.0138 -0.1375 -0.1920
  714POPI   GL110327  16.524  13.392   6.395  0.2237  0.0747  0.2153
  714POPI   GL210328  16.711  13.488   6.553 -0.1532 -0.3150  0.0201
  714POPI   C1A10329  16.700  13.006   6.400  0.2197 -0.0617  0.0962
  714POPI   D2A10330  16.818  12.639   6.632 -0.0376 -0.0564 -0.0678
  714POPI   C3A10331  17.305  12.746   6.786  0.3211  0.0174  0.0413
  714POPI   C4A10332  17.479  13.016   7.092  0.1258  0.1038 -0.0563
  714POPI   C1B10333  16.822  13.542   7.010 -0.1517 -0.2415  0.1922
  714POPI   C2B10334  17.051  13.458   7.246  0.1970 -0.0043 -0.1495
  714POPI   C3B10335  17.494  13.408   7.370 -0.1852  0.0214  0.0189
  714POPI   C4B10336  17.845  13.774   7.325 -0.0937  0.1509  0.2313
  715POPI    C110337  17.786   6.136   5.100 -0.0602  0.0297 -0.3747
  715POPI    C210338  17.471   6.246   4.881 -0.0859 -0.1368 -0.4226
  715POPI    C310339  17.621   5.877   4.843  0.0053 -0.1157 -0.2720
  715POPI   PO410340  17.784   6.398   5.236  0.1185  0.4687  0.0641
  715POPI   GL110341  17.830   6.605   5.630  0.2043 -0.2125  0.2911
  715POPI   GL210342  17.581   6.558   5.860  0.0112  0.1372  0.0646
  715POPI   C1A10343  18.016   6.893   5.726 -0.1847 -0.1047 -0.1659
  715POPI   D2A10344  18.304   7.181   5.804 -0.0395  0.0345  0.0704
  715POPI   C3A10345  18.298   7.261   6.140  0.0352  0.1488 -0.0373
  715POPI   C4A10346  18.363   7.137   6.606 -0.0852  0.2343 -0.1494
  715POPI   C1B10347  17.739   6.884   6.113  0.2524 -0.1860  0.2013
  715POPI   C2B10348  17.886   7.011   6.533  0.0951 -0.2079  0.1833
  715POPI   C3B10349  17.879   7.197   6.967 -0.0559  0.1104 -0.0646
  715POPI   C4B10350  18.064   7.266   7.354  0.4918  0.2188  0.1981
  716POPI    C110351  12.185   2.411   5.199  0.0184 -0.1812  0.0175
  716POPI    C210352  12.277   2.341   5.582 -0.2291 -0.2542  0.0656
  716POPI    C310353  12.369   2.072   5.301 -0.0979 -0.2260  0.0809
  716POPI   PO410354  11.889   2.538   5.340 -0.0734 -0.0888 -0.1141
  716POPI   GL110355  11.965   2.934   5.576  0.1759  0.0149 -0.1209
  716POPI   GL210356  12.128   3.173   5.757  0.0487  0.1556  0.1660
  716POPI   C1A10357  11.792   2.672   6.001 -0.2499 -0.0950 -0.0118
  716POPI   D2A10358  11.858   2.673   6.436  0.0300 -0.3842 -0.2306
  716POPI   C3A10359  11.968   2.630   6.857  0.2062  0.2075 -0.3044
  716POPI   C4A10360  12.129   2.290   7.187  0.1950  0.1202  0.2580
  716POPI   C1B10361  11.994   3.089   6.176 -0.0839  0.1580  0.3857
  716POPI   C2B10362  11.974   3.135   6.526 -0.1867 -0.2168  0.3027
  716POPI   C3B10363  11.616   2.995   6.862  0.2684  0.1120  0.5761
  716POPI   C4B10364  11.682   2.927   7.229  0.1284  0.1461 -0.2725
  717POPI    C110365   7.852  15.917   5.006 -0.2976 -0.1223  0.0022
  717POPI    C210366   8.134  15.949   4.724 -0.2578 -0.2347  0.0289
  717POPI    C310367   7.748  15.983   4.626 -0.2310  0.0381  0.0108
  717POPI   PO410368   8.066  15.731   5.181 -0.5013 -0.0751  0.0793
  717POPI   GL110369   7.918  15.482   5.432 -0.0768  0.1479  0.1742
  717POPI   GL210370   8.147  15.403   5.694 -0.1750 -0.2126  0.0786
  717POPI   C1A10371   7.652  15.445   5.712  0.2640  0.1438  0.0334
  717POPI   D2A10372   7.479  15.312   6.087  0.1507 -0.0042  0.0794
  717POPI   C3A10373   7.704  15.156   6.202  0.0645  0.2720  0.0502
  717POPI   C4A10374   8.114  15.022   6.409 -0.1537 -0.1576  0.3518
  717POPI   C1B10375   8.110  15.454   6.023 -0.1562 -0.1470 -0.0437
  717POPI   C2B10376   8.079  15.594   6.371 -0.1117  0.1863  0.0233
  717POPI   C3B10377   7.970  15.396   6.758  0.0632 -0.4035  0.0828
  717POPI   C4B10378   7.842  15.319   7.147  0.1096 -0.2894  0.3142
  718POPI    C110379   1.517  18.921   5.237  0.3096  0.0407 -0.2637
  718POPI    C210380   1.781  18.663   5.082  0.1055 -0.2400 -0.1511
  718POPI    C310381   1.408  18.679   4.938 -0.0107 -0.3209  0.1343
  718POPI   PO410382   1.731  19.113   5.349  0.0550  0.0093 -0.0472
  718POPI   GL110383   1.932  19.197   5.718 -0.3416 -0.2525 -0.0476
  718POPI   GL210384   1.722  19.450   5.755 -0.3485 -0.2457 -0.1153
  718POPI   C1A10385   2.142  19.217   6.039  0.2438 -0.1813  0.3516
  718POPI   D2A10386   2.291  19.036   6.411 -0.1399 -0.0212  0.0577
  718POPI   C3A10387   2.361  19.076   6.765 -0.2096  0.0191  0.1526
  718POPI   C4A10388   2.363  19.205   7.199 -0.1477 -0.1781  0.0560
  718POPI   C1B10389   1.655  19.288   6.145 -0.2836  0.2778  0.0025
  718POPI   C2B10390   1.894  19.232   6.581  0.1795  0.0867  0.3029
  718POPI   C3B10391   1.935  18.919   7.072  0.5211  0.0664 -0.2884
  718POPI   C4B10392   1.613  18.833   7.153  0.1727 -0.1718  0.2129
  719POPI    C110393  11.923   8.553   4.921  0.1440 -0.2791  0.2916
  719POPI    C210394  11.715   8.292   4.700  0.0626 -0.1146  0.1723
  719POPI    C310395  11.980   8.536   4.525  0.1158 -0.0952  0.2791
  719POPI   PO410396  12.044   8.385   5.129 -0.0775 -0.1135 -0.2709
  719POPI   GL110397  12.329   8.411   5.585  0.1792  0.0967 -0.0492
  719POPI   GL210398  12.098   8.310   5.775 -0.0236 -0.0038 -0.2225
  719POPI   C1A10399  12.522   8.491   5.998  0.0097 -0.1379  0.3461
  719POPI   D2A10400  12.528   8.725   6.355  0.0341  0.3672 -0.0584
  719POPI   C3A10401  12.726   8.622   6.768  0.4005 -0.0003  0.1507
  719POPI   C4A10402  12.848   8.687   7.162  0.1473  0.0803 -0.5980
  719POPI   C1B10403  12.085   8.226   6.244 -0.1471  0.1536 -0.0656
  719POPI   C2B10404  12.240   8.437   6.648 -0.1537  0.1511  0.1718
  719POPI   C3B10405  12.271   8.391   7.085  0.0451 -0.4383 -0.3616
  719POPI   C4B10406  12.546   8.365   7.338  0.0365  0.1782  0.0587
  720POPI    C110407  10.095  10.278   5.717  0.1945 -0.1898 -0.0673
  720POPI    C210408   9.788  10.225   5.968  0.2052 -0.2479 -0.0663
  720POPI    C310409   9.722  10.358   5.597  0.2444  0.4441  0.1601
  720POPI   PO410410  10.231  10.095   5.757  0.0262 -0.2102  0.0870
  720POPI   GL110411  10.057   9.776   6.004  0.2319  0.5447 -0.0387
  720POPI   GL210412  10.177   9.508   5.807 -0.2020  0.3096  0.0470
  720POPI   C1A10413   9.908   9.822   6.383 -0.0181  0.2070  0.2441
  720POPI   D2A10414   9.879   9.821   6.841  0.4017  0.1937 -0.3240
  720POPI   C3A10415   9.630   9.560   6.966  0.1798 -0.0811 -0.0115
  720POPI   C4A10416   9.428   9.082   7.030 -0.1402 -0.0636  0.0272
  720POPI   C1B10417   9.777   9.275   5.839  0.0318  0.0287  0.0059
  720POPI   C2B10418   9.369   9.198   5.952  0.1160 -0.0553 -0.0255
  720POPI   C3B10419   8.989   9.276   6.139 -0.0365 -0.0945  0.1676
  720POPI   C4B10420   8.482   9.312   6.104 -0.0260  0.1721  0.1867
  721POPI    C110421  17.884  13.991   5.222  0.0304 -0.1234 -0.0206
  721POPI    C210422  18.118  14.122   4.925 -0.0099  0.0227  0.0114
  721POPI    C310423  17.821  14.352   5.061  0.0091 -0.0432  0.1656
  721POPI   PO410424  18.053  13.892   5.371 -0.3138 -0.1200  0.1706
  721POPI   GL110425  18.140  13.947   5.799 -0.0350  0.2775 -0.2126
  721POPI   GL210426  18.118  14.185   5.787  0.2160  0.1093  0.0429
  721POPI   C1A10427  18.164  13.711   6.249 -0.1204  0.0453 -0.0282
  721POPI   D2A10428  18.241  13.672   6.509 -0.1442 -0.2260  0.2457
  721POPI   C3A10429  18.571  13.502   6.603 -0.2783 -0.1567 -0.2272
  721POPI   C4A10430  18.727  13.582   7.150 -0.0388  0.1815 -0.1471
  721POPI   C1B10431  18.330  14.255   6.156 -0.0464 -0.0562 -0.2867
  721POPI   C2B10432  18.391  14.573   6.483  0.3910  0.1025  0.0132
  721POPI   C3B10433  18.526  14.515   6.891  0.0451  0.1368  0.1033
  721POPI   C4B10434  18.362  14.523   7.264  0.0533  0.3936  0.3330
  722POPI    C110435  17.525  17.062   5.348 -0.1886  0.2639  0.1272
  722POPI    C210436  17.784  17.346   5.235 -0.1679  0.1520 -0.1113
  722POPI    C310437  17.621  17.103   4.962 -0.3300  0.0555  0.0687
  722POPI   PO410438  17.717  16.941   5.610  0.0720  0.3059  0.4929
  722POPI   GL110439  18.061  16.817   5.812 -0.0775  0.0026  0.0280
  722POPI   GL210440  18.015  16.889   6.062 -0.1448  0.5849  0.2997
  722POPI   C1A10441  18.479  16.720   6.083 -0.1192 -0.1938  0.0159
  722POPI   D2A10442  18.614  16.702   6.552 -0.0343  0.0572  0.4070
  722POPI   C3A10443  18.777  17.018   6.751 -0.0235  0.1200 -0.1630
  722POPI   C4A10444  19.125  17.308   6.928  0.1319 -0.2270  0.0952
  722POPI   C1B10445  18.115  16.652   6.413 -0.0752  0.1948  0.0844
  722POPI   C2B10446  18.176  16.549   6.837 -0.2139 -0.2262  0.0025
  722POPI   C3B10447  18.295  16.334   7.275  0.0350 -0.0444  0.0722
  722POPI   C4B10448  18.448  16.457   7.587 -0.0307 -0.0300  0.2314
  723POPI    C110449   5.490   6.514   4.968 -0.1024 -0.0220  0.0207
  723POPI    C210450   5.699   6.244   4.759 -0.0258  0.1368 -0.1098
  723POPI    C310451   5.462   6.504   4.569 -0.1161  0.1480  0.0167
  723POPI   PO410452   5.643   6.642   5.099  0.0954 -0.1914  0.1948
  723POPI   GL110453   5.546   6.538   5.504 -0.0680  0.2124  0.0408
  723POPI   GL210454   5.891   6.436   5.434  0.1148  0.1067 -0.1279
  723POPI   C1A10455   5.786   6.722   5.862  0.0228 -0.0462 -0.1193
  723POPI   D2A10456   5.711   6.924   6.195 -0.1096  0.0451  0.2243
  723POPI   C3A10457   5.599   6.651   6.576 -0.1992 -0.1820 -0.0926
  723POPI   C4A10458   5.227   6.452   6.870  0.0095  0.1401  0.1433
  723POPI   C1B10459   5.651   6.118   5.722 -0.3349 -0.2871  0.1614
  723POPI   C2B10460   5.383   5.978   5.989 -0.3074  0.1274 -0.0351
  723POPI   C3B10461   5.392   6.026   6.371 -0.3553  0.0458 -0.0970
  723POPI   C4B10462   5.535   6.129   6.695 -0.2005  0.1461 -0.0211
  724POPI    C110463  16.823  17.017   5.481 -0.1527  0.1595  0.0626
  724POPI    C210464  17.053  16.692   5.444  0.0402  0.2989  0.0231
  724POPI    C310465  16.712  16.721   5.236 -0.1069  0.0125  0.2183
  724POPI   PO410466  16.706  17.064   5.765  0.1482 -0.1519  0.0390
  724POPI   GL110467  16.681  16.825   6.092  0.0789  0.1077 -0.2730
  724POPI   GL210468  16.724  16.573   6.107 -0.0954 -0.2144  0.2006
  724POPI   C1A10469  16.834  16.897   6.520 -0.0905  0.0152 -0.1154
  724POPI   D2A10470  17.103  16.739   6.872 -0.2531 -0.0142 -0.0070
  724POPI   C3A10471  17.299  16.317   7.178  0.1171  0.0613 -0.0520
  724POPI   C4A10472  17.504  15.937   7.437  0.2752 -0.3749 -0.1243
  724POPI   C1B10473  17.048  16.448   6.460  0.0749  0.1141  0.4230
  724POPI   C2B10474  17.302  16.238   6.703  0.2290  0.0243 -0.0626
  724POPI   C3B10475  17.421  15.861   6.909  0.1068 -0.1659 -0.0816
  724POPI   C4B10476  17.326  15.485   6.870 -0.2602  0.0832 -0.1999
  725POPI    C110477  17.352   1.734   5.747 -0.2327 -0.0065  0.2711
  725POPI    C210478  17.192   1.393   5.613  0.1576 -0.1219  0.0818
  725POPI    C310479  17.093   1.741   5.443  0.1999 -0.2050 -0.1153
  725POPI   PO410480  17.482   1.700   6.016 -0.1023 -0.0574  0.0335
  725POPI   GL110481  17.637   1.934   6.293 -0.0780  0.2268 -0.3146
  725POPI   GL210482  17.348   2.048   6.422 -0.1559  0.1136  0.1312
  725POPI   C1A10483  18.061   2.204   6.368 -0.2551 -0.0224  0.2405
  725POPI   D2A10484  18.547   2.268   6.383 -0.1003  0.2441 -0.1360
  725POPI   C3A10485  18.734   1.987   6.741  0.1409  0.0497  0.0004
  725POPI   C4A10486  19.019   1.922   7.180  0.0715  0.2111  0.2444
  725POPI   C1B10487  17.704   2.076   6.749 -0.2312 -0.1914 -0.0875
  725POPI   C2B10488  17.784   2.403   7.124  0.0767 -0.0806 -0.3525
  725POPI   C3B10489  18.112   2.789   7.261  0.1072  0.1868  0.0122
  725POPI   C4B10490  18.319   2.768   7.565 -0.0399 -0.2213  0.0110
  726POPI    C110491   1.363  12.325   5.154 -0.1076  0.1091 -0.1132
  726POPI    C210492   1.689  12.527   5.037  0.0583 -0.1815 -0.1622
  726POPI    C310493   1.342  12.576   4.843  0.1027  0.0354 -0.1887
  726POPI   PO410494   1.440  12.242   5.432 -0.0291 -0.0787 -0.2278
  726POPI   GL110495   1.348  12.173   5.819  0.1908  0.1894 -0.1857
  726POPI   GL210496   1.173  12.487   5.830 -0.2391 -0.0696  0.1180
  726POPI   C1A10497   1.800  12.197   6.027  0.3067 -0.2212  0.1829
  726POPI   D2A10498   1.796  12.471   6.369 -0.2349 -0.0794  0.1601
  726POPI   C3A10499   1.988  12.175   6.750  0.1052 -0.1882 -0.0197
  726POPI   C4A10500   1.996  12.055   7.262  0.0948  0.0658 -0.0888
  726POPI   C1B10501   1.195  12.686   6.187  0.0248  0.2872 -0.0205
  726POPI   C2B10502   1.382  12.633   6.597  0.0042  0.4007 -0.0683
  726POPI   C3B10503   1.620  12.727   6.955 -0.1170  0.1195  0.1510
  726POPI   C4B10504   1.815  12.980   7.237 -0.1147 -0.2768 -0.1190
  727POPI    C110505   0.558   3.637   5.345 -0.2349  0.1389 -0.1489
  727POPI    C210506   0.587   3.471   4.982  0.0277 -0.0745 -0.0334
  727POPI    C310507   0.913   3.511   5.211 -0.1600 -0.0779  0.2388
  727POPI   PO410508   0.482   3.890   5.226 -0.1031 -0.1677  0.2393
  727POPI   GL110509   0.368   4.354   5.236 -0.1652  0.0842  0.0461
  727POPI   GL210510   0.537   4.627   5.339 -0.1799  0.1132  0.2155
  727POPI   C1A10511   0.558   4.253   5.664 -0.2112 -0.0823  0.1402
  727POPI   D2A10512   0.501   4.005   6.000  0.0844  0.1971  0.1125
  727POPI   C3A10513   0.623   3.691   5.846  0.2173 -0.0259 -0.0686
  727POPI   C4A10514   1.047   3.627   5.684 -0.4202 -0.2511  0.1572
  727POPI   C1B10515   0.905   4.591   5.617  0.4094 -0.3121  0.4001
  727POPI   C2B10516   0.915   4.409   6.056 -0.1163 -0.0547  0.0450
  727POPI   C3B10517   1.192   4.262   6.326 -0.1622  0.2348 -0.0272
  727POPI   C4B10518   1.271   4.379   6.663 -0.5098  0.0386 -0.0982
  728POPI    C110519   7.176   3.142   5.187 -0.1907  0.3181 -0.3598
  728POPI    C210520   7.488   3.363   5.069  0.1339  0.0667  0.0033
  728POPI    C310521   7.431   2.998   4.915 -0.0185  0.1361 -0.1070
  728POPI   PO410522   7.097   3.032   5.440 -0.0418 -0.1583 -0.5497
  728POPI   GL110523   7.038   3.058   5.868  0.0218  0.2483 -0.4563
  728POPI   GL210524   6.806   3.096   6.113  0.1069  0.1145 -0.3314
  728POPI   C1A10525   6.927   2.597   6.002  0.2171  0.0656 -0.0944
  728POPI   D2A10526   6.736   2.208   6.081 -0.4037  0.1427 -0.1974
  728POPI   C3A10527   6.830   2.005   6.525  0.1094 -0.1031 -0.3406
  728POPI   C4A10528   7.091   2.082   6.886  0.1271 -0.0195 -0.0358
  728POPI   C1B10529   6.592   2.789   6.460  0.0871  0.1570  0.2244
  728POPI   C2B10530   6.544   2.413   6.569 -0.1816 -0.2828  0.0365
  728POPI   C3B10531   6.535   2.092   6.899 -0.1711  0.0400  0.2448
  728POPI   C4B10532   6.366   2.006   7.279 -0.1228 -0.1412  0.0532
  729POPI    C110533  10.175   6.109   4.444  0.1169  0.1087  0.2053
  729POPI    C210534   9.923   6.406   4.353 -0.1072 -0.0921  0.1625
  729POPI    C310535  10.239   6.334   4.119 -0.2273 -0.0856 -0.0036
  729POPI   PO410536  10.288   6.111   4.705  0.1962  0.0752 -0.0416
  729POPI   GL110537   9.970   6.235   5.037 -0.0141  0.0799  0.0291
  729POPI   GL210538  10.274   6.431   5.145  0.4766  0.1774 -0.4019
  729POPI   C1A10539  10.041   6.105   5.433 -0.0848 -0.0399  0.2384
  729POPI   D2A10540   9.961   5.737   5.646 -0.0202 -0.3838 -0.0652
  729POPI   C3A10541   9.611   5.700   5.899 -0.1151  0.0717 -0.1917
  729POPI   C4A10542   9.660   5.511   6.249 -0.1010  0.0072 -0.1473
  729POPI   C1B10543  10.033   6.669   5.477  0.0664  0.0935 -0.2316
  729POPI   C2B10544   9.901   6.803   5.953  0.1863  0.3751  0.3122
  729POPI   C3B10545   9.982   7.064   6.207  0.2374  0.0300 -0.0060
  729POPI   C4B10546   9.978   7.042   6.777 -0.0623 -0.2118  0.0553
  730POPI    C110547   2.519   6.214   4.934 -0.1109  0.0877 -0.2491
  730POPI    C210548   2.735   5.972   4.701  0.1293  0.2039 -0.1503
  730POPI    C310549   2.357   5.878   4.791  0.2038 -0.1091 -0.1525
  730POPI   PO410550   2.646   6.285   5.229 -0.0070  0.1006  0.3854
  730POPI   GL110551   3.039   6.185   5.502  0.1053 -0.0774  0.0562
  730POPI   GL210552   2.788   6.094   5.696  0.1047 -0.0189  0.1062
  730POPI   C1A10553   3.211   6.252   5.873  0.0293  0.2505  0.1948
  730POPI   D2A10554   3.158   6.098   6.259  0.2559 -0.1228 -0.1556
  730POPI   C3A10555   2.859   6.131   6.555  0.0979  0.3750  0.1537
  730POPI   C4A10556   2.860   6.152   6.998 -0.1389 -0.0528 -0.1952
  730POPI   C1B10557   2.916   5.795   5.966  0.0716 -0.1107  0.1514
  730POPI   C2B10558   2.842   5.655   6.431 -0.0057  0.3186  0.5741
  730POPI   C3B10559   2.763   5.710   6.795  0.4179 -0.2622 -0.1824
  730POPI   C4B10560   3.058   5.694   7.226 -0.0751 -0.0823  0.1060
  731POPI    C110561   9.829  12.729   5.655  0.0795  0.0501  0.2009
  731POPI    C210562   9.440  12.733   5.749  0.0960  0.1181  0.2672
  731POPI    C310563   9.636  12.385   5.721 -0.0616  0.0568 -0.1521
  731POPI   PO410564   9.887  12.964   5.911  0.0851  0.0586  0.2556
  731POPI   GL110565   9.731  13.205   6.240  0.3505 -0.3653 -0.1830
  731POPI   GL210566   9.930  13.253   6.324 -0.0760 -0.1861  0.1441
  731POPI   C1A10567   9.489  13.321   6.554 -0.3580 -0.1549 -0.1579
  731POPI   D2A10568   9.504  13.541   6.896 -0.4360 -0.0063 -0.0339
  731POPI   C3A10569   9.471  13.340   7.270  0.0596  0.3051  0.4087
  731POPI   C4A10570   9.215  13.044   7.383  0.0188 -0.3487 -0.3047
  731POPI   C1B10571  10.003  13.158   6.633 -0.2465 -0.1282  0.4333
  731POPI   C2B10572   9.945  13.399   7.101  0.0362 -0.0425  0.0088
  731POPI   C3B10573   9.871  13.562   7.491 -0.0622  0.4180  0.0115
  731POPI   C4B10574  10.118  13.714   7.730 -0.0365  0.3747  0.2939
  732POPI    C110575  14.909  14.084   5.695  0.1248 -0.1318 -0.0888
  732POPI    C210576  15.292  14.160   5.608  0.1579 -0.0073  0.1575
  732POPI    C310577  15.176  13.786   5.691  0.2398 -0.0348  0.1483
  732POPI   PO410578  14.832  14.179   5.931  0.0186  0.0997  0.1077
  732POPI   GL110579  14.813  14.288   6.384  0.0009 -0.0471  0.0063
  732POPI   GL210580  14.523  14.130   6.554 -0.1809  0.3608 -0.1409
  732POPI   C1A10581  14.925  14.399   6.769 -0.0780  0.2577  0.2783
  732POPI   D2A10582  14.822  14.488   7.147 -0.2202  0.1293  0.0354
  732POPI   C3A10583  14.812  14.278   7.535  0.0860  0.0220 -0.1053
  732POPI   C4A10584  15.193  14.197   7.720  0.2736  0.0801 -0.2245
  732POPI   C1B10585  14.266  14.447   6.886 -0.3310 -0.1065 -0.2285
  732POPI   C2B10586  14.253  14.624   7.237 -0.0363 -0.1241 -0.0754
  732POPI   C3B10587  14.258  14.407   7.720  0.1652  0.1906  0.0242
  732POPI   C4B10588  13.991  14.317   8.043 -0.0236 -0.3855  0.1186
  733POPI    C110589   7.141   4.007   5.066 -0.0921  0.2093  0.1117
  733POPI    C210590   7.381   3.821   5.327 -0.2618  0.1335  0.2159
  733POPI    C310591   7.067   3.628   5.171  0.0791  0.0323 -0.3775
  733POPI   PO410592   7.198   4.316   5.245 -0.1465  0.1249  0.1501
  733POPI   GL110593   6.818   4.457   5.602 -0.0286  0.0963  0.1641
  733POPI   GL210594   6.861   4.219   5.815 -0.1017 -0.1039 -0.0577
  733POPI   C1A10595   7.302   4.556   5.845 -0.2146  0.3299  0.3153
  733POPI   D2A10596   7.621   4.439   6.036  0.2592  0.0445 -0.0689
  733POPI   C3A10597   7.485   4.159   6.280 -0.0815 -0.0904 -0.2543
  733POPI   C4A10598   7.017   3.930   6.249  0.3431 -0.2497 -0.1350
  733POPI   C1B10599   6.593   4.151   6.167  0.1673 -0.0857  0.2574
  733POPI   C2B10600   6.440   4.317   6.547  0.0966 -0.0731 -0.3919
  733POPI   C3B10601   6.263   4.300   6.943 -0.3655 -0.3241 -0.0801
  733POPI   C4B10602   5.976   4.164   7.116 -0.0897  0.0458 -0.0665
  734POPI    C110603  16.805   1.582   5.830 -0.0589 -0.0713  0.0180
  734POPI    C210604  16.503   1.793   5.985  0.1900  0.3119 -0.0056
  734POPI    C310605  16.427   1.466   5.767 -0.1930  0.2399  0.2264
  734POPI   PO410606  16.970   1.527   6.019  0.2909 -0.0222 -0.2001
  734POPI   GL110607  17.008   1.602   6.391 -0.1395 -0.1178 -0.1295
  734POPI   GL210608  17.351   1.446   6.463 -0.1877  0.0358 -0.4269
  734POPI   C1A10609  16.670   1.625   6.565  0.2199 -0.2040 -0.0642
  734POPI   D2A10610  16.450   1.536   7.020  0.0075 -0.1501 -0.1183
  734POPI   C3A10611  16.632   1.499   7.457 -0.1169 -0.0392 -0.0733
  734POPI   C4A10612  16.800   1.234   7.850  0.2997 -0.1064 -0.0445
  734POPI   C1B10613  17.291   1.671   6.770 -0.2279  0.2770 -0.0097
  734POPI   C2B10614  17.384   1.514   7.186 -0.1103  0.0839 -0.4115
  734POPI   C3B10615  17.486   1.476   7.568 -0.1605 -0.1544  0.1310
  734POPI   C4B10616  17.788   1.475   8.015 -0.0576  0.1725  0.2326
  735POPI    C110617   5.714  14.092   4.907 -0.0304  0.1162  0.0198
  735POPI    C210618   6.065  13.908   4.854 -0.0009  0.1236  0.1845
  735POPI    C310619   5.780  13.880   4.574  0.1391  0.1373  0.0394
  735POPI   PO410620   5.608  14.063   5.042 -0.4506  0.0073  0.3417
  735POPI   GL110621   5.614  14.131   5.566 -0.0271 -0.0492  0.1263
  735POPI   GL210622   5.489  13.933   5.883  0.2521 -0.2747 -0.0249
  735POPI   C1A10623   6.040  14.249   5.614  0.2356 -0.0727  0.2312
  735POPI   D2A10624   6.297  14.479   5.516 -0.1333  0.0772 -0.1551
  735POPI   C3A10625   6.483  14.720   5.759 -0.0906  0.0228 -0.4231
  735POPI   C4A10626   6.836  14.695   5.989 -0.0017 -0.0505 -0.2057
  735POPI   C1B10627   5.314  13.799   6.280  0.1809  0.1598 -0.2555
  735POPI   C2B10628   5.295  13.657   6.705  0.1814 -0.0908 -0.1474
  735POPI   C3B10629   5.410  13.613   7.092  0.3129  0.3280  0.0858
  735POPI   C4B10630   4.994  13.576   7.304 -0.0279 -0.1551  0.2479
  736POPI    C110631   0.726   0.438   5.348 -0.0636 -0.1407  0.1536
  736POPI    C210632   0.911   0.418   4.994 -0.1419  0.0948  0.0974
  736POPI    C310633   1.042   0.671   5.274 -0.2062  0.0580  0.1611
  736POPI   PO410634   0.745   0.136   5.421  0.1953  0.1724  0.2085
  736POPI   GL110635   0.927   0.014   5.791 -0.0168  0.0642  0.1549
  736POPI   GL210636   1.129   0.226   5.836  0.0737 -0.1111  0.1765
  736POPI   C1A10637   0.763   0.149   6.210  0.1071 -0.1823 -0.1315
  736POPI   D2A10638   0.358   0.290   6.433 -0.0062  0.0507 -0.0372
  736POPI   C3A10639   0.534   0.416   6.778 -0.1379  0.2541  0.1207
  736POPI   C4A10640   0.654   0.555   7.158 -0.1332 -0.2366  0.1635
  736POPI   C1B10641   1.190   0.590   6.167 -0.0724 -0.1473 -0.0589
  736POPI   C2B10642   1.313   0.978   6.258 -0.0232  0.0596 -0.2522
  736POPI   C3B10643   1.257   1.364   6.254  0.0133 -0.2891  0.3608
  736POPI   C4B10644   0.840   1.660   6.272 -0.3208 -0.1361  0.0978
  737POPI    C110645   9.910  16.941   5.602 -0.0042 -0.0969  0.0100
  737POPI    C210646  10.223  16.948   5.353 -0.1350  0.2564 -0.1521
  737POPI    C310647   9.852  16.913   5.207 -0.1722 -0.2652  0.0452
  737POPI   PO410648  10.103  17.058   5.846  0.3842  0.0927  0.0274
  737POPI   GL110649   9.888  16.959   6.266 -0.3136  0.4572  0.1144
  737POPI   GL210650   9.685  16.829   6.402 -0.1790 -0.1347  0.2564
  737POPI   C1A10651  10.179  16.587   6.480  0.1936  0.1448 -0.6425
  737POPI   D2A10652  10.438  16.403   6.798 -0.1132 -0.1003 -0.3419
  737POPI   C3A10653  10.566  16.497   7.172 -0.3923  0.0578 -0.1420
  737POPI   C4A10654  10.482  16.777   7.479 -0.1508  0.0010 -0.2028
  737POPI   C1B10655   9.676  16.850   6.766  0.0815  0.0303  0.0216
  737POPI   C2B10656   9.857  16.461   6.989 -0.4190 -0.0084  0.0087
  737POPI   C3B10657  10.061  16.187   7.341  0.3167  0.0196  0.2647
  737POPI   C4B10658  10.207  16.142   7.690  0.1487 -0.0118 -0.1128
  738POPI    C110659  16.396  11.945   5.987  0.2475 -0.1873 -0.1013
  738POPI    C210660  16.183  11.817   5.674 -0.1261  0.0746  0.0385
  738POPI    C310661  16.212  11.590   6.002  0.0064 -0.0632 -0.0673
  738POPI   PO410662  16.239  12.187   6.041  0.3821 -0.0139  0.1928
  738POPI   GL110663  15.976  12.090   6.359 -0.1318  0.0058  0.1020
  738POPI   GL210664  16.170  11.847   6.494 -0.1672 -0.2035 -0.1001
  738POPI   C1A10665  15.961  12.234   6.806  0.3516 -0.2284 -0.3490
  738POPI   D2A10666  15.931  12.137   7.277  0.2380  0.1596  0.3393
  738POPI   C3A10667  16.054  12.387   7.616  0.2797  0.0085  0.1588
  738POPI   C4A10668  15.764  12.737   7.820  0.0017 -0.0884  0.3026
  738POPI   C1B10669  16.252  11.773   6.923  0.0780  0.0210  0.3788
  738POPI   C2B10670  16.443  11.710   7.258  0.1120  0.2168  0.1056
  738POPI   C3B10671  16.546  11.456   7.559  0.0462  0.0257 -0.0008
  738POPI   C4B10672  16.664  11.130   7.937  0.1232 -0.4372  0.0125
  739POPI    C110673   6.151   4.677   5.264 -0.1047  0.0022  0.1837
  739POPI    C210674   6.138   4.412   4.964 -0.1303  0.1761  0.0294
  739POPI    C310675   6.347   4.330   5.295 -0.2262 -0.0820  0.0280
  739POPI   PO410676   6.305   4.844   5.162 -0.1668 -0.4683  0.0147
  739POPI   GL110677   6.253   5.231   5.381 -0.2098  0.2885  0.0605
  739POPI   GL210678   6.117   5.062   5.627  0.2101 -0.2880  0.2010
  739POPI   C1A10679   6.448   5.439   5.802  0.1013  0.1709 -0.2413
  739POPI   D2A10680   6.782   5.539   5.987  0.0012 -0.2139  0.1095
  739POPI   C3A10681   6.925   5.678   6.418  0.4207  0.1027 -0.1483
  739POPI   C4A10682   6.737   5.509   6.725  0.0447  0.2707 -0.1023
  739POPI   C1B10683   6.415   4.949   6.002  0.2683 -0.0322  0.1676
  739POPI   C2B10684   6.784   4.674   6.063  0.0515  0.0918 -0.0275
  739POPI   C3B10685   7.016   4.467   6.382 -0.0879  0.0037 -0.0557
  739POPI   C4B10686   7.353   4.408   6.732 -0.1611 -0.0250 -0.0584
  740POPI    C110687  15.448   2.504   5.718  0.0537  0.0008 -0.0387
  740POPI    C210688  15.452   2.875   5.866 -0.1253 -0.0488  0.0940
  740POPI    C310689  15.756   2.746   5.641 -0.1128  0.2142 -0.0436
  740POPI   PO410690  15.365   2.305   5.936 -0.1086  0.0019  0.1981
  740POPI   GL110691  15.115   2.129   6.306 -0.3405  0.0385 -0.0542
  740POPI   GL210692  14.944   1.856   6.316 -0.0518 -0.0916 -0.2118
  740POPI   C1A10693  15.108   2.051   6.763  0.0307 -0.1867  0.0862
  740POPI   D2A10694  15.084   2.151   7.272  0.0371 -0.1763 -0.3568
  740POPI   C3A10695  15.312   2.490   7.565 -0.0905  0.0996 -0.0691
  740POPI   C4A10696  15.131   2.779   7.918 -0.1342 -0.0320 -0.0732
  740POPI   C1B10697  14.605   2.034   6.472 -0.0949  0.2446 -0.0512
  740POPI   C2B10698  14.307   2.229   6.708 -0.0731 -0.1718 -0.0505
  740POPI   C3B10699  14.234   2.339   7.151  0.0507 -0.0039  0.2946
  740POPI   C4B10700  14.093   2.515   7.548 -0.1102 -0.1089 -0.1213
  741POPI    C110701  10.137   7.465   4.601 -0.1057 -0.0039 -0.0750
  741POPI    C210702  10.060   7.075   4.643 -0.1174  0.0401  0.3594
  741POPI    C310703   9.783   7.317   4.487  0.0579 -0.1918 -0.3535
  741POPI   PO410704  10.213   7.523   4.885  0.4176 -0.2824 -0.0322
  741POPI   GL110705  10.252   7.528   5.412  0.1343  0.1868 -0.1284
  741POPI   GL210706   9.934   7.579   5.569  0.1807 -0.2243  0.2479
  741POPI   C1A10707  10.495   7.348   5.715 -0.0870  0.2908  0.0939
  741POPI   D2A10708  10.886   7.428   5.988 -0.2531 -0.0747  0.4016
  741POPI   C3A10709  10.899   7.597   6.335 -0.3943 -0.1013  0.0661
  741POPI   C4A10710  10.859   7.730   6.691  0.4244 -0.3291  0.2603
  741POPI   C1B10711  10.126   7.643   6.005 -0.1114 -0.0518 -0.0895
  741POPI   C2B10712   9.966   7.503   6.420  0.1351  0.0529 -0.1081
  741POPI   C3B10713   9.594   7.260   6.595  0.1798  0.0065  0.0074
  741POPI   C4B10714   9.226   7.544   6.723  0.1097 -0.0864  0.3007
  742POPS   CNO10715  18.853  12.501   4.868  0.1164 -0.1460  0.2117
  742POPS   PO410716  18.590  12.410   5.293 -0.1163 -0.3165  0.1227
  742POPS   GL110717  18.804  12.445   5.671 -0.2255 -0.0191 -0.4393
  742POPS   GL210718  18.928  12.203   5.785 -0.1811  0.0044 -0.3132
  742POPS   C1A10719  18.689  12.650   6.080 -0.1397 -0.0653  0.1895
  742POPS   D2A10720  18.574  12.654   6.500 -0.0879 -0.0671  0.3674
  742POPS   C3A10721  18.732  12.294   6.813 -0.1627 -0.2514 -0.3542
  742POPS   C4A10722  18.756  12.220   7.265  0.1227 -0.3070  0.0913
  742POPS   C1B10723  18.979  12.164   6.175  0.0440  0.1867 -0.3906
  742POPS   C2B10724  19.174  11.989   6.530  0.0697  0.4250 -0.0480
  742POPS   C3B10725  19.200  12.076   6.910 -0.0802 -0.1672  0.4906
  742POPS   C4B10726  19.421  12.315   7.299 -0.0958  0.0714  0.0281
  743POPS   CNO10727  14.208  12.374   6.158 -0.2540 -0.4485  0.0249
  743POPS   PO410728  14.417  12.695   6.051 -0.0573 -0.0345 -0.1642
  743POPS   GL110729  14.552  12.714   6.453 -0.1288 -0.0361 -0.0915
  743POPS   GL210730  14.768  12.533   6.581  0.2735 -0.0308  0.2129
  743POPS   C1A10731  14.363  12.478   6.827 -0.2169 -0.0698  0.0451
  743POPS   D2A10732  14.391  12.305   7.234  0.1902  0.1184 -0.0905
  743POPS   C3A10733  14.568  12.417   7.646  0.0146  0.0094 -0.1598
  743POPS   C4A10734  14.635  12.546   7.986  0.2157 -0.1710  0.1850
  743POPS   C1B10735  14.872  12.501   7.032 -0.4086  0.1158  0.0726
  743POPS   C2B10736  15.005  12.435   7.444 -0.0183 -0.0338  0.0374
  743POPS   C3B10737  15.129  12.631   7.831  0.1427  0.2468  0.0744
  743POPS   C4B10738  15.392  12.649   8.172 -0.3035 -0.0422  0.1115
  744POPS   CNO10739  10.285  11.627   5.598 -0.1870 -0.1647  0.1509
  744POPS   PO410740   9.928  11.716   5.763  0.0828 -0.0043  0.1774
  744POPS   GL110741   9.763  11.998   6.102  0.0301 -0.0216  0.1403
  744POPS   GL210742   9.672  12.378   6.216 -0.2403 -0.0377  0.0309
  744POPS   C1A10743   9.908  11.955   6.447 -0.0607 -0.1067  0.0142
  744POPS   D2A10744  10.075  11.709   6.850 -0.2214 -0.1372 -0.0442
  744POPS   C3A10745  10.370  11.476   7.007 -0.2076  0.2754 -0.3219
  744POPS   C4A10746  10.547  11.176   6.823  0.2637  0.2124 -0.0351
  744POPS   C1B10747   9.481  12.223   6.586  0.0208 -0.1160 -0.0231
  744POPS   C2B10748   9.257  11.991   6.900  0.0308  0.0083 -0.0136
  744POPS   C3B10749   9.229  11.761   7.351  0.1092  0.2174  0.0677
  744POPS   C4B10750   8.951  11.418   7.410  0.1120  0.2701  0.1468
  745POPS   CNO10751  15.416   0.596   5.844  0.0109 -0.1647  0.0371
  745POPS   PO410752  15.792   0.728   5.703 -0.1141 -0.2015 -0.0843
  745POPS   GL110753  16.186   0.575   5.808  0.0718  0.1970 -0.0513
  745POPS   GL210754  16.131   0.321   5.740  0.0730  0.1483  0.2574
  745POPS   C1A10755  16.464   0.738   6.185 -0.0301  0.2372  0.0331
  745POPS   D2A10756  16.609   0.814   6.592  0.2144  0.2785  0.0138
  745POPS   C3A10757  16.696   1.142   6.726  0.0696  0.0757  0.0159
  745POPS   C4A10758  16.915   1.430   7.018 -0.2225 -0.0131  0.1042
  745POPS   C1B10759  16.307  -0.038   5.832  0.1098  0.2035 -0.0642
  745POPS   C2B10760  16.527  -0.414   6.059  0.1794 -0.1217  0.0792
  745POPS   C3B10761  16.649  -0.741   6.260 -0.0914  0.0440 -0.0300
  745POPS   C4B10762  16.501  -0.990   6.607  0.0546  0.1239 -0.4134
  746POPS   CNO10763   3.999   8.672   5.322 -0.2753  0.1156  0.1960
  746POPS   PO410764   3.712   8.936   5.387 -0.0499 -0.2236 -0.3413
  746POPS   GL110765   3.784   8.995   5.763 -0.1015 -0.0735 -0.1199
  746POPS   GL210766   3.891   8.886   6.032 -0.1732  0.0465  0.2431
  746POPS   C1A10767   3.869   9.404   6.035  0.1142  0.1105  0.2800
  746POPS   D2A10768   3.864   9.382   6.421 -0.0653 -0.1399  0.0475
  746POPS   C3A10769   3.603   9.429   6.687  0.0816  0.0391  0.1397
  746POPS   C4A10770   3.470   9.408   7.005 -0.0744  0.2346 -0.2209
  746POPS   C1B10771   4.175   9.004   6.264 -0.2448 -0.1470 -0.2725
  746POPS   C2B10772   4.388   8.889   6.684  0.2630 -0.1718 -0.1104
  746POPS   C3B10773   4.627   8.628   6.806 -0.4319 -0.1045 -0.1065
  746POPS   C4B10774   5.038   8.365   6.832 -0.0660  0.0251 -0.0331
  747POPS   CNO10775   4.356  10.124   5.114 -0.0753 -0.0593 -0.0647
  747POPS   PO410776   4.206   9.813   5.333 -0.0055  0.2918 -0.0381
  747POPS   GL110777   3.999   9.924   5.742  0.3560  0.2141 -0.0494
  747POPS   GL210778   3.736   9.834   5.900  0.0495 -0.1675 -0.1325
  747POPS   C1A10779   3.995  10.315   5.962  0.2000 -0.0439  0.0902
  747POPS   D2A10780   4.039  10.319   6.501  0.2316 -0.0220 -0.0687
  747POPS   C3A10781   3.684  10.357   6.782 -0.1087  0.0892 -0.0951
  747POPS   C4A10782   3.619  10.298   7.247 -0.2226 -0.0613 -0.0859
  747POPS   C1B10783   3.822   9.864   6.327  0.0673 -0.2092  0.0253
  747POPS   C2B10784   3.960   9.775   6.749  0.1396  0.0704  0.4750
  747POPS   C3B10785   3.962   9.466   7.047 -0.2042  0.1004  0.2122
  747POPS   C4B10786   4.042   9.453   7.443  0.2122 -0.0285  0.2847
  748POPS   CNO10787  10.896   9.532   5.238  0.1308 -0.2993  0.0796
  748POPS   PO410788  11.314   9.707   5.298  0.2984 -0.0338  0.2531
  748POPS   GL110789  11.442   9.598   5.704  0.2526  0.0074  0.0192
  748POPS   GL210790  11.760   9.679   5.714 -0.1578 -0.0205  0.1117
  748POPS   C1A10791  11.408   9.630   6.108 -0.0018  0.1589  0.3522
  748POPS   D2A10792  11.132   9.699   6.387 -0.2988 -0.0060  0.0108
  748POPS   C3A10793  11.208   9.754   6.803  0.0450 -0.0130 -0.2051
  748POPS   C4A10794  11.306   9.465   7.068 -0.1011 -0.0863  0.0297
  748POPS   C1B10795  11.984   9.550   6.122 -0.0086  0.0719  0.0823
  748POPS   C2B10796  12.134   9.569   6.583  0.1284  0.1661 -0.0198
  748POPS   C3B10797  12.369   9.351   6.787 -0.0071  0.0197 -0.3657
  748POPS   C4B10798  12.829   9.139   6.939  0.0671 -0.0717 -0.1673
  749POPS   CNO10799  16.890   8.879   5.922  0.3272  0.1484  0.0136
  749POPS   PO410800  17.313   8.949   5.763 -0.0337  0.0573 -0.5660
  749POPS   GL110801  17.347   8.902   6.217  0.2722 -0.0255 -0.1312
  749POPS   GL210802  17.194   8.726   6.309 -0.3001  0.0567  0.3097
  749POPS   C1A10803  17.365   8.970   6.710  0.1018  0.1338 -0.0258
  749POPS   D2A10804  17.292   9.028   7.153 -0.1933  0.0126 -0.0244
  749POPS   C3A10805  17.249   8.801   7.597 -0.0255  0.0338 -0.0787
  749POPS   C4A10806  17.229   8.525   7.952  0.2631  0.1576  0.0040
  749POPS   C1B10807  17.033   8.607   6.627  0.3628  0.2549  0.5308
  749POPS   C2B10808  17.056   8.567   7.097 -0.0701  0.2919  0.1327
  749POPS   C3B10809  17.061   8.400   7.408  0.0240 -0.1839 -0.0766
  749POPS   C4B10810  16.885   8.221   7.756  0.0677 -0.1733 -0.1335
  750POPS   CNO10811   6.791  14.559   5.286 -0.2523  0.2165 -0.3855
  750POPS   PO410812   6.838  15.012   5.306  0.1967 -0.0755 -0.2182
  750POPS   GL110813   6.551  15.191   5.646  0.3314  0.1592  0.2409
  750POPS   GL210814   6.238  15.252   5.491  0.0417 -0.1069 -0.2547
  750POPS   C1A10815   6.566  15.120   6.125 -0.0651  0.0615  0.0837
  750POPS   D2A10816   6.975  15.127   6.308 -0.0544  0.0906 -0.2168
  750POPS   C3A10817   7.250  14.787   6.340 -0.1045 -0.2188  0.1405
  750POPS   C4A10818   7.296  14.299   6.483 -0.5772 -0.1211  0.1152
  750POPS   C1B10819   6.085  15.125   5.910 -0.1679 -0.1604  0.0130
  750POPS   C2B10820   6.142  15.149   6.353  0.3538 -0.2318 -0.0144
  750POPS   C3B10821   6.404  14.960   6.690 -0.0715  0.1499 -0.2456
  750POPS   C4B10822   6.240  14.802   7.016 -0.3351  0.1160 -0.0196
  751POPS   CNO10823  16.887   4.316   5.658  0.0008  0.0937 -0.2188
  751POPS   PO410824  16.882   4.497   5.980 -0.3009  0.1388  0.2347
  751POPS   GL110825  17.008   4.159   6.260 -0.1513 -0.1308 -0.0338
  751POPS   GL210826  17.339   3.969   6.401 -0.1949  0.1355 -0.1100
  751POPS   C1A10827  16.859   3.899   6.580 -0.2658  0.1387 -0.0088
  751POPS   D2A10828  16.778   3.689   6.987 -0.0425 -0.2323 -0.0615
  751POPS   C3A10829  16.965   3.880   7.320  0.1368  0.1422  0.2583
  751POPS   C4A10830  17.217   3.692   7.656 -0.1141 -0.3082 -0.2753
  751POPS   C1B10831  17.260   4.121   6.843 -0.1505 -0.2424  0.1691
  751POPS   C2B10832  17.140   4.451   7.119 -0.0775 -0.0515  0.2953
  751POPS   C3B10833  16.986   4.872   7.433 -0.2790  0.1896  0.2055
  751POPS   C4B10834  16.673   5.186   7.442 -0.0819  0.1523 -0.2782
  752POPS   CNO10835   5.895  17.943   4.792  0.3121  0.0005 -0.0037
  752POPS   PO410836   5.523  18.068   5.078  0.1043  0.2584  0.2034
  752POPS   GL110837   5.484  18.031   5.508  0.1522 -0.1701 -0.4255
  752POPS   GL210838   5.211  18.228   5.610 -0.0681 -0.2177  0.0786
  752POPS   C1A10839   5.659  17.905   5.970 -0.2884 -0.0822 -0.1005
  752POPS   D2A10840   5.595  17.825   6.383 -0.0771 -0.0803  0.2575
  752POPS   C3A10841   5.494  18.088   6.743 -0.1668 -0.0437  0.0736
  752POPS   C4A10842   5.208  17.879   7.002  0.2965 -0.0268  0.1584
  752POPS   C1B10843   5.174  18.200   6.074  0.1196  0.4769 -0.0180
  752POPS   C2B10844   5.043  18.388   6.425  0.0378 -0.1490  0.1378
  752POPS   C3B10845   5.177  18.703   6.901 -0.0246 -0.0381 -0.0446
  752POPS   C4B10846   5.004  19.140   6.992  0.5062  0.3835  0.2429
  753POPS   CNO10847   7.517  16.729   5.138 -0.0323  0.1823  0.1833
  753POPS   PO410848   7.481  16.723   5.666  0.0462  0.1496  0.1449
  753POPS   GL110849   7.595  16.721   6.014 -0.0278 -0.0742  0.1831
  753POPS   GL210850   7.754  16.525   6.110 -0.2201  0.2435 -0.2635
  753POPS   C1A10851   7.415  16.799   6.478  0.1576  0.2119  0.0446
  753POPS   D2A10852   7.455  16.746   6.937 -0.0354 -0.3677  0.2705
  753POPS   C3A10853   7.293  17.105   7.090  0.1649 -0.2349 -0.2272
  753POPS   C4A10854   7.265  17.457   6.877 -0.1075 -0.0188 -0.0465
  753POPS   C1B10855   7.534  16.329   6.431 -0.1465  0.0642 -0.1619
  753POPS   C2B10856   7.346  15.997   6.618 -0.1429  0.3047 -0.1842
  753POPS   C3B10857   7.249  15.712   6.888 -0.1112 -0.0631  0.0838
  753POPS   C4B10858   6.911  15.625   7.214 -0.1444 -0.2721  0.1270
  754POPS   CNO10859   3.626  14.671   4.960  0.0007 -0.0290  0.1574
  754POPS   PO410860   3.247  14.414   5.132 -0.2035  0.2244 -0.2691
  754POPS   GL110861   3.506  14.283   5.395  0.1000 -0.1430  0.0768
  754POPS   GL210862   3.226  14.121   5.567 -0.7015  0.0339 -0.3281
  754POPS   C1A10863   3.758  14.367   5.685  0.2642 -0.2191  0.0364
  754POPS   D2A10864   4.028  14.627   5.909 -0.1289  0.2158 -0.0158
  754POPS   C3A10865   4.075  14.683   6.316  0.4246 -0.1124 -0.2108
  754POPS   C4A10866   4.120  14.956   6.752  0.1614 -0.0653 -0.1006
  754POPS   C1B10867   3.394  14.111   5.877 -0.0576  0.1247 -0.0600
  754POPS   C2B10868   3.349  14.202   6.308  0.0019  0.3702 -0.0557
  754POPS   C3B10869   3.446  14.312   6.708  0.0214  0.0624  0.3040
  754POPS   C4B10870   3.543  14.519   7.100 -0.2519  0.0488 -0.0007
  755POPS   CNO10871   8.880  12.760   6.161  0.1430 -0.0090 -0.4206
  755POPS   PO410872   9.153  12.360   5.919  0.2028  0.1520 -0.3353
  755POPS   GL110873   8.959  12.161   6.314 -0.6405  0.2185  0.2372
  755POPS   GL210874   9.188  11.878   6.384 -0.1812 -0.1639  0.2084
  755POPS   C1A10875   8.873  12.495   6.606  0.1451  0.1922  0.2394
  755POPS   D2A10876   8.607  12.800   6.839 -0.3092  0.0897 -0.1582
  755POPS   C3A10877   8.790  13.143   7.062  0.0569  0.1643 -0.0217
  755POPS   C4A10878   8.684  13.383   7.411 -0.2103  0.3208 -0.1008
  755POPS   C1B10879   8.822  11.871   6.678  0.0273 -0.2742  0.2907
  755POPS   C2B10880   8.743  11.741   7.096  0.0454 -0.3977 -0.1352
  755POPS   C3B10881   8.546  11.923   7.505 -0.1951  0.2169 -0.1260
  755POPS   C4B10882   8.506  12.377   7.797  0.0615  0.0736 -0.0375
  756POPS   CNO10883   6.924  18.258   5.671  0.1315  0.1405  0.1651
  756POPS   PO410884   6.646  18.108   5.305  0.1526 -0.0260 -0.1255
  756POPS   GL110885   6.380  18.193   5.648 -0.2146 -0.0755 -0.0255
  756POPS   GL210886   6.493  17.927   5.799  0.1249  0.0820  0.2902
  756POPS   C1A10887   6.126  18.141   6.031 -0.1637 -0.2512  0.0622
  756POPS   D2A10888   6.029  18.178   6.518 -0.2346 -0.1131  0.1296
  756POPS   C3A10889   5.871  17.826   6.874 -0.3432 -0.0313  0.2201
  756POPS   C4A10890   5.888  17.492   7.273 -0.0871 -0.2287 -0.1185
  756POPS   C1B10891   6.572  17.840   6.274  0.2056  0.0174 -0.1845
  756POPS   C2B10892   6.444  17.775   6.774 -0.1889 -0.1852 -0.2943
  756POPS   C3B10893   6.507  17.696   7.281  0.1100  0.2359 -0.3849
  756POPS   C4B10894   6.729  17.588   7.679  0.1196  0.1938 -0.1114
  757POPS   CNO10895   2.947  10.644   4.661  0.1754  0.3392  0.2293
  757POPS   PO410896   3.044  10.708   5.127  0.2262  0.1002  0.4111
  757POPS   GL110897   2.677  10.512   5.357  0.1080 -0.4947 -0.2564
  757POPS   GL210898   2.742  10.616   5.626 -0.1195  0.1667 -0.1409
  757POPS   C1A10899   2.264  10.556   5.557  0.0878  0.0406 -0.1417
  757POPS   D2A10900   2.088  10.650   5.978 -0.0045 -0.0935  0.0240
  757POPS   C3A10901   1.972  10.868   6.374 -0.2278  0.0210 -0.0257
  757POPS   C4A10902   2.252  11.115   6.726 -0.1097  0.0799 -0.0000
  757POPS   C1B10903   2.537  10.539   5.999  0.3082  0.2677 -0.0699
  757POPS   C2B10904   2.442  10.990   6.285  0.2096  0.1420  0.1917
  757POPS   C3B10905   2.793  11.297   6.572  0.0673 -0.2188  0.1255
  757POPS   C4B10906   2.712  11.304   7.025 -0.0106  0.0173 -0.1221
  758POPS   CNO10907  16.086   4.130   5.875  0.1181  0.1386  0.1639
  758POPS   PO410908  16.366   4.412   5.684 -0.3657  0.0390  0.0568
  758POPS   GL110909  16.387   4.470   6.101  0.0403 -0.3273 -0.0226
  758POPS   GL210910  16.202   4.451   6.204 -0.1249 -0.0251 -0.1591
  758POPS   C1A10911  16.400   4.308   6.604 -0.0895 -0.1901 -0.1060
  758POPS   D2A10912  16.693   4.203   6.955  0.2482  0.1118  0.0545
  758POPS   C3A10913  16.729   4.425   7.359  0.5727 -0.0984  0.2324
  758POPS   C4A10914  16.647   4.686   7.881 -0.0504  0.1301 -0.2664
  758POPS   C1B10915  15.829   4.377   6.442 -0.3022  0.2229 -0.2300
  758POPS   C2B10916  15.838   4.378   6.894  0.1258  0.1222 -0.1917
  758POPS   C3B10917  15.932   4.396   7.367 -0.3132  0.1312  0.3652
  758POPS   C4B10918  16.007   4.573   7.754  0.2283  0.0383 -0.2482
  759POPS   CNO10919  14.685  10.623   5.716 -0.0493  0.3321  0.0102
  759POPS   PO410920  14.821  10.237   5.992  0.0037 -0.0241 -0.0296
  759POPS   GL110921  15.076  10.323   6.346  0.3269 -0.0127  0.1780
  759POPS   GL210922  14.828  10.321   6.535  0.0130 -0.0371  0.1769
  759POPS   C1A10923  15.322  10.394   6.775  0.1639  0.0405  0.0050
  759POPS   D2A10924  15.631  10.270   7.000  0.2389  0.2452  0.1176
  759POPS   C3A10925  15.698  10.249   7.352  0.1964 -0.1620 -0.0631
  759POPS   C4A10926  15.928  10.073   7.746 -0.3977  0.1991 -0.3654
  759POPS   C1B10927  14.468  10.221   6.633  0.2240  0.3878  0.0874
  759POPS   C2B10928  14.179  10.289   6.909 -0.1350  0.1735 -0.0879
  759POPS   C3B10929  13.911  10.195   7.125  0.1210 -0.2373 -0.3948
  759POPS   C4B10930  13.905  10.309   7.483  0.2063  0.0156 -0.1330
  760POPS   CNO10931   7.704   1.785   5.175  0.0760 -0.4274  0.0925
  760POPS   PO410932   7.542   1.717   5.570 -0.2677 -0.2134  0.1571
  760POPS   GL110933   7.274   1.391   5.781 -0.1247 -0.1557  0.1101
  760POPS   GL210934   7.007   1.396   5.921  0.2187 -0.2391  0.1217
  760POPS   C1A10935   7.421   1.390   6.215  0.2168 -0.0487  0.0758
  760POPS   D2A10936   7.711   1.424   6.393  0.1930 -0.0584  0.1464
  760POPS   C3A10937   7.681   1.379   6.884 -0.2351  0.3560 -0.0906
  760POPS   C4A10938   7.299   1.530   7.211  0.1267 -0.0569  0.0863
  760POPS   C1B10939   6.859   1.078   6.252 -0.0783  0.2292 -0.0149
  760POPS   C2B10940   6.871   0.804   6.625  0.1311 -0.1763  0.2889
  760POPS   C3B10941   6.648   0.579   7.001 -0.1348 -0.1092 -0.2424
  760POPS   C4B10942   6.753   0.518   7.475  0.1400 -0.2493  0.3637
  761POPS   CNO10943  16.100   6.703   5.457  0.1164  0.0974  0.1975
  761POPS   PO410944  16.467   6.560   5.725  0.2337  0.3110 -0.0297
  761POPS   GL110945  16.344   6.669   6.117  0.2867  0.0549 -0.2795
  761POPS   GL210946  16.503   6.951   6.107  0.2475  0.0391  0.0320
  761POPS   C1A10947  16.148   6.634   6.547 -0.1643 -0.2606  0.1050
  761POPS   D2A10948  16.130   6.507   7.036 -0.2156 -0.1915 -0.0561
  761POPS   C3A10949  16.443   6.241   7.208 -0.0508 -0.2291  0.4269
  761POPS   C4A10950  16.361   5.923   7.579  0.3166 -0.2759  0.1816
  761POPS   C1B10951  16.207   7.139   6.374 -0.0658 -0.0281 -0.2164
  761POPS   C2B10952  16.161   7.066   6.764 -0.2130  0.3572 -0.0566
  761POPS   C3B10953  16.013   7.104   7.148  0.1483  0.2104 -0.1664
  761POPS   C4B10954  15.865   6.899   7.428 -0.4449  0.2592 -0.0424
  762POPS   CNO10955   6.177   1.405   5.126  0.0794 -0.1264 -0.0452
  762POPS   PO410956   6.247   1.680   5.389 -0.0382  0.1057 -0.0878
  762POPS   GL110957   6.279   1.915   5.783  0.2171  0.0158 -0.0706
  762POPS   GL210958   5.969   2.073   5.693  0.2245 -0.4088  0.1742
  762POPS   C1A10959   6.124   1.798   6.207 -0.0433 -0.2071 -0.0251
  762POPS   D2A10960   6.391   1.823   6.523 -0.0937  0.0244 -0.2109
  762POPS   C3A10961   6.358   1.553   6.913 -0.0007 -0.0601  0.0323
  762POPS   C4A10962   6.059   1.244   7.255 -0.1375 -0.1681  0.3484
  762POPS   C1B10963   5.776   2.219   6.083 -0.1064 -0.2597  0.0574
  762POPS   C2B10964   6.028   2.199   6.550  0.1519  0.2691  0.1044
  762POPS   C3B10965   6.027   1.934   6.878 -0.1747 -0.0708 -0.0816
  762POPS   C4B10966   5.905   1.776   7.258  0.0317  0.0629  0.3421
  763POPS   CNO10967  16.066   1.807   5.618  0.1729  0.2672 -0.1270
  763POPS   PO410968  15.864   1.747   5.988 -0.2353 -0.1365  0.0676
  763POPS   GL110969  16.124   1.834   6.410 -0.3582 -0.0664  0.0289
  763POPS   GL210970  16.100   1.636   6.643 -0.1641  0.1029 -0.1898
  763POPS   C1A10971  16.387   1.995   6.802  0.1141  0.0137 -0.2371
  763POPS   D2A10972  16.349   1.964   7.271 -0.0261 -0.0083  0.2742
  763POPS   C3A10973  16.003   2.109   7.650 -0.1885  0.0134 -0.0846
  763POPS   C4A10974  15.853   2.165   8.056 -0.0028 -0.1473 -0.1679
  763POPS   C1B10975  15.791   1.448   6.807 -0.0188  0.1245 -0.1010
  763POPS   C2B10976  15.572   1.387   7.045  0.0818  0.0700  0.3036
  763POPS   C3B10977  15.732   1.245   7.541  0.0649  0.2784  0.1530
  763POPS   C4B10978  15.882   0.901   7.886  0.0853 -0.0118 -0.1468
  764POPS   CNO10979  10.299  18.230   6.109  0.0810 -0.0608  0.0347
  764POPS   PO410980  10.566  18.339   5.786 -0.2849 -0.1691 -0.0108
  764POPS   GL110981  10.815  18.304   6.122  0.0989  0.0002 -0.1815
  764POPS   GL210982  10.880  18.046   6.362 -0.1719 -0.2567 -0.1654
  764POPS   C1A10983  11.146  18.516   6.309  0.4566 -0.1053 -0.0032
  764POPS   D2A10984  11.252  18.925   6.372  0.0490  0.1617  0.2719
  764POPS   C3A10985  11.224  18.998   6.701 -0.2178  0.2467 -0.3385
  764POPS   C4A10986  11.291  19.207   7.063  0.2154  0.4753 -0.1088
  764POPS   C1B10987  10.852  18.053   6.810 -0.0894  0.0109 -0.0235
  764POPS   C2B10988  10.831  17.845   7.199  0.2019  0.0307 -0.0771
  764POPS   C3B10989  10.655  17.654   7.383  0.1897  0.2715 -0.1597
  764POPS   C4B10990  10.343  17.308   7.392  0.5376 -0.1960 -0.1557
  765POPS   CNO10991  15.507  15.689   5.481  0.0834  0.0619 -0.0302
  765POPS   PO410992  15.833  15.838   5.787 -0.0150  0.0689  0.1715
  765POPS   GL110993  15.963  16.182   6.118  0.0514  0.0699 -0.1451
  765POPS   GL210994  15.853  16.570   6.111  0.1293  0.3619  0.0822
  765POPS   C1A10995  16.087  16.184   6.569 -0.2146  0.5526  0.3105
  765POPS   D2A10996  16.297  16.062   6.880 -0.0335  0.3208  0.1365
  765POPS   C3A10997  16.029  16.041   7.246  0.1671  0.0024  0.4292
  765POPS   C4A10998  15.911  15.833   7.597  0.0502  0.2493  0.1918
  765POPS   C1B10999  16.277  16.580   6.289 -0.2272 -0.2275 -0.1922
  765POPS   C2B11000  16.553  16.355   6.600  0.4487  0.0742  0.1815
  765POPS   C3B11001  16.843  16.221   6.966  0.1293  0.0619  0.0311
  765POPS   C4B11002  16.810  16.207   7.401  0.0213  0.1767 -0.0641
  766POPS   CNO11003   3.939   6.506   5.380  0.1237  0.1100  0.1593
  766POPS   PO411004   4.187   6.224   5.193 -0.1473 -0.3707 -0.0848
  766POPS   GL111005   4.359   6.092   5.578 -0.1075 -0.1195  0.2322
  766POPS   GL211006   4.598   6.282   5.680 -0.0373 -0.0071  0.3537
  766POPS   C1A11007   4.311   5.890   6.009 -0.1282 -0.2061  0.1144
  766POPS   D2A11008   4.424   5.847   6.410 -0.0593  0.2164  0.1450
  766POPS   C3A11009   4.340   5.552   6.752  0.1578  0.5201  0.2216
  766POPS   C4A11010   4.474   5.056   6.719 -0.0504  0.2924  0.0136
  766POPS   C1B11011   4.656   6.236   6.124  0.0002 -0.3977  0.0046
  766POPS   C2B11012   4.991   6.433   6.315 -0.0973 -0.0299 -0.4396
  766POPS   C3B11013   4.939   6.937   6.433  0.1479  0.0832 -0.0676
  766POPS   C4B11014   5.364   7.070   6.537 -0.1086  0.1043 -0.0351
  767POPS   CNO11015   3.117   5.199   4.893  0.1793 -0.2847  0.1531
  767POPS   PO411016   3.440   5.592   5.032 -0.0030  0.0414  0.0345
  767POPS   GL111017   3.415   5.346   5.281  0.3812  0.1324 -0.2010
  767POPS   GL211018   3.736   5.366   5.426 -0.1236 -0.0640  0.3388
  767POPS   C1A11019   3.098   5.248   5.708 -0.0472 -0.0966 -0.2445
  767POPS   D2A11020   3.013   5.023   6.053  0.2411 -0.0067 -0.0943
  767POPS   C3A11021   2.830   5.036   6.353 -0.0241 -0.3566 -0.0597
  767POPS   C4A11022   2.513   5.263   6.513  0.1043 -0.0214  0.0084
  767POPS   C1B11023   3.709   5.176   5.794  0.2643  0.3432 -0.3907
  767POPS   C2B11024   3.833   5.353   6.197 -0.0752  0.1844 -0.4576
  767POPS   C3B11025   3.918   5.210   6.557  0.0664 -0.1310 -0.0379
  767POPS   C4B11026   4.063   5.221   6.999 -0.2267  0.0003 -0.1619
  768POPS   CNO11027   5.385   4.787   4.765  0.3140 -0.0233 -0.2828
  768POPS   PO411028   5.675   4.547   5.002  0.0724 -0.0857  0.2636
  768POPS   GL111029   5.604   4.516   5.488 -0.2985 -0.0089 -0.2267
  768POPS   GL211030   5.502   4.251   5.560  0.0849  0.1319  0.1644
  768POPS   C1A11031   5.815   4.669   5.873 -0.1198  0.0079 -0.0282
  768POPS   D2A11032   5.734   4.938   6.145  0.2276  0.1649 -0.1715
  768POPS   C3A11033   6.164   4.922   6.418  0.0881 -0.0491  0.1616
  768POPS   C4A11034   6.352   4.784   6.901  0.0819 -0.0668  0.0391
  768POPS   C1B11035   5.568   4.063   6.007 -0.3072 -0.2507  0.1465
  768POPS   C2B11036   5.582   4.210   6.398  0.1752 -0.0498  0.1677
  768POPS   C3B11037   5.537   4.179   6.837 -0.1304  0.0947  0.0686
  768POPS   C4B11038   5.547   4.387   7.254 -0.3018 -0.0546 -0.0266
  769POPS   CNO11039  17.046  10.995   5.122 -0.2670  0.0627  0.0177
  769POPS   PO411040  16.798  10.974   5.432  0.0392  0.1672  0.1656
  769POPS   GL111041  16.969  10.958   5.933 -0.0958 -0.2205 -0.3311
  769POPS   GL211042  17.112  11.270   6.066 -0.0576  0.0392 -0.2077
  769POPS   C1A11043  16.893  10.737   6.256  0.0576 -0.0778 -0.1705
  769POPS   D2A11044  16.682  10.421   6.355  0.0242  0.1807  0.1485
  769POPS   C3A11045  16.452  10.349   6.813  0.0606  0.1249  0.2499
  769POPS   C4A11046  16.504  10.227   7.159 -0.2442  0.5476  0.1185
  769POPS   C1B11047  16.870  11.215   6.440  0.0676  0.0928 -0.0504
  769POPS   C2B11048  16.914  11.086   6.841  0.5905  0.0888  0.1795
  769POPS   C3B11049  17.155  10.922   7.162  0.3042  0.2437  0.0390
  769POPS   C4B11050  17.319  11.029   7.503 -0.0391  0.1250  0.2641
  770POPS   CNO11051   9.537  13.129   5.405  0.2699 -0.0359  0.2622
  770POPS   PO411052   9.474  13.551   5.471 -0.0312  0.1794  0.0123
  770POPS   GL111053   9.532  13.481   5.832  0.1130 -0.3986 -0.1305
  770POPS   GL211054   9.654  13.745   5.938 -0.1841  0.0184  0.1730
  770POPS   C1A11055   9.309  13.619   6.255  0.1342  0.0810 -0.1603
  770POPS   D2A11056   9.034  13.632   6.635 -0.1133  0.0266 -0.1385
  770POPS   C3A11057   9.078  13.736   7.026 -0.6130  0.1477 -0.0319
  770POPS   C4A11058   9.234  13.728   7.526  0.2181 -0.0284 -0.2722
  770POPS   C1B11059   9.741  13.736   6.390 -0.0751  0.0257  0.2817
  770POPS   C2B11060   9.945  13.808   6.791  0.2622 -0.1444 -0.2351
  770POPS   C3B11061  10.129  13.899   7.116 -0.1659 -0.1331 -0.1480
  770POPS   C4B11062  10.110  14.200   7.393  0.1653 -0.3209  0.0991
  771POPS   CNO11063   8.388  12.387   5.424  0.0527  0.0592 -0.0245
  771POPS   PO411064   8.355  12.178   5.788  0.0298  0.0565 -0.0229
  771POPS   GL111065   8.027  12.055   6.153 -0.3066 -0.0469  0.2011
  771POPS   GL211066   8.198  11.842   6.312  0.1519  0.0808  0.1674
  771POPS   C1A11067   7.842  11.816   6.631 -0.1142 -0.1201  0.2107
  771POPS   D2A11068   7.772  11.663   7.079  0.4687  0.0595 -0.1285
  771POPS   C3A11069   7.365  11.805   7.220  0.0361  0.1576  0.0824
  771POPS   C4A11070   7.083  12.063   7.370 -0.2019 -0.1317  0.1204
  771POPS   C1B11071   8.268  11.600   6.668  0.3538 -0.3466  0.0740
  771POPS   C2B11072   8.287  11.501   7.078 -0.0384  0.1918  0.1125
  771POPS   C3B11073   8.267  11.379   7.479  0.2554  0.3367  0.0988
  771POPS   C4B11074   8.319  11.519   7.809  0.2036  0.0670 -0.0238
  772POPS   CNO11075   2.260   7.430   4.883 -0.3014  0.2887 -0.1963
  772POPS   PO411076   2.378   7.760   5.061  0.1976 -0.1631 -0.3263
  772POPS   GL111077   2.406   8.050   5.389 -0.1180 -0.0365  0.1138
  772POPS   GL211078   2.036   8.063   5.621  0.0614  0.1134  0.2213
  772POPS   C1A11079   2.629   8.146   5.779  0.5808  0.1835 -0.3227
  772POPS   D2A11080   2.690   8.048   6.176  0.2601  0.1606  0.0954
  772POPS   C3A11081   2.983   8.283   6.502 -0.0027 -0.0505  0.1102
  772POPS   C4A11082   2.987   8.721   6.623  0.0343  0.2854 -0.0306
  772POPS   C1B11083   2.181   8.359   5.770 -0.2700  0.1747 -0.1874
  772POPS   C2B11084   2.063   8.544   6.220  0.0453  0.2243 -0.1771
  772POPS   C3B11085   2.036   8.361   6.512  0.0878  0.0924  0.2017
  772POPS   C4B11086   2.046   8.325   7.002 -0.2212 -0.4064 -0.0557
  773POPS   CNO11087  17.884  11.871   5.624 -0.1100 -0.1350 -0.0360
  773POPS   PO411088  17.796  11.431   5.566 -0.0230  0.0044  0.3551
  773POPS   GL111089  18.123  11.498   5.898  0.1434  0.2176 -0.0507
  773POPS   GL211090  18.252  11.136   5.962  0.0294  0.0354 -0.0979
  773POPS   C1A11091  18.350  11.373   6.396  0.3394  0.2846  0.0788
  773POPS   D2A11092  18.390  11.574   6.789  0.1841  0.0919 -0.4960
  773POPS   C3A11093  18.332  11.312   7.215  0.2765 -0.4313  0.2863
  773POPS   C4A11094  18.111  11.280   7.617  0.0235  0.2364  0.0226
  773POPS   C1B11095  18.369  10.812   6.315 -0.2626 -0.2218 -0.1194
  773POPS   C2B11096  18.558  11.009   6.691 -0.3235 -0.0982 -0.1508
  773POPS   C3B11097  18.714  11.020   7.107  0.1493  0.1536  0.1191
  773POPS   C4B11098  18.968  11.264   7.351  0.0724 -0.2489 -0.0161
  774POPS   CNO11099  17.449   2.952   6.070  0.0707 -0.0205  0.0401
  774POPS   PO411100  17.898   3.028   6.129  0.2531  0.0555  0.3280
  774POPS   GL111101  17.828   3.465   6.228  0.1658  0.2719  0.1199
  774POPS   GL211102  17.546   3.384   6.365  0.0606 -0.0633 -0.1509
  774POPS   C1A11103  17.961   3.689   6.623  0.1019 -0.0536 -0.4177
  774POPS   D2A11104  17.810   3.813   7.121 -0.2399  0.3692  0.1615
  774POPS   C3A11105  17.733   3.433   7.367 -0.1050 -0.3111  0.2696
  774POPS   C4A11106  17.641   2.926   7.297  0.1420 -0.2133  0.1569
  774POPS   C1B11107  17.624   3.111   6.770  0.0384  0.0116 -0.0222
  774POPS   C2B11108  17.910   2.662   6.746 -0.0213  0.0129 -0.2223
  774POPS   C3B11109  18.357   2.564   6.875  0.0207  0.1545  0.0316
  774POPS   C4B11110  18.298   2.213   6.843 -0.2119 -0.0079 -0.2440
  775POPS   CNO11111   0.562  17.339   5.187  0.0340  0.1532 -0.1092
  775POPS   PO411112   0.972  17.397   5.352 -0.2294  0.0584 -0.0374
  775POPS   GL111113   0.774  17.209   5.713 -0.0983  0.0238  0.0290
  775POPS   GL211114   0.622  17.000   5.659  0.1905  0.0011  0.0239
  775POPS   C1A11115   0.595  17.228   6.164 -0.0917  0.1408 -0.1936
  775POPS   D2A11116   0.599  17.274   6.560  0.0040  0.0481  0.1215
  775POPS   C3A11117   0.741  17.547   6.951 -0.0934 -0.0347  0.1406
  775POPS   C4A11118   0.782  17.911   7.012  0.1513  0.1162  0.0528
  775POPS   C1B11119   0.894  16.812   6.064  0.2989  0.1306  0.0835
  775POPS   C2B11120   1.138  16.714   6.340 -0.1402  0.2060 -0.2718
  775POPS   C3B11121   1.391  16.578   6.631  0.0085  0.3754  0.0632
  775POPS   C4B11122   1.623  16.282   6.571  0.2363  0.1590  0.2319
  776POPS   CNO11123  13.572  14.519   5.596  0.2324 -0.3892  0.2517
  776POPS   PO411124  13.358  14.615   5.933  0.0944 -0.0488  0.1516
  776POPS   GL111125  13.453  14.758   6.347 -0.1042 -0.0130  0.0863
  776POPS   GL211126  13.527  14.993   6.518 -0.2422 -0.0510  0.2947
  776POPS   C1A11127  13.210  14.677   6.790  0.1507 -0.0934  0.0894
  776POPS   D2A11128  13.199  14.262   7.076  0.2823 -0.1804  0.0280
  776POPS   C3A11129  13.083  14.434   7.450 -0.2793 -0.1138 -0.0784
  776POPS   C4A11130  13.204  14.842   7.663 -0.2170  0.1143 -0.2697
  776POPS   C1B11131  13.690  15.205   6.841 -0.0443 -0.0907 -0.0435
  776POPS   C2B11132  13.854  15.565   7.238 -0.3757 -0.0747 -0.1494
  776POPS   C3B11133  14.049  15.674   7.686 -0.0607 -0.3530 -0.3422
  776POPS   C4B11134  14.264  16.010   7.830  0.0733 -0.0156 -0.2083
  777POPS   CNO11135   9.078   1.301   5.184 -0.0938  0.2475 -0.0314
  777POPS   PO411136   9.263   1.331   5.489  0.2603  0.0259  0.0084
  777POPS   GL111137   9.290   1.458   5.961  0.0766 -0.0239 -0.1107
  777POPS   GL211138   9.011   1.527   6.197 -0.1252 -0.1032 -0.3370
  777POPS   C1A11139   9.387   1.836   6.235  0.1829  0.0973  0.2471
  777POPS   D2A11140   9.507   1.895   6.639 -0.1310 -0.1844  0.1127
  777POPS   C3A11141   9.328   2.215   6.734 -0.2477 -0.0141  0.0648
  777POPS   C4A11142   9.061   2.495   7.030  0.2475 -0.1879 -0.3001
  777POPS   C1B11143   9.150   1.598   6.588  0.0994  0.2124  0.0403
  777POPS   C2B11144   9.225   1.694   6.963 -0.1293  0.4204  0.2560
  777POPS   C3B11145   9.333   2.072   7.188 -0.1059 -0.1013  0.0897
  777POPS   C4B11146   9.721   2.141   6.989 -0.0297 -0.0471 -0.1871
  778POPS   CNO11147  15.577   6.015   5.322 -0.1377  0.0232  0.0271
  778POPS   PO411148  15.481   6.350   5.626  0.1435 -0.1874  0.2205
  778POPS   GL111149  15.582   6.114   6.008  0.2345  0.1251  0.0130
  778POPS   GL211150  15.856   5.951   6.101 -0.0745  0.0607  0.3934
  778POPS   C1A11151  15.384   6.029   6.385  0.0766  0.1552  0.0256
  778POPS   D2A11152  15.361   6.046   6.817 -0.1751  0.0517  0.1851
  778POPS   C3A11153  15.573   5.776   6.984  0.0552 -0.1723 -0.3302
  778POPS   C4A11154  15.437   5.790   7.376 -0.0049 -0.0575 -0.1133
  778POPS   C1B11155  15.782   5.603   6.365  0.0683  0.4549  0.3614
  778POPS   C2B11156  15.474   5.399   6.583  0.1006 -0.0402 -0.3757
  778POPS   C3B11157  15.335   5.300   7.082 -0.0743 -0.1060  0.0950
  778POPS   C4B11158  15.076   5.357   7.287 -0.5143  0.1885 -0.1552
  779POPS   CNO11159   2.736  18.611   5.330  0.3466  0.0860 -0.1388
  779POPS   PO411160   2.961  18.196   5.374  0.5211 -0.1569 -0.1208
  779POPS   GL111161   3.014  18.138   5.788  0.1598  0.0485 -0.0650
  779POPS   GL211162   2.693  18.363   5.816 -0.0434  0.5463 -0.0311
  779POPS   C1A11163   2.714  17.892   5.979  0.1331 -0.0097  0.1602
  779POPS   D2A11164   2.383  17.678   6.099  0.0812 -0.1988 -0.0326
  779POPS   C3A11165   2.006  17.869   6.313  0.0070  0.0343  0.0910
  779POPS   C4A11166   2.061  18.190   6.566  0.1434 -0.0532  0.1520
  779POPS   C1B11167   2.955  18.278   6.246  0.1830 -0.1564  0.3689
  779POPS   C2B11168   2.813  18.309   6.745 -0.0323 -0.1020 -0.1329
  779POPS   C3B11169   2.718  18.407   7.146  0.1446  0.0361  0.1695
  779POPS   C4B11170   2.594  18.178   7.311 -0.2675 -0.2033  0.1282
  780POPS   CNO11171  13.980  13.721   6.151 -0.0074  0.2032  0.0598
  780POPS   PO411172  13.761  13.365   6.321 -0.0591 -0.0159 -0.0697
  780POPS   GL111173  13.621  13.314   6.794 -0.1580  0.0050 -0.2127
  780POPS   GL211174  13.809  13.705   7.004  0.2108 -0.0156 -0.0923
  780POPS   C1A11175  13.535  13.256   7.205 -0.2205 -0.1762  0.3397
  780POPS   D2A11176  13.509  13.473   7.639  0.1309  0.0563  0.0377
  780POPS   C3A11177  13.620  13.255   8.053 -0.0946 -0.0317  0.1550
  780POPS   C4A11178  13.770  12.976   8.324 -0.0663  0.0424 -0.3369
  780POPS   C1B11179  13.900  13.541   7.409 -0.2286  0.3535  0.2239
  780POPS   C2B11180  14.017  13.542   7.763  0.0644  0.3174 -0.0638
  780POPS   C3B11181  14.400  13.441   7.902 -0.3138 -0.0848 -0.3390
  780POPS   C4B11182  14.538  13.161   8.155 -0.5688  0.0353  0.0796
  781POPS   CNO11183  15.901   5.289   5.933  0.1364  0.0365 -0.0258
  781POPS   PO411184  15.473   5.254   5.782  0.2110  0.1452  0.0643
  781POPS   GL111185  15.375   5.213   6.151 -0.0285 -0.1154 -0.0284
  781POPS   GL211186  15.029   5.227   6.056  0.0293 -0.0215 -0.2107
  781POPS   C1A11187  15.118   5.106   6.561 -0.0721  0.3256 -0.1866
  781POPS   D2A11188  15.094   4.892   6.926  0.0249 -0.2171  0.4463
  781POPS   C3A11189  15.159   4.892   7.342 -0.2355 -0.0827 -0.2679
  781POPS   C4A11190  14.894   4.912   7.702 -0.1315 -0.0008  0.0371
  781POPS   C1B11191  14.635   5.191   6.202  0.0894 -0.0689 -0.1753
  781POPS   C2B11192  14.487   4.991   6.531  0.3458 -0.1830 -0.1281
  781POPS   C3B11193  14.116   4.941   6.862  0.1255  0.1121  0.0569
  781POPS   C4B11194  13.743   5.166   6.996  0.1164 -0.3699  0.1258
  782POPS   CNO11195  11.854  14.323   5.676 -0.2247  0.1391  0.0852
  782POPS   PO411196  11.405  14.621   5.597  0.1529  0.0479 -0.1032
  782POPS   GL111197  11.484  14.548   6.065  0.1667  0.1919  0.0409
  782POPS   GL211198  11.203  14.609   6.247 -0.3294  0.1468 -0.0419
  782POPS   C1A11199  11.748  14.581   6.472 -0.2672 -0.0686 -0.0268
  782POPS   D2A11200  12.142  14.618   6.775 -0.0254  0.1467 -0.4803
  782POPS   C3A11201  12.201  14.499   7.301  0.0427  0.6778  0.2443
  782POPS   C4A11202  11.868  14.635   7.579  0.0870  0.0827 -0.0198
  782POPS   C1B11203  11.329  14.316   6.547 -0.0671 -0.3345 -0.0888
  782POPS   C2B11204  11.127  14.207   6.877 -0.0522  0.1834 -0.1031
  782POPS   C3B11205  11.204  14.160   7.262  0.0125  0.0236 -0.1126
  782POPS   C4B11206  11.559  14.264   7.594 -0.0739  0.1595 -0.1894
  783POPS   CNO11207   8.159   5.175   5.321  0.3484  0.1880 -0.0960
  783POPS   PO411208   8.009   5.599   5.329  0.1376 -0.2071  0.1275
  783POPS   GL111209   7.856   5.367   5.757 -0.1922  0.2429  0.0881
  783POPS   GL211210   8.068   5.493   5.920 -0.1161  0.0984 -0.0945
  783POPS   C1A11211   7.900   5.123   6.152  0.2511 -0.1104  0.0023
  783POPS   D2A11212   8.309   4.959   6.365  0.4016 -0.1733  0.1736
  783POPS   C3A11213   8.221   4.565   6.570  0.3462 -0.1628  0.3191
  783POPS   C4A11214   8.455   4.190   6.594 -0.0808  0.1834 -0.0299
  783POPS   C1B11215   8.155   5.607   6.378  0.0439  0.1225  0.0906
  783POPS   C2B11216   8.232   5.470   6.724  0.0241 -0.0861  0.0839
  783POPS   C3B11217   8.267   5.559   7.098  0.2007 -0.0593  0.0416
  783POPS   C4B11218   7.953   5.588   7.422  0.3644 -0.1546  0.1755
  784POPS   CNO11219   2.211   2.107   5.040  0.1547  0.0012 -0.0819
  784POPS   PO411220   2.537   1.802   5.196 -0.2550 -0.0985 -0.0961
  784POPS   GL111221   2.557   1.454   5.561 -0.3980 -0.0589  0.3778
  784POPS   GL211222   2.497   1.247   5.684 -0.0944 -0.0637 -0.2671
  784POPS   C1A11223   2.627   1.423   6.074 -0.3386 -0.3105 -0.4211
  784POPS   D2A11224   2.417   1.578   6.488 -0.0797 -0.0802 -0.0916
  784POPS   C3A11225   2.270   1.303   6.783 -0.1693  0.1926 -0.3900
  784POPS   C4A11226   1.992   1.300   7.194 -0.1042  0.0319  0.0418
  784POPS   C1B11227   2.312   1.019   6.008  0.3073 -0.1794 -0.2157
  784POPS   C2B11228   2.169   0.917   6.434  0.1031 -0.0317 -0.1960
  784POPS   C3B11229   1.980   0.896   6.719  0.2092 -0.2471  0.1865
  784POPS   C4B11230   1.606   1.005   7.116  0.0752 -0.0380 -0.1563
  785POPS   CNO11231  18.599  17.045   5.596  0.0614  0.1082  0.1120
  785POPS   PO411232  18.931  16.782   5.636 -0.0870 -0.1326  0.1785
  785POPS   GL111233  18.971  16.848   6.039  0.1164  0.0619 -0.1594
  785POPS   GL211234  19.062  17.130   6.168 -0.0758  0.2109 -0.1435
  785POPS   C1A11235  19.084  16.640   6.439 -0.0441 -0.1712  0.3566
  785POPS   D2A11236  19.054  16.529   6.916 -0.0712 -0.1904  0.1488
  785POPS   C3A11237  18.669  16.695   7.095 -0.1596  0.0144 -0.1667
  785POPS   C4A11238  18.701  17.113   7.240  0.0330  0.0763 -0.3683
  785POPS   C1B11239  19.327  17.117   6.452 -0.4512 -0.2399  0.0487
  785POPS   C2B11240  19.333  16.854   6.789 -0.3377 -0.0035 -0.0371
  785POPS   C3B11241  19.120  16.872   7.268  0.1972 -0.3221  0.0121
  785POPS   C4B11242  19.140  17.080   7.551 -0.3497  0.0380  0.5556
  786POPS   CNO11243  15.404  13.480   6.065 -0.2303 -0.0811  0.0734
  786POPS   PO411244  14.943  13.322   6.263  0.0373 -0.2678 -0.2060
  786POPS   GL111245  14.961  13.074   6.615  0.2283 -0.1096  0.1098
  786POPS   GL211246  15.182  12.865   6.725 -0.0664 -0.0318 -0.0871
  786POPS   C1A11247  14.834  13.050   6.986 -0.3080  0.0090 -0.1079
  786POPS   D2A11248  14.528  12.877   7.200  0.0748  0.3164 -0.1910
  786POPS   C3A11249  14.803  12.919   7.547  0.2300  0.1025 -0.0252
  786POPS   C4A11250  14.834  13.209   7.678  0.1574 -0.0132 -0.2422
  786POPS   C1B11251  15.312  12.879   7.210 -0.2110 -0.0235 -0.0044
  786POPS   C2B11252  15.541  13.023   7.454 -0.0801 -0.2517  0.0996
  786POPS   C3B11253  15.749  13.342   7.695 -0.3330  0.3220 -0.1086
  786POPS   C4B11254  16.023  13.419   7.892 -0.1379 -0.2506 -0.1004
  787POPS   CNO11255   3.882   8.186   5.130 -0.2180  0.1088 -0.1276
  787POPS   PO411256   4.315   8.259   5.238  0.2640  0.2118  0.1755
  787POPS   GL111257   4.350   8.205   5.631  0.0110  0.1633 -0.2686
  787POPS   GL211258   4.189   8.395   5.686 -0.1004  0.2198 -0.2605
  787POPS   C1A11259   4.554   8.384   6.051 -0.1706 -0.0916  0.2276
  787POPS   D2A11260   4.707   8.794   6.296  0.0718 -0.0360 -0.2349
  787POPS   C3A11261   4.992   8.770   6.518 -0.3475  0.1575 -0.0916
  787POPS   C4A11262   5.412   8.840   6.575 -0.0096  0.3294 -0.0094
  787POPS   C1B11263   4.064   8.325   6.045  0.3229 -0.2331  0.1534
  787POPS   C2B11264   4.168   8.444   6.455  0.0120  0.0155  0.0370
  787POPS   C3B11265   3.930   8.699   6.569 -0.1170  0.4640  0.1097
  787POPS   C4B11266   3.896   9.047   6.800 -0.1856 -0.1282  0.1488
  788POPS   CNO11267   3.208  15.029   5.010  0.0690 -0.3375  0.1367
  788POPS   PO411268   3.056  15.414   5.078  0.1286  0.0594 -0.0768
  788POPS   GL111269   3.302  15.426   5.328 -0.0487 -0.0190  0.0214
  788POPS   GL211270   3.107  15.653   5.575 -0.0974 -0.2045  0.1583
  788POPS   C1A11271   3.356  15.208   5.699  0.4505 -0.0143 -0.1633
  788POPS   D2A11272   3.694  15.047   5.826  0.1058  0.0487  0.3896
  788POPS   C3A11273   3.767  15.195   6.111  0.4112  0.1086 -0.0402
  788POPS   C4A11274   4.142  15.324   6.393 -0.0760 -0.0533  0.1123
  788POPS   C1B11275   3.203  15.528   6.047  0.2097 -0.2987 -0.0174
  788POPS   C2B11276   3.347  15.272   6.418 -0.0815  0.1114  0.3010
  788POPS   C3B11277   3.104  15.012   6.722  0.3001 -0.0002 -0.0145
  788POPS   C4B11278   3.073  14.615   6.935  0.0727  0.0169  0.3409
  789POPS   CNO11279  17.394  14.097   5.189 -0.1429 -0.0762  0.1402
  789POPS   PO411280  17.157  14.481   5.400  0.1718  0.0343  0.0776
  789POPS   GL111281  17.299  14.458   5.784 -0.2113 -0.0396  0.2539
  789POPS   GL211282  17.308  14.752   5.981 -0.0692 -0.2394 -0.2296
  789POPS   C1A11283  17.408  14.260   6.162  0.1957 -0.0709  0.0542
  789POPS   D2A11284  17.483  14.153   6.695  0.1394 -0.0434  0.1141
  789POPS   C3A11285  17.780  13.942   6.839  0.0485 -0.3609  0.2500
  789POPS   C4A11286  17.683  13.475   6.939  0.1919  0.1048  0.0241
  789POPS   C1B11287  17.203  14.554   6.446 -0.4484 -0.0638 -0.1177
  789POPS   C2B11288  17.179  14.521   6.865  0.0097  0.4092 -0.1631
  789POPS   C3B11289  17.171  14.198   7.320  0.2284  0.0332  0.0900
  789POPS   C4B11290  17.238  14.361   7.677 -0.1801 -0.1368  0.1167
  790POPS   CNO11291   0.280  19.129   5.231  0.1771 -0.3120 -0.1567
  790POPS   PO411292   0.127  18.717   5.505 -0.0303  0.0733 -0.4048
  790POPS   GL111293   0.072  19.171   5.702 -0.0368  0.1837  0.0677
  790POPS   GL211294   0.394  19.136   5.906 -0.0945 -0.2506 -0.1341
  790POPS   C1A11295   0.094  19.584   5.965 -0.1283 -0.2916  0.0770
  790POPS   D2A11296   0.056  19.860   6.339 -0.0586 -0.5738  0.1215
  790POPS   C3A11297  -0.036  19.629   6.741 -0.0027  0.0572 -0.1546
  790POPS   C4A11298   0.052  19.638   7.248 -0.1095 -0.1328  0.1252
  790POPS   C1B11299   0.036  19.157   6.246 -0.1054  0.2623 -0.1808
  790POPS   C2B11300  -0.136  19.117   6.581  0.0220  0.3715 -0.3002
  790POPS   C3B11301   0.022  19.047   6.947 -0.0655 -0.1643  0.1202
  790POPS   C4B11302   0.123  18.915   7.343 -0.2947 -0.1631  0.3131
  791POPS   CNO11303   6.786  12.790   5.233  0.1338  0.1472  0.0588
  791POPS   PO411304   6.662  13.169   5.440  0.1515 -0.1717 -0.1549
  791POPS   GL111305   6.574  13.215   5.884 -0.1628  0.2277  0.0302
  791POPS   GL211306   6.304  13.214   5.931 -0.0170 -0.3582  0.0421
  791POPS   C1A11307   6.525  13.162   6.353  0.0322  0.0039  0.0889
  791POPS   D2A11308   6.463  13.448   6.704  0.0012 -0.0817 -0.1454
  791POPS   C3A11309   6.017  13.660   6.674 -0.2773 -0.1499 -0.1952
  791POPS   C4A11310   5.753  13.925   6.789 -0.2313  0.0112  0.0166
  791POPS   C1B11311   6.142  13.427   6.288  0.2689 -0.3319  0.1368
  791POPS   C2B11312   6.130  13.081   6.680  0.0373  0.0699 -0.0116
  791POPS   C3B11313   5.887  12.758   6.805 -0.0174  0.1677  0.0328
  791POPS   C4B11314   5.774  12.502   7.174 -0.2171 -0.0829 -0.0764
  792POPS   CNO11315   8.862  10.759   5.231 -0.0421  0.2019 -0.0721
  792POPS   PO411316   8.778  10.802   5.609 -0.1794 -0.1985 -0.2833
  792POPS   GL111317   8.891  10.644   6.027 -0.2342  0.0639  0.0636
  792POPS   GL211318   8.837  10.341   6.127 -0.0092 -0.2844 -0.1501
  792POPS   C1A11319   9.086  10.531   6.473 -0.1525  0.1009 -0.2689
  792POPS   D2A11320   9.066  10.511   6.985 -0.0697 -0.0384  0.2149
  792POPS   C3A11321   8.653  10.386   7.282  0.1991 -0.2441  0.1800
  792POPS   C4A11322   8.251  10.138   7.425  0.0998 -0.0913 -0.2481
  792POPS   C1B11323   8.676  10.253   6.473  0.1340 -0.0055  0.3417
  792POPS   C2B11324   8.722  10.125   6.847 -0.2788  0.0398  0.2262
  792POPS   C3B11325   8.647   9.812   7.210  0.0825 -0.3109  0.1905
  792POPS   C4B11326   8.436   9.517   7.326  0.1058 -0.3901  0.3258
  793POPS   CNO11327   1.285  16.139   4.931 -0.2281 -0.2461  0.0763
  793POPS   PO411328   1.451  15.766   4.997  0.1928 -0.4080  0.1414
  793POPS   GL111329   1.644  15.638   5.367  0.0512 -0.0328 -0.1742
  793POPS   GL211330   1.829  15.885   5.464 -0.0297 -0.4467 -0.1776
  793POPS   C1A11331   1.863  15.430   5.688  0.2068 -0.1776 -0.1401
  793POPS   D2A11332   2.126  15.424   5.954  0.0705 -0.1269 -0.2261
  793POPS   C3A11333   2.029  15.635   6.285 -0.1145  0.1146  0.1934
  793POPS   C4A11334   2.304  15.692   6.698  0.4038 -0.3836 -0.1985
  793POPS   C1B11335   1.909  16.007   5.962  0.0011  0.1504 -0.1817
  793POPS   C2B11336   2.032  16.115   6.445 -0.2032 -0.1028  0.1343
  793POPS   C3B11337   1.995  16.073   6.897  0.1044 -0.0738  0.1102
  793POPS   C4B11338   2.142  15.958   7.249  0.0204  0.1832 -0.2437
  794POPS   CNO11339   0.503   9.576   4.982 -0.3345 -0.1126 -0.2129
  794POPS   PO411340   0.407  10.040   5.018 -0.2169 -0.2310  0.2162
  794POPS   GL111341   0.347   9.903   5.477 -0.3370  0.1088 -0.0646
  794POPS   GL211342   0.201   9.568   5.483 -0.2079  0.1477  0.1320
  794POPS   C1A11343   0.659   9.933   5.955  0.0163  0.0586 -0.0087
  794POPS   D2A11344   0.877  10.150   6.156 -0.1398 -0.1769 -0.1116
  794POPS   C3A11345   0.721  10.262   6.502  0.1257  0.0814  0.1244
  794POPS   C4A11346   0.628  10.665   6.848  0.2029  0.0492  0.2333
  794POPS   C1B11347   0.331   9.456   5.823 -0.3258  0.1952  0.1519
  794POPS   C2B11348   0.486   9.537   6.200 -0.1017 -0.2146  0.1582
  794POPS   C3B11349   0.829   9.655   6.423 -0.1417  0.3491 -0.0327
  794POPS   C4B11350   1.056   9.715   6.778  0.3657 -0.1509  0.1672
  795POPS   CNO11351   9.181  17.243   5.631  0.0244  0.1733 -0.1295
  795POPS   PO411352   8.748  17.245   5.720  0.3817 -0.1103 -0.1810
  795POPS   GL111353   8.491  17.311   6.097 -0.2389 -0.3306 -0.0594
  795POPS   GL211354   8.547  17.677   6.075 -0.3223 -0.1460  0.1692
  795POPS   C1A11355   8.380  17.426   6.508 -0.0484 -0.4675  0.3394
  795POPS   D2A11356   8.673  17.523   6.823  0.1494  0.0764  0.1174
  795POPS   C3A11357   8.836  17.433   7.138 -0.0330  0.2851  0.0219
  795POPS   C4A11358   8.829  17.301   7.510 -0.2197 -0.1229  0.0390
  795POPS   C1B11359   8.505  17.911   6.396 -0.0813 -0.1780 -0.0820
  795POPS   C2B11360   8.181  17.950   6.675  0.1955 -0.1997  0.1063
  795POPS   C3B11361   7.969  17.957   7.094  0.0462 -0.0228 -0.0088
  795POPS   C4B11362   8.128  18.072   7.542 -0.0687  0.1794 -0.1116
  796POPS   CNO11363  17.322   6.483   5.414 -0.1078 -0.0829 -0.1401
  796POPS   PO411364  17.056   6.229   5.756  0.1058 -0.0930  0.3713
  796POPS   GL111365  17.278   6.206   6.152  0.2332  0.1613  0.0811
  796POPS   GL211366  17.566   6.077   6.052 -0.1174  0.3542  0.2206
  796POPS   C1A11367  17.075   6.174   6.531  0.1734  0.4013 -0.3482
  796POPS   D2A11368  17.096   6.448   6.901 -0.2444 -0.1414 -0.1115
  796POPS   C3A11369  17.390   6.264   7.278 -0.1180  0.0516  0.0303
  796POPS   C4A11370  17.466   5.932   7.523  0.3499 -0.1045  0.0943
  796POPS   C1B11371  17.658   6.021   6.422  0.1283  0.1373 -0.1603
  796POPS   C2B11372  17.507   6.048   6.810 -0.1867  0.4104 -0.0302
  796POPS   C3B11373  17.324   5.745   7.117 -0.1821 -0.0020 -0.0342
  796POPS   C4B11374  17.123   5.302   7.114  0.0099  0.0080 -0.1606
  797POPS   CNO11375   8.254  18.582   5.497 -0.0665 -0.1259 -0.1520
  797POPS   PO411376   8.129  18.133   5.657 -0.1858  0.0689  0.2838
  797POPS   GL111377   8.030  17.931   6.152  0.2249 -0.0219  0.1319
  797POPS   GL211378   7.910  18.108   6.312  0.1694  0.1258 -0.4493
  797POPS   C1A11379   7.940  17.553   6.336 -0.2681  0.2379 -0.1874
  797POPS   D2A11380   7.806  17.573   6.713  0.0640 -0.0265  0.0515
  797POPS   C3A11381   8.119  17.493   6.911 -0.1861 -0.0489  0.1832
  797POPS   C4A11382   8.307  17.290   7.165  0.0661 -0.1932  0.2760
  797POPS   C1B11383   7.496  17.921   6.452  0.0687 -0.1569 -0.0519
  797POPS   C2B11384   7.474  17.971   6.786 -0.0769  0.0032  0.0631
  797POPS   C3B11385   7.394  17.851   7.247 -0.3818  0.0557  0.2771
  797POPS   C4B11386   7.089  17.503   7.355 -0.1230  0.2409 -0.3009
  798POPS   CNO11387  18.699   9.134   5.284 -0.4160  0.3323 -0.3704
  798POPS   PO411388  18.868   9.382   5.482  0.0524 -0.1324 -0.1148
  798POPS   GL111389  19.085   9.109   5.797 -0.3450  0.1788 -0.1053
  798POPS   GL211390  18.938   8.802   5.850  0.1563 -0.0593 -0.0880
  798POPS   C1A11391  19.369   9.113   6.221 -0.0637 -0.0567  0.1333
  798POPS   D2A11392  19.504   9.142   6.557  0.1346 -0.1579  0.0623
  798POPS   C3A11393  19.320   9.028   6.968 -0.2770 -0.1289 -0.1015
  798POPS   C4A11394  19.233   8.937   7.279  0.0875  0.1510 -0.4610
  798POPS   C1B11395  19.046   8.753   6.238 -0.3217 -0.1649  0.1317
  798POPS   C2B11396  19.295   8.660   6.590 -0.0541  0.0251 -0.3503
  798POPS   C3B11397  19.516   8.589   6.883 -0.4327  0.2765  0.3510
  798POPS   C4B11398  19.830   8.821   7.052  0.0862 -0.1469 -0.2314
  799POPS   CNO11399  10.174   0.544   5.875 -0.0938 -0.2922  0.2040
  799POPS   PO411400   9.897   0.871   5.694 -0.0308  0.3155 -0.0479
  799POPS   GL111401   9.714   1.131   5.940  0.0113 -0.4473 -0.2830
  799POPS   GL211402   9.393   1.085   6.242 -0.2003 -0.1105  0.0739
  799POPS   C1A11403   9.702   1.430   6.397 -0.3410 -0.3010 -0.0947
  799POPS   D2A11404   9.636   1.435   6.816  0.1791  0.1720 -0.1147
  799POPS   C3A11405   9.803   1.649   7.135 -0.4459 -0.0849 -0.2829
  799POPS   C4A11406   9.738   2.075   7.480  0.1436 -0.2819 -0.4168
  799POPS   C1B11407   9.253   1.157   6.734  0.4288  0.0887  0.4216
  799POPS   C2B11408   9.216   1.207   7.091 -0.0984 -0.4975 -0.2767
  799POPS   C3B11409   9.428   1.307   7.355 -0.1373  0.0717 -0.0804
  799POPS   C4B11410   9.411   1.694   7.552  0.3031 -0.2462  0.0558
  800POPS   CNO11411   9.253   4.274   4.877 -0.2092 -0.2447  0.2029
  800POPS   PO411412   9.739   4.362   5.143  0.2179 -0.1109 -0.1700
  800POPS   GL111413   9.602   4.243   5.542  0.3232 -0.0411  0.3165
  800POPS   GL211414   9.749   3.999   5.596 -0.1186 -0.0268 -0.1964
  800POPS   C1A11415   9.316   4.209   5.977 -0.2518  0.0420  0.0621
  800POPS   D2A11416   8.998   4.225   6.332 -0.0257 -0.1395  0.1339
  800POPS   C3A11417   8.998   4.195   6.775  0.0838 -0.1241  0.0138
  800POPS   C4A11418   9.176   4.339   7.155 -0.0862  0.0303 -0.0264
  800POPS   C1B11419   9.807   4.098   6.000 -0.1703  0.1478 -0.1270
  800POPS   C2B11420   9.542   4.134   6.349 -0.0888 -0.3252  0.0770
  800POPS   C3B11421   9.530   4.137   6.789  0.1027  0.2267  0.1468
  800POPS   C4B11422   9.711   4.237   7.155  0.0641 -0.1007 -0.1588
  801POPS   CNO11423  14.849  10.752   6.178 -0.0962  0.4242  0.1386
  801POPS   PO411424  15.071  11.086   6.019  0.1679  0.1576  0.2950
  801POPS   GL111425  15.412  10.967   6.203 -0.0004  0.2056  0.1268
  801POPS   GL211426  15.536  10.689   6.195  0.1622 -0.4607  0.0515
  801POPS   C1A11427  15.496  10.866   6.692 -0.1806  0.1802 -0.3085
  801POPS   D2A11428  15.501  10.691   7.183 -0.2276 -0.1355 -0.1113
  801POPS   C3A11429  15.356  10.531   7.577  0.1278 -0.0089  0.1065
  801POPS   C4A11430  15.375  10.081   7.741 -0.1717 -0.2188  0.2528
  801POPS   C1B11431  15.816  10.522   6.515  0.1323 -0.0267 -0.0788
  801POPS   C2B11432  16.000  10.127   6.774  0.0143  0.0949  0.1413
  801POPS   C3B11433  16.097   9.883   7.296 -0.0362  0.0647  0.2800
  801POPS   C4B11434  16.226   9.699   7.633  0.0136  0.3264  0.0249
  802POPS   CNO11435   5.330  10.037   4.724 -0.1079  0.3092  0.1072
  802POPS   PO411436   5.317  10.295   5.066 -0.0498 -0.1416  0.1540
  802POPS   GL111437   5.153  10.219   5.515 -0.0823  0.2617 -0.2795
  802POPS   GL211438   5.288  10.410   5.758  0.1485 -0.1625  0.2617
  802POPS   C1A11439   5.012  10.048   5.885  0.2116  0.4593  0.1014
  802POPS   D2A11440   5.176  10.037   6.186 -0.0239 -0.0145  0.0459
  802POPS   C3A11441   5.266   9.677   6.342  0.1138 -0.0228  0.2637
  802POPS   C4A11442   5.601   9.399   6.394  0.3441  0.1526  0.4315
  802POPS   C1B11443   5.508  10.446   6.236  0.1091  0.0135  0.0062
  802POPS   C2B11444   5.465  10.167   6.581 -0.0705  0.1381 -0.1853
  802POPS   C3B11445   5.707  10.169   6.930  0.3049  0.0765 -0.0776
  802POPS   C4B11446   5.631  10.141   7.320  0.2349  0.1255 -0.0606
  803POPS   CNO11447  17.001   3.809   5.833 -0.1404 -0.2371  0.2078
  803POPS   PO411448  17.041   3.310   6.026  0.0776 -0.0854  0.2512
  803POPS   GL111449  17.037   3.454   6.453 -0.1430  0.0421  0.1349
  803POPS   GL211450  16.873   3.292   6.706  0.0806 -0.0760  0.1015
  803POPS   C1A11451  17.390   3.595   6.845 -0.0123  0.0990  0.0932
  803POPS   D2A11452  17.341   3.662   7.185 -0.0525  0.0635  0.1261
  803POPS   C3A11453  17.264   3.252   7.403 -0.0385 -0.0925  0.2474
  803POPS   C4A11454  17.287   2.879   7.604  0.0268  0.1751  0.0389
  803POPS   C1B11455  16.758   3.159   7.103  0.0016 -0.1348 -0.1099
  803POPS   C2B11456  16.775   3.434   7.506 -0.1329  0.0456  0.1166
  803POPS   C3B11457  16.968   3.201   7.855 -0.2976  0.0320  0.1459
  803POPS   C4B11458  17.069   2.890   8.065  0.4190  0.1559 -0.1817
  804POPS   CNO11459  18.239   4.249   5.564  0.0104  0.1953  0.1504
  804POPS   PO411460  18.502   4.532   5.536 -0.2244  0.2672  0.2849
  804POPS   GL111461  18.424   4.560   5.999  0.0218  0.2326 -0.1876
  804POPS   GL211462  18.649   4.808   5.994  0.1293 -0.1210 -0.4342
  804POPS   C1A11463  18.350   4.323   6.401  0.1275 -0.0673  0.3150
  804POPS   D2A11464  18.488   4.127   6.751 -0.0402  0.2112 -0.1576
  804POPS   C3A11465  18.498   4.400   7.069  0.2862 -0.0405 -0.0340
  804POPS   C4A11466  18.829   4.370   7.272 -0.3142  0.0402  0.2367
  804POPS   C1B11467  18.806   4.719   6.493  0.0392 -0.3513  0.4338
  804POPS   C2B11468  18.747   4.777   6.892  0.0128 -0.1077  0.0244
  804POPS   C3B11469  18.755   5.122   7.248  0.1878 -0.2129  0.0706
  804POPS   C4B11470  18.741   5.609   7.301 -0.2312  0.0916  0.2350
  805POPS   CNO11471  12.463  14.395   5.929 -0.1187 -0.3450  0.0174
  805POPS   PO411472  12.673  14.106   6.136 -0.1501 -0.1601  0.1352
  805POPS   GL111473  12.484  14.045   6.495  0.3154  0.1690 -0.2192
  805POPS   GL211474  12.236  13.794   6.499  0.0935 -0.0295 -0.2266
  805POPS   C1A11475  12.248  14.096   6.858  0.1108  0.2449  0.1727
  805POPS   D2A11476  12.187  13.964   7.281  0.3965 -0.0599  0.0538
  805POPS   C3A11477  11.993  14.161   7.748  0.1963 -0.0602 -0.1656
  805POPS   C4A11478  11.786  14.205   8.105  0.1519 -0.2369 -0.2720
  805POPS   C1B11479  12.180  13.585   6.928  0.0798 -0.2018 -0.3459
  805POPS   C2B11480  12.287  13.322   7.217 -0.2400  0.1437  0.0894
  805POPS   C3B11481  12.046  13.243   7.543  0.1507 -0.1655 -0.3132
  805POPS   C4B11482  11.600  13.128   7.786  0.2560  0.3811 -0.2900
  806POPS   CNO11483  12.244  12.388   5.913 -0.1881 -0.0805 -0.3089
  806POPS   PO411484  12.297  12.706   6.271 -0.0354 -0.0978 -0.1485
  806POPS   GL111485  12.378  12.611   6.698  0.0155 -0.2667 -0.0866
  806POPS   GL211486  12.182  12.970   6.854  0.0274 -0.1604  0.0960
  806POPS   C1A11487  12.363  12.606   7.124 -0.0189  0.2118  0.2638
  806POPS   D2A11488  12.286  12.813   7.388  0.2522  0.1030 -0.0492
  806POPS   C3A11489  12.615  13.022   7.676 -0.1235  0.0050  0.2543
  806POPS   C4A11490  12.849  13.101   8.068  0.0100  0.1953  0.1969
  806POPS   C1B11491  11.841  12.982   7.038  0.3855 -0.2172 -0.0006
  806POPS   C2B11492  11.756  12.830   7.448  0.1553 -0.0378  0.3521
  806POPS   C3B11493  11.439  12.436   7.620  0.0137 -0.4184 -0.2379
  806POPS   C4B11494  11.109  12.288   8.024  0.0292  0.0167  0.1412
  807POPS   CNO11495   6.222  10.120   5.451 -0.2883 -0.0695 -0.2183
  807POPS   PO411496   6.246  10.507   5.252 -0.0702  0.0397 -0.2400
  807POPS   GL111497   6.434  10.518   5.644 -0.1530 -0.3307 -0.0315
  807POPS   GL211498   6.669  10.225   5.708 -0.1139 -0.0794  0.0814
  807POPS   C1A11499   6.254  10.287   5.963  0.0575 -0.2259  0.1056
  807POPS   D2A11500   6.021  10.537   6.174 -0.0388  0.1923  0.0768
  807POPS   C3A11501   5.907  10.473   6.567 -0.1626 -0.3082 -0.0202
  807POPS   C4A11502   5.910  10.662   6.897  0.0950  0.1433 -0.0898
  807POPS   C1B11503   6.751  10.293   6.126 -0.1225 -0.1217  0.2791
  807POPS   C2B11504   6.494  10.059   6.380  0.1386  0.0355 -0.1974
  807POPS   C3B11505   6.367  10.301   6.635  0.1939 -0.0414  0.2251
  807POPS   C4B11506   6.194  10.338   7.083 -0.3438  0.0037 -0.2392
  808POPS   CNO11507  13.461  10.130   5.731 -0.2485 -0.1714  0.2066
  808POPS   PO411508  13.562  10.645   5.717 -0.2584  0.1128  0.0908
  808POPS   GL111509  13.576  10.460   6.162 -0.1125 -0.0542 -0.2743
  808POPS   GL211510  13.292  10.267   6.171 -0.1918  0.0659  0.3334
  808POPS   C1A11511  13.469  10.732   6.597 -0.1763 -0.2230  0.1282
  808POPS   D2A11512  13.411  10.951   7.057 -0.0337 -0.0212 -0.2827
  808POPS   C3A11513  13.072  11.333   7.123  0.0487 -0.0640  0.2454
  808POPS   C4A11514  13.045  11.677   6.784  0.2089  0.1684  0.0904
  808POPS   C1B11515  13.548   9.903   6.341  0.0598 -0.1857  0.1319
  808POPS   C2B11516  13.655   9.858   6.755  0.3639 -0.4750  0.0142
  808POPS   C3B11517  13.536   9.895   7.244 -0.4784 -0.0975  0.0655
  808POPS   C4B11518  13.170   9.901   7.183  0.0320  0.1982 -0.0166
  809POPS   CNO11519  15.890   8.419   5.412 -0.1429  0.0795 -0.2180
  809POPS   PO411520  15.606   8.106   5.433  0.0671 -0.1120 -0.0192
  809POPS   GL111521  15.519   8.148   5.762 -0.2795 -0.0114 -0.0945
  809POPS   GL211522  15.874   8.268   5.907 -0.1947  0.1631  0.1704
  809POPS   C1A11523  15.190   8.051   6.090 -0.2184  0.2103 -0.0478
  809POPS   D2A11524  15.267   7.820   6.484  0.2833  0.0695 -0.0270
  809POPS   C3A11525  14.938   7.869   6.866  0.0573  0.4906  0.4800
  809POPS   C4A11526  14.620   7.824   7.111 -0.1289 -0.0145  0.2205
  809POPS   C1B11527  15.607   8.387   6.276 -0.0244 -0.1118 -0.2948
  809POPS   C2B11528  15.266   8.281   6.620  0.3696 -0.0821 -0.0945
  809POPS   C3B11529  15.219   8.325   7.042  0.1755 -0.2417  0.1983
  809POPS   C4B11530  14.990   8.024   7.326 -0.1886  0.0976  0.1977
  810POPS   CNO11531  10.430  14.910   5.547 -0.1125 -0.2185  0.2624
  810POPS   PO411532  10.190  15.276   5.391 -0.2120 -0.0078 -0.0584
  810POPS   GL111533  10.165  15.392   5.906  0.0599 -0.1878  0.3490
  810POPS   GL211534  10.202  15.146   5.933 -0.1172  0.1307 -0.0414
  810POPS   C1A11535  10.095  15.547   6.358 -0.1888 -0.0071 -0.4746
  810POPS   D2A11536  10.154  15.666   6.816  0.1382 -0.1750  0.1102
  810POPS   C3A11537  10.010  15.518   7.202  0.0201  0.0631 -0.1770
  810POPS   C4A11538  10.103  15.062   7.309 -0.3501  0.1745 -0.1629
  810POPS   C1B11539  10.376  15.088   6.395 -0.1844  0.1416  0.0209
  810POPS   C2B11540  10.453  15.076   6.839 -0.1893 -0.1042 -0.0902
  810POPS   C3B11541  10.645  15.002   7.246  0.1564  0.1290  0.0021
  810POPS   C4B11542  10.486  15.251   7.567 -0.0213  0.1872 -0.3496
  811POPS   CNO11543   9.925  16.327   5.968 -0.4210  0.3772  0.1688
  811POPS   PO411544   9.630  16.702   5.938 -0.3650  0.1727  0.0831
  811POPS   GL111545   9.568  16.370   6.267  0.3533  0.2308  0.2639
  811POPS   GL211546   9.334  16.178   6.192  0.1287 -0.1714  0.1387
  811POPS   C1A11547   9.389  16.432   6.772 -0.2038  0.1206 -0.1308
  811POPS   D2A11548   9.207  16.334   7.128 -0.1678 -0.0229 -0.1937
  811POPS   C3A11549   9.243  16.153   7.606  0.0613 -0.0928  0.0292
  811POPS   C4A11550   9.287  16.212   8.144  0.4581  0.1527  0.0504
  811POPS   C1B11551   9.257  15.954   6.562  0.1712 -0.2184  0.2805
  811POPS   C2B11552   9.065  15.879   6.956  0.1062  0.0208  0.0746
  811POPS   C3B11553   8.834  15.938   7.390 -0.0772  0.3161 -0.1376
  811POPS   C4B11554   8.588  15.979   7.720 -0.0983  0.3745 -0.0726
  812YOPS   CNO11555  12.537   9.373   5.044 -0.0368  0.1409 -0.1487
  812YOPS   PO411556  12.197   9.387   5.242 -0.0844 -0.2877  0.4153
  812YOPS   GL111557  12.117   9.238   5.683 -0.3130  0.0092 -0.1152
  812YOPS   GL211558  12.099   8.829   5.797 -0.0350 -0.2981 -0.2759
  812YOPS   C1A11559  12.109   9.104   6.205  0.0436  0.3978 -0.1407
  812YOPS   D2A11560  12.151   8.972   6.520  0.1440 -0.0347  0.0513
  812YOPS   C3A11561  12.347   8.849   6.968  0.1054 -0.4051  0.0647
  812YOPS   C4A11562  12.135   8.870   7.326 -0.1641  0.3219  0.0406
  812YOPS   C1B11563  11.862   8.698   6.196 -0.1075  0.2591  0.0326
  812YOPS   C2B11564  11.506   8.503   6.476  0.3290 -0.0940 -0.3107
  812YOPS   D3B11565  11.380   8.734   6.833  0.3030  0.2744  0.2476
  812YOPS   C4B11566  11.850   8.807   6.859 -0.2039  0.0898  0.0954
  813YOPS   CNO11567  12.840  12.241   5.765  0.1772 -0.0920  0.3026
  813YOPS   PO411568  12.574  12.018   5.857  0.3654 -0.2516 -0.1057
  813YOPS   GL111569  12.460  11.962   6.245 -0.0156 -0.3414 -0.0982
  813YOPS   GL211570  12.521  12.076   6.483 -0.4183  0.2640 -0.3168
  813YOPS   C1A11571  12.273  11.694   6.708  0.0403 -0.0590 -0.1278
  813YOPS   D2A11572  12.298  11.613   7.190  0.1106  0.0152  0.2876
  813YOPS   C3A11573  12.471  11.450   7.534  0.0242  0.2117 -0.1731
  813YOPS   C4A11574  12.339  11.589   7.905  0.0156  0.1742  0.3406
  813YOPS   C1B11575  12.480  12.138   6.939  0.2666  0.0982 -0.0931
  813YOPS   C2B11576  12.245  12.105   7.411  0.2141 -0.2292 -0.0389
  813YOPS   D3B11577  11.903  11.785   7.516  0.2053 -0.1249  0.3908
  813YOPS   C4B11578  11.508  11.966   7.594 -0.1866 -0.0436  0.0560
  814YOPS   CNO11579   6.856   2.642   5.483 -0.0357  0.0402 -0.3047
  814YOPS   PO411580   7.003   2.260   5.451 -0.0232 -0.0835  0.0754
  814YOPS   GL111581   7.227   2.198   5.952  0.0569 -0.1856  0.2259
  814YOPS   GL211582   7.502   2.042   6.001  0.2642  0.0465 -0.0310
  814YOPS   C1A11583   7.153   2.305   6.336 -0.1114 -0.2357 -0.1669
  814YOPS   D2A11584   7.079   2.502   6.664  0.2990 -0.0098 -0.0785
  814YOPS   C3A11585   7.289   2.721   7.039  0.2906 -0.1973 -0.1846
  814YOPS   C4A11586   7.049   2.910   7.252  0.3303  0.3477 -0.0728
  814YOPS   C1B11587   7.120   1.774   6.188  0.2392  0.0518  0.1213
  814YOPS   C2B11588   6.661   1.718   6.098 -0.0403 -0.0693 -0.1446
  814YOPS   D3B11589   6.476   1.409   6.304 -0.1319  0.4364  0.0525
  814YOPS   C4B11590   6.819   1.443   6.583  0.2190  0.0329  0.1910
  815YOPS   CNO11591   7.610  14.132   5.288 -0.2096 -0.0874  0.4178
  815YOPS   PO411592   7.674  14.242   5.686  0.1779 -0.2457  0.0896
  815YOPS   GL111593   7.719  14.460   6.056  0.0128  0.0633 -0.0403
  815YOPS   GL211594   7.740  14.709   5.876 -0.1567 -0.0580 -0.5272
  815YOPS   C1A11595   7.732  14.670   6.406  0.2290 -0.0663 -0.1402
  815YOPS   D2A11596   7.821  14.929   6.822 -0.1380  0.1478 -0.1306
  815YOPS   C3A11597   7.538  14.908   7.182 -0.3682 -0.0457  0.2612
  815YOPS   C4A11598   7.326  15.262   7.317 -0.2084  0.0084  0.0776
  815YOPS   C1B11599   8.086  14.922   5.919  0.1223  0.1961  0.3930
  815YOPS   C2B11600   8.488  14.985   6.075  0.1769 -0.5888  0.1757
  815YOPS   D3B11601   8.869  15.075   6.333  0.1527 -0.2145  0.0097
  815YOPS   C4B11602   9.234  14.796   6.324  0.0376 -0.1831 -0.2128
  816YOPS   CNO11603   5.892  15.630   5.164  0.2700 -0.0430 -0.1289
  816YOPS   PO411604   6.183  15.872   5.381  0.0408 -0.0884  0.0741
  816YOPS   GL111605   6.027  15.649   5.675 -0.0340 -0.2343  0.0245
  816YOPS   GL211606   6.299  15.621   5.892 -0.1578 -0.0988 -0.0662
  816YOPS   C1A11607   5.841  15.578   6.073  0.1944 -0.0145 -0.3869
  816YOPS   D2A11608   5.850  15.514   6.435 -0.1209 -0.2006  0.1731
  816YOPS   C3A11609   5.571  15.372   6.744  0.0183  0.2520  0.0003
  816YOPS   C4A11610   5.710  14.899   6.826 -0.0174  0.0307 -0.6157
  816YOPS   C1B11611   6.354  15.600   6.297  0.0289  0.2059  0.3429
  816YOPS   C2B11612   6.343  15.448   6.646 -0.0686 -0.1273  0.1148
  816YOPS   D3B11613   6.087  15.391   6.969  0.1223  0.2764  0.1812
  816YOPS   C4B11614   6.093  15.120   7.433 -0.0973  0.1261  0.1671
  817YOPS   CNO11615  15.682  14.330   5.860  0.2266 -0.0347  0.3329
  817YOPS   PO411616  15.381  14.084   6.081 -0.2274 -0.1339 -0.0593
  817YOPS   GL111617  15.416  13.885   6.477 -0.1080 -0.3754 -0.3405
  817YOPS   GL211618  15.690  13.806   6.398  0.2161  0.2568  0.2220
  817YOPS   C1A11619  15.291  13.988   6.896 -0.0481 -0.1282 -0.0611
  817YOPS   D2A11620  14.954  13.972   7.162  0.1892  0.0056 -0.0815
  817YOPS   C3A11621  14.871  13.817   7.670  0.0459  0.0690  0.2116
  817YOPS   C4A11622  14.783  13.776   8.097 -0.0577  0.0949 -0.0335
  817YOPS   C1B11623  15.722  13.783   6.843  0.1380  0.1227 -0.1652
  817YOPS   C2B11624  15.612  13.851   7.266  0.0802 -0.1658 -0.0807
  817YOPS   D3B11625  15.599  14.055   7.615 -0.0158 -0.0571  0.0829
  817YOPS   C4B11626  16.016  14.286   7.637 -0.4152  0.3751  0.3261
  818YOPS   CNO11627  17.063   5.719   5.571  0.5501 -0.0187 -0.1917
  818YOPS   PO411628  17.183   5.725   5.983 -0.3002 -0.0656  0.0296
  818YOPS   GL111629  17.407   5.581   6.317  0.0754  0.1029 -0.3780
  818YOPS   GL211630  17.840   5.603   6.286 -0.2378 -0.1397 -0.1538
  818YOPS   C1A11631  17.430   5.518   6.669  0.0531  0.1425  0.0826
  818YOPS   D2A11632  17.627   5.371   7.021  0.3814 -0.0943 -0.1367
  818YOPS   C3A11633  17.858   5.658   7.332  0.2076  0.4369  0.2850
  818YOPS   C4A11634  17.835   5.603   7.736  0.1233 -0.0562  0.0098
  818YOPS   C1B11635  17.930   5.687   6.865 -0.1117 -0.2214  0.0507
  818YOPS   C2B11636  18.268   5.727   7.125 -0.1349  0.0729  0.0812
  818YOPS   D3B11637  18.302   5.924   7.516  0.1156  0.1553  0.1349
  818YOPS   C4B11638  18.644   5.872   7.729 -0.0064 -0.5199  0.2437
  819YOPS   CNO11639   4.684  12.223   5.441 -0.1641  0.0920  0.0228
  819YOPS   PO411640   4.634  12.536   5.392 -0.3030 -0.0421 -0.1721
  819YOPS   GL111641   4.705  12.703   5.765  0.0357 -0.0545 -0.1225
  819YOPS   GL211642   4.527  12.989   5.789 -0.1831  0.1131  0.1155
  819YOPS   C1A11643   4.717  12.909   6.251  0.1520  0.1840  0.1624
  819YOPS   D2A11644   4.525  13.067   6.626 -0.1027  0.0842  0.1259
  819YOPS   C3A11645   4.261  12.992   6.843 -0.1291  0.2150  0.1342
  819YOPS   C4A11646   4.356  12.786   7.202 -0.2692 -0.0723 -0.0489
  819YOPS   C1B11647   4.263  12.792   6.154  0.2750 -0.2121  0.3115
  819YOPS   C2B11648   4.007  12.610   6.404  0.1540 -0.0253 -0.0912
  819YOPS   D3B11649   3.646  12.779   6.446  0.0355  0.1580 -0.1081
  819YOPS   C4B11650   3.520  12.920   6.773  0.1892 -0.0685 -0.0370
  820YOPS   CNO11651   2.249  10.630   4.356  0.2942 -0.1755 -0.0255
  820YOPS   PO411652   2.090  10.589   4.742 -0.1836 -0.1705  0.1570
  820YOPS   GL111653   1.981  10.503   5.162  0.1045 -0.1297 -0.2809
  820YOPS   GL211654   1.722  10.737   5.358  0.0222 -0.2586  0.0170
  820YOPS   C1A11655   1.704  10.155   5.272  0.0677 -0.0057  0.0421
  820YOPS   D2A11656   1.187  10.334   5.355  0.0267 -0.1633  0.1540
  820YOPS   C3A11657   0.916  10.201   5.640 -0.0009 -0.0371 -0.4414
  820YOPS   C4A11658   0.602  10.506   5.868  0.0530 -0.3594  0.1622
  820YOPS   C1B11659   1.481  10.701   5.672  0.1858 -0.3690  0.1028
  820YOPS   C2B11660   1.348  11.001   6.034  0.5440 -0.1173 -0.1481
  820YOPS   D3B11661   1.369  10.820   6.463  0.0870  0.2096  0.0462
  820YOPS   C4B11662   1.099  10.710   6.796 -0.0281  0.2303 -0.0497
  821YOPS   CNO11663   1.823   1.778   5.128  0.1419 -0.1063  0.0812
  821YOPS   PO411664   1.603   1.570   5.442  0.1228 -0.0017  0.0111
  821YOPS   GL111665   1.689   1.631   5.764 -0.2591  0.0479 -0.2999
  821YOPS   GL211666   1.958   1.278   5.706  0.1255  0.3457  0.3157
  821YOPS   C1A11667   1.551   1.758   6.149 -0.0919  0.1023  0.1794
  821YOPS   D2A11668   1.470   1.731   6.583 -0.0306  0.4032 -0.0452
  821YOPS   C3A11669   1.128   1.761   6.770  0.1048  0.0440  0.0038
  821YOPS   C4A11670   0.784   2.018   6.740  0.0917  0.0670  0.0008
  821YOPS   C1B11671   1.779   0.858   6.052  0.0193 -0.1118 -0.0669
  821YOPS   C2B11672   1.747   0.583   6.375 -0.1646 -0.0094  0.1112
  821YOPS   D3B11673   1.434   0.248   6.522 -0.3386  0.1339  0.0771
  821YOPS   C4B11674   1.434   0.039   6.880 -0.0110 -0.1758  0.1176
  822YOPS   CNO11675   4.555   2.560   4.805 -0.1194 -0.0626 -0.1898
  822YOPS   PO411676   4.461   2.489   5.212  0.0676  0.5885  0.0206
  822YOPS   GL111677   4.135   2.621   5.471  0.1817 -0.1758 -0.0079
  822YOPS   GL211678   3.819   2.682   5.396  0.0291  0.0345 -0.3441
  822YOPS   C1A11679   4.249   2.793   5.884  0.0837 -0.2031 -0.1749
  822YOPS   D2A11680   4.093   2.815   6.159  0.1465  0.0460  0.2222
  822YOPS   C3A11681   4.161   2.839   6.656 -0.1990 -0.1142 -0.0856
  822YOPS   C4A11682   3.998   2.739   7.088 -0.1095 -0.0412 -0.1237
  822YOPS   C1B11683   3.672   2.810   5.863 -0.1537  0.4382  0.4332
  822YOPS   C2B11684   3.525   2.862   6.216  0.3721  0.0707  0.1329
  822YOPS   D3B11685   3.101   2.933   6.294 -0.1182 -0.1839 -0.0240
  822YOPS   C4B11686   2.915   3.232   6.204 -0.0408 -0.2533  0.2476
  823YOPS   CNO11687  13.551  11.600   5.891 -0.2089 -0.0573 -0.0260
  823YOPS   PO411688  13.220  11.621   5.858 -0.4006  0.1621  0.1681
  823YOPS   GL111689  13.385  11.492   6.348 -0.0519  0.2325  0.2204
  823YOPS   GL211690  13.756  11.495   6.454  0.0799  0.0507  0.2939
  823YOPS   C1A11691  13.088  11.228   6.581  0.0571  0.3250 -0.4669
  823YOPS   D2A11692  12.642  11.324   6.799  0.3300  0.6477 -0.0506
  823YOPS   C3A11693  12.219  11.236   6.886  0.1986 -0.0061  0.0732
  823YOPS   C4A11694  12.132  10.807   6.754 -0.1472  0.2165  0.1793
  823YOPS   C1B11695  13.545  11.440   6.864 -0.0330 -0.4442  0.0763
  823YOPS   C2B11696  13.475  11.378   7.356  0.2346 -0.2043  0.2735
  823YOPS   D3B11697  13.395  11.620   7.764 -0.0611 -0.3053 -0.2643
  823YOPS   C4B11698  13.703  11.741   7.946 -0.2016  0.0477 -0.2477
  824YOPS   CNO11699   7.733  18.729   5.359  0.2971 -0.1290 -0.3890
  824YOPS   PO411700   7.643  18.984   5.646 -0.1125  0.2237  0.1622
  824YOPS   GL111701   7.513  19.010   6.057  0.1039 -0.2515  0.0726
  824YOPS   GL211702   7.654  18.652   6.223 -0.2702 -0.0265 -0.0238
  824YOPS   C1A11703   7.314  19.081   6.386 -0.0275  0.1667  0.0234
  824YOPS   D2A11704   6.913  19.162   6.637  0.0140  0.0242  0.5220
  824YOPS   C3A11705   6.479  19.244   6.964 -0.0017 -0.1398 -0.1095
  824YOPS   C4A11706   6.303  19.451   7.449 -0.0841 -0.0120 -0.0460
  824YOPS   C1B11707   7.347  18.617   6.595 -0.1055  0.2018 -0.0937
  824YOPS   C2B11708   7.266  18.334   6.994 -0.2251  0.1421 -0.1931
  824YOPS   D3B11709   7.217  18.724   7.383 -0.0916 -0.0244  0.1214
  824YOPS   C4B11710   7.564  18.689   7.653 -0.1558  0.2079 -0.0009
  825YOPS   CNO11711   8.416   0.569   5.437 -0.2229 -0.2518  0.1240
  825YOPS   PO411712   8.560   0.793   5.780  0.0184  0.0301 -0.1351
  825YOPS   GL111713   8.128   0.803   6.094 -0.0372  0.3235  0.2406
  825YOPS   GL211714   8.050   0.488   6.302  0.1424 -0.4677  0.2663
  825YOPS   C1A11715   7.781   0.920   6.494 -0.1018  0.2797  0.1442
  825YOPS   D2A11716   7.591   0.770   6.859  0.0261 -0.0696  0.0181
  825YOPS   C3A11717   7.527   0.945   7.250 -0.0239  0.1037 -0.2382
  825YOPS   C4A11718   7.213   0.832   7.598 -0.1258 -0.0469  0.0304
  825YOPS   C1B11719   7.834   0.149   6.493 -0.0215  0.1665 -0.2441
  825YOPS   C2B11720   7.594   0.040   6.783  0.0140  0.2711 -0.0201
  825YOPS   D3B11721   7.258  -0.187   6.965 -0.1966 -0.1422  0.0296
  825YOPS   C4B11722   6.944  -0.005   7.245  0.0448 -0.3344 -0.1872
  826YOPS   CNO11723   4.495   5.226   5.171  0.0281 -0.1409  0.0913
  826YOPS   PO411724   4.819   5.380   5.265 -0.1246  0.3223 -0.3042
  826YOPS   GL111725   4.938   5.118   5.513  0.2883  0.4687 -0.4235
  826YOPS   GL211726   4.694   4.855   5.409  0.0424  0.1300 -0.1950
  826YOPS   C1A11727   5.033   5.225   6.045  0.3309  0.2161  0.1395
  826YOPS   D2A11728   5.331   5.089   6.367 -0.2599 -0.0438 -0.0306
  826YOPS   C3A11729   5.357   4.643   6.594  0.3254 -0.1818  0.0975
  826YOPS   C4A11730   5.077   4.482   6.788 -0.2416  0.3568  0.3557
  826YOPS   C1B11731   4.652   4.794   5.814 -0.1514  0.0846  0.1156
  826YOPS   C2B11732   4.674   4.881   6.275  0.5342 -0.1230 -0.1753
  826YOPS   D3B11733   4.986   5.009   6.681 -0.2097 -0.0402  0.1609
  826YOPS   C4B11734   5.269   5.457   6.659 -0.0200 -0.3283 -0.0007
  827YOPS   CNO11735   6.688   3.230   5.282 -0.1807 -0.1152 -0.0033
  827YOPS   PO411736   6.389   3.403   5.552 -0.0048 -0.2078 -0.0124
  827YOPS   GL111737   6.434   3.420   5.993  0.0098 -0.0326 -0.4944
  827YOPS   GL211738   6.671   3.560   6.104  0.1433  0.0551  0.2195
  827YOPS   C1A11739   6.238   3.427   6.377  0.2710  0.0866 -0.1375
  827YOPS   D2A11740   5.999   3.143   6.627  0.1056  0.2139 -0.1117
  827YOPS   C3A11741   6.079   2.730   6.532  0.3995  0.1004 -0.0432
  827YOPS   C4A11742   6.168   2.455   6.979 -0.0718 -0.1894  0.0511
  827YOPS   C1B11743   6.540   3.797   6.511  0.0835 -0.3567 -0.2289
  827YOPS   C2B11744   6.337   3.777   6.843  0.1796 -0.1247  0.0469
  827YOPS   D3B11745   6.294   3.895   7.326 -0.1520  0.1706  0.1010
  827YOPS   C4B11746   6.553   3.608   7.641 -0.1579 -0.1820  0.1604
  828YOPS   CNO11747   7.355   9.218   4.536  0.2357  0.1413 -0.0201
  828YOPS   PO411748   7.506   9.558   4.890  0.0059 -0.0371 -0.0522
  828YOPS   GL111749   7.479   9.596   5.362 -0.1145 -0.0283  0.1776
  828YOPS   GL211750   7.791   9.408   5.417  0.2757 -0.0816  0.0338
  828YOPS   C1A11751   7.170   9.421   5.698 -0.3384 -0.0430  0.0573
  828YOPS   D2A11752   7.254   9.026   5.901 -0.0599 -0.1363  0.2333
  828YOPS   C3A11753   7.586   8.729   6.078  0.0834 -0.3953 -0.0057
  828YOPS   C4A11754   7.862   8.502   5.815 -0.0108  0.0048  0.1534
  828YOPS   C1B11755   7.682   9.440   5.782 -0.0182  0.0108 -0.1501
  828YOPS   C2B11756   7.558   9.434   6.218  0.0262  0.0110  0.0417
  828YOPS   D3B11757   7.581   9.466   6.650  0.0295  0.0893  0.2384
  828YOPS   C4B11758   7.674   9.803   6.922  0.2798  0.3488  0.0859
  829YOPS   CNO11759  10.469   8.287   5.253  0.1318  0.3174  0.2382
  829YOPS   PO411760  10.754   8.544   5.359 -0.1744 -0.0156 -0.0663
  829YOPS   GL111761  11.030   8.222   5.714  0.2203 -0.1330 -0.2699
  829YOPS   GL211762  10.980   8.320   6.017 -0.1847 -0.3124  0.1808
  829YOPS   C1A11763  11.224   7.886   5.965  0.1879  0.1534 -0.2313
  829YOPS   D2A11764  11.406   8.015   6.393  0.0320 -0.1804 -0.1948
  829YOPS   C3A11765  11.782   7.998   6.573  0.1772  0.0407 -0.0296
  829YOPS   C4A11766  11.825   7.777   6.963  0.1140  0.1650  0.0980
  829YOPS   C1B11767  10.970   8.243   6.532 -0.1610  0.0528  0.5394
  829YOPS   C2B11768  11.334   8.193   6.844 -0.0634 -0.1463  0.0275
  829YOPS   D3B11769  11.687   8.335   7.019 -0.4152  0.1890 -0.1071
  829YOPS   C4B11770  11.720   8.504   7.413 -0.0914 -0.2089  0.1008
  830YOPS   CNO11771   9.625   8.909   5.563  0.0206  0.0330 -0.2990
  830YOPS   PO411772   9.382   8.667   5.419 -0.0627 -0.0001 -0.0657
  830YOPS   GL111773   9.349   8.224   5.495  0.2720 -0.0065 -0.0697
  830YOPS   GL211774   9.637   8.042   5.509 -0.1717  0.1207 -0.1380
  830YOPS   C1A11775   9.022   7.754   5.686  0.1014 -0.1459  0.0934
  830YOPS   D2A11776   8.980   7.272   5.704 -0.3981 -0.1004  0.1191
  830YOPS   C3A11777   8.904   6.976   5.963 -0.0034 -0.0536 -0.1879
  830YOPS   C4A11778   9.144   7.060   6.382 -0.0672  0.2511 -0.1119
  830YOPS   C1B11779   9.680   7.950   5.969 -0.0384 -0.1616 -0.3644
  830YOPS   C2B11780   9.947   8.038   6.338 -0.1327  0.2662 -0.1250
  830YOPS   D3B11781  10.031   8.365   6.721  0.0822 -0.1060 -0.1756
  830YOPS   C4B11782   9.653   8.568   6.895 -0.0250  0.1613  0.0309
  831YOPS   CNO11783  14.677  18.606   5.711 -0.0661  0.0547 -0.0372
  831YOPS   PO411784  15.098  18.634   5.707 -0.0120 -0.3338  0.2405
  831YOPS   GL111785  15.144  18.536   6.073  0.1877 -0.0732 -0.1262
  831YOPS   GL211786  15.108  18.243   6.238 -0.0865  0.2941 -0.1661
  831YOPS   C1A11787  15.271  18.543   6.551 -0.1556  0.3829 -0.2780
  831YOPS   D2A11788  15.523  18.484   6.819 -0.2149 -0.2646  0.1979
  831YOPS   C3A11789  15.814  18.341   7.180 -0.0442 -0.0396  0.2960
  831YOPS   C4A11790  15.836  18.052   7.540  0.1699  0.2319  0.0993
  831YOPS   C1B11791  15.059  18.079   6.589  0.2789  0.1105 -0.1125
  831YOPS   C2B11792  14.994  17.858   7.128  0.0539  0.0185  0.3175
  831YOPS   D3B11793  14.853  17.625   7.543 -0.0138 -0.2618  0.1329
  831YOPS   C4B11794  15.016  17.672   7.860 -0.0803 -0.0049 -0.0885
  832YOPS   CNO11795  18.816  18.865   5.491 -0.0612  0.1701  0.0410
  832YOPS   PO411796  18.262  18.905   5.265 -0.2704  0.0148 -0.0924
  832YOPS   GL111797  18.257  18.735   5.561 -0.1618 -0.1386 -0.2009
  832YOPS   GL211798  18.501  18.525   5.720 -0.0020 -0.2276 -0.0510
  832YOPS   C1A11799  18.022  18.866   5.974 -0.0856 -0.1039 -0.0289
  832YOPS   D2A11800  18.092  18.970   6.342 -0.3662  0.3121 -0.0898
  832YOPS   C3A11801  17.731  19.057   6.615 -0.0998 -0.3045 -0.0828
  832YOPS   C4A11802  17.832  19.349   7.079  0.2284  0.0202  0.2433
  832YOPS   C1B11803  18.597  18.873   5.948 -0.0605 -0.0232 -0.0609
  832YOPS   C2B11804  18.685  18.953   6.213  0.0319 -0.1790 -0.0938
  832YOPS   D3B11805  18.523  19.144   6.545 -0.1308 -0.0834  0.4323
  832YOPS   C4B11806  18.265  18.848   6.801 -0.3817  0.0915  0.0172
  833YOPS   CNO11807   8.185   6.456   4.660  0.0463  0.3360 -0.2374
  833YOPS   PO411808   8.457   6.369   4.929  0.2274  0.4203 -0.0560
  833YOPS   GL111809   8.593   6.295   5.389 -0.2978 -0.1628  0.0053
  833YOPS   GL211810   8.724   6.565   5.437  0.5182  0.0557  0.2441
  833YOPS   C1A11811   8.897   5.950   5.709 -0.0724 -0.1188  0.3583
  833YOPS   D2A11812   9.334   6.073   5.928  0.0163 -0.0885 -0.0786
  833YOPS   C3A11813   9.391   6.433   6.204  0.1480 -0.1347 -0.2029
  833YOPS   C4A11814   9.278   6.378   6.669 -0.2259 -0.2329  0.1426
  833YOPS   C1B11815   8.969   6.465   5.821 -0.2935 -0.3334  0.0754
  833YOPS   C2B11816   8.866   6.557   6.267 -0.0716 -0.1557 -0.2153
  833YOPS   D3B11817   8.829   6.784   6.755  0.2424 -0.0807 -0.2730
  833YOPS   C4B11818   8.955   7.158   6.884  0.5542 -0.1505 -0.3248
  834YOPS   CNO11819   7.418   3.376   5.612  0.2572 -0.1585 -0.0066
  834YOPS   PO411820   7.715   3.683   5.682  0.0407  0.0169 -0.0879
  834YOPS   GL111821   7.622   3.601   6.221 -0.1508 -0.0941 -0.0144
  834YOPS   GL211822   7.868   3.541   6.355  0.0602  0.1999  0.0104
  834YOPS   C1A11823   7.319   3.743   6.624  0.0073  0.1411 -0.3092
  834YOPS   D2A11824   7.373   3.789   7.039  0.2667  0.1330  0.0163
  834YOPS   C3A11825   7.436   3.593   7.400  0.0984  0.0489 -0.1364
  834YOPS   C4A11826   7.437   3.780   7.697 -0.0985  0.1085 -0.0377
  834YOPS   C1B11827   7.569   3.326   6.650  0.2556 -0.2883  0.1743
  834YOPS   C2B11828   7.227   3.311   6.979 -0.0750  0.3438 -0.1431
  834YOPS   D3B11829   7.016   3.378   7.360  0.1255 -0.0071 -0.1496
  834YOPS   C4B11830   7.234   3.179   7.625 -0.1728 -0.5122 -0.3520
  835YOPS   CNO11831  16.628   3.889   5.499  0.0976 -0.1674 -0.1142
  835YOPS   PO411832  16.298   3.617   5.746  0.1201 -0.0573  0.0705
  835YOPS   GL111833  16.166   3.722   6.151 -0.0236 -0.1036 -0.0560
  835YOPS   GL211834  16.144   3.923   6.324 -0.1610  0.2165 -0.0849
  835YOPS   C1A11835  16.400   3.591   6.556  0.2815 -0.3475 -0.1127
  835YOPS   D2A11836  16.190   3.867   6.953 -0.0016  0.0403 -0.1112
  835YOPS   C3A11837  15.895   3.896   7.312  0.1953  0.0697 -0.3010
  835YOPS   C4A11838  15.500   4.127   7.454  0.3681  0.0172  0.1142
  835YOPS   C1B11839  15.769   3.923   6.581 -0.0609 -0.2701  0.1764
  835YOPS   C2B11840  15.547   4.028   6.933  0.0131  0.0177  0.1169
  835YOPS   D3B11841  15.469   3.656   7.279 -0.0949  0.0910  0.1239
  835YOPS   C4B11842  15.163   3.555   7.316 -0.1424 -0.5826 -0.1811
  836YOPS   CNO11843  12.932   2.142   5.212 -0.2196 -0.2729  0.0036
  836YOPS   PO411844  12.854   1.861   5.583  0.2379  0.1431  0.1041
  836YOPS   GL111845  12.929   2.038   6.019 -0.0834 -0.1256 -0.1834
  836YOPS   GL211846  12.648   2.181   6.144  0.1267 -0.2970  0.0136
  836YOPS   C1A11847  13.015   2.065   6.585 -0.1643 -0.0448  0.3125
  836YOPS   D2A11848  12.793   2.115   6.941  0.2160  0.0814 -0.1993
  836YOPS   C3A11849  12.516   2.042   7.369 -0.0652 -0.2621  0.2258
  836YOPS   C4A11850  12.700   2.386   7.572  0.1475 -0.2842 -0.2862
  836YOPS   C1B11851  12.568   2.204   6.503  0.0341  0.1060 -0.1090
  836YOPS   C2B11852  12.386   2.434   6.780  0.0040  0.2114  0.0893
  836YOPS   D3B11853  12.496   2.647   7.192  0.0018  0.4248 -0.1445
  836YOPS   C4B11854  12.179   2.744   7.538  0.0513  0.2382  0.2431
  837YOPS   CNO11855   3.907   1.233   4.630  0.0901 -0.1479  0.0186
  837YOPS   PO411856   3.718   1.388   5.044  0.4099 -0.0533  0.0017
  837YOPS   GL111857   3.881   1.168   5.420  0.3645  0.1103  0.1004
  837YOPS   GL211858   4.239   1.117   5.454 -0.0635  0.1597 -0.0435
  837YOPS   C1A11859   3.815   0.832   5.760 -0.1254 -0.0327  0.3353
  837YOPS   D2A11860   3.730   0.597   6.133 -0.2035 -0.0336 -0.2529
  837YOPS   C3A11861   3.578   0.245   6.431 -0.1001  0.2016  0.4034
  837YOPS   C4A11862   3.705  -0.117   6.212 -0.1960  0.2654 -0.1396
  837YOPS   C1B11863   4.193   1.081   5.902 -0.0072 -0.2184 -0.0555
  837YOPS   C2B11864   4.241   0.751   6.102  0.1970 -0.6032 -0.2448
  837YOPS   D3B11865   4.296   0.511   6.373 -0.3475  0.0674 -0.0759
  837YOPS   C4B11866   4.365   0.035   6.490  0.4582 -0.2151 -0.2771
  838YOPS   CNO11867   7.300   2.602   5.715  0.2544  0.1677  0.0925
  838YOPS   PO411868   7.804   2.608   5.746 -0.2848  0.3018  0.0133
  838YOPS   GL111869   7.788   2.474   6.115 -0.0170  0.0026 -0.0946
  838YOPS   GL211870   7.984   2.173   6.078  0.2227 -0.0481 -0.3432
  838YOPS   C1A11871   7.597   2.461   6.517  0.1090 -0.0859 -0.0362
  838YOPS   D2A11872   7.511   2.285   6.795  0.2868 -0.2059 -0.2131
  838YOPS   C3A11873   7.419   2.261   7.216  0.1792  0.0805 -0.0364
  838YOPS   C4A11874   7.352   2.564   7.575  0.0350 -0.1027  0.0302
  838YOPS   C1B11875   7.912   2.040   6.516 -0.2540  0.4631 -0.0891
  838YOPS   C2B11876   7.746   1.864   6.976 -0.0685 -0.3547 -0.3646
  838YOPS   D3B11877   7.945   1.686   7.411 -0.0591  0.1214 -0.2508
  838YOPS   C4B11878   7.812   1.283   7.545 -0.0833  0.0969 -0.1764
  839YOPS   CNO11879   8.398  18.263   6.056  0.0096  0.2215 -0.0256
  839YOPS   PO411880   8.120  18.520   6.048 -0.3422  0.2666 -0.0246
  839YOPS   GL111881   8.216  18.468   6.509  0.0683  0.2643  0.3331
  839YOPS   GL211882   8.445  18.713   6.673 -0.1911  0.1047  0.1552
  839YOPS   C1A11883   8.056  18.434   6.953  0.0392 -0.0773  0.4571
  839YOPS   D2A11884   8.192  18.516   7.345  0.2429  0.1610 -0.1277
  839YOPS   C3A11885   8.485  18.346   7.608 -0.2555 -0.0705  0.0486
  839YOPS   C4A11886   8.582  18.637   8.025 -0.1265 -0.1076  0.0412
  839YOPS   C1B11887   8.660  18.713   7.073  0.1580  0.0002 -0.0937
  839YOPS   C2B11888   8.881  18.652   7.341  0.0224  0.2596  0.2714
  839YOPS   D3B11889   8.977  18.279   7.473  0.0765  0.0324  0.2603
  839YOPS   C4B11890   8.878  18.239   7.963  0.0952  0.2232  0.2480
  840YOPS   CNO11891   6.428   3.854   5.295 -0.1351 -0.0182  0.0614
  840YOPS   PO411892   6.751   3.952   5.382  0.0095 -0.1433 -0.3181
  840YOPS   GL111893   6.355   3.968   5.751 -0.1440  0.3034 -0.0508
  840YOPS   GL211894   6.047   3.923   5.730  0.1376  0.1059 -0.2019
  840YOPS   C1A11895   6.015   4.292   6.071 -0.1472  0.0544  0.0500
  840YOPS   D2A11896   5.912   4.438   6.579  0.2597  0.3235  0.1223
  840YOPS   C3A11897   5.789   4.775   6.931 -0.2342  0.1186 -0.2421
  840YOPS   C4A11898   5.492   5.065   6.998  0.0940 -0.2652  0.0159
  840YOPS   C1B11899   6.111   3.815   6.142 -0.0666  0.1369 -0.2127
  840YOPS   C2B11900   5.959   3.870   6.591  0.1741  0.2132  0.0970
  840YOPS   D3B11901   5.774   3.589   6.882 -0.1154  0.0328  0.1220
  840YOPS   C4B11902   5.791   3.749   7.331  0.0917 -0.0755  0.1202
  841YOPS   CNO11903  11.433  12.706   5.756 -0.0344 -0.1550  0.0656
  841YOPS   PO411904  11.526  12.237   5.957 -0.0532 -0.3008  0.1126
  841YOPS   GL111905  11.890  12.341   6.315  0.0086 -0.1003 -0.3672
  841YOPS   GL211906  11.857  12.592   6.546 -0.1276  0.2041  0.4852
  841YOPS   C1A11907  12.074  12.162   6.651 -0.0393 -0.1988  0.2426
  841YOPS   D2A11908  11.921  11.972   6.971 -0.1980 -0.1501 -0.1622
  841YOPS   C3A11909  11.631  11.706   7.140 -0.0189  0.1776  0.0002
  841YOPS   C4A11910  11.828  11.369   7.274 -0.2481 -0.0922  0.1193
  841YOPS   C1B11911  11.903  12.490   7.027 -0.0903  0.1145  0.0925
  841YOPS   C2B11912  11.851  12.337   7.344 -0.4656 -0.2490 -0.1673
  841YOPS   D3B11913  11.924  12.436   7.754 -0.0348 -0.1493  0.0712
  841YOPS   C4B11914  12.056  12.887   7.906 -0.0850 -0.0662  0.0802
  842POPE   NH311915  14.369  14.076   6.035  0.0328 -0.0803 -0.0866
  842POPE   PO411916  14.045  14.224   6.352  0.1220 -0.0460  0.0388
  842POPE   GL111917  13.843  14.489   6.559  0.1741 -0.0670 -0.0211
  842POPE   GL211918  13.545  14.325   6.661 -0.0716  0.2310  0.0310
  842POPE   C1A11919  13.830  14.749   6.948 -0.1661  0.1134  0.0530
  842POPE   D2A11920  13.486  14.681   7.314 -0.1018  0.0007 -0.2381
  842POPE   C3A11921  13.706  14.874   7.637 -0.1118 -0.1253  0.1590
  842POPE   C4A11922  13.980  14.957   7.947 -0.2362  0.2113 -0.3514
  842POPE   C1B11923  13.808  14.180   6.988 -0.1827 -0.1362  0.1461
  842POPE   C2B11924  13.934  14.192   7.238  0.3155  0.1274 -0.2222
  842POPE   C3B11925  13.937  14.021   7.600  0.0456  0.0862  0.0623
  842POPE   C4B11926  13.763  13.939   7.974 -0.2363  0.2049 -0.1016
  843POPE   NH311927   0.908   3.907   4.941  0.2391 -0.0576 -0.0328
  843POPE   PO411928   1.268   4.204   4.781  0.1307 -0.0088 -0.1027
  843POPE   GL111929   1.252   4.249   5.235  0.3078 -0.0409 -0.0069
  843POPE   GL211930   0.910   4.112   5.367  0.1010 -0.0795 -0.1094
  843POPE   C1A11931   1.406   4.536   5.562 -0.3520 -0.1564  0.0332
  843POPE   D2A11932   1.300   4.871   5.855  0.2950  0.2251 -0.3818
  843POPE   C3A11933   1.485   4.771   6.328  0.1458  0.0760  0.2250
  843POPE   C4A11934   1.386   4.992   6.705  0.1175 -0.0912 -0.2162
  843POPE   C1B11935   1.172   4.136   5.724  0.0589 -0.2469 -0.0201
  843POPE   C2B11936   1.536   4.271   5.962 -0.0117  0.0320 -0.0775
  843POPE   C3B11937   1.714   4.347   6.359 -0.2591 -0.2426 -0.5321
  843POPE   C4B11938   1.808   4.509   6.770 -0.0093  0.0480 -0.0419
  844POPE   NH311939  12.284   3.733   5.350  0.0216  0.0570  0.1194
  844POPE   PO411940  12.408   4.225   5.326 -0.1293 -0.1766  0.0661
  844POPE   GL111941  12.105   4.261   5.567  0.3627  0.0752 -0.0821
  844POPE   GL211942  11.953   4.040   5.578  0.0037 -0.1278  0.3438
  844POPE   C1A11943  11.873   4.317   5.962  0.2844 -0.2070 -0.0870
  844POPE   D2A11944  11.788   4.312   6.450 -0.6626  0.2803 -0.3149
  844POPE   C3A11945  11.460   4.471   6.749 -0.0028 -0.3999  0.0402
  844POPE   C4A11946  11.399   4.421   7.211  0.2446 -0.0341  0.0914
  844POPE   C1B11947  12.078   3.924   5.912  0.2812 -0.0877 -0.3057
  844POPE   C2B11948  11.960   3.650   6.348  0.1299  0.1518 -0.0950
  844POPE   C3B11949  12.077   3.814   6.773 -0.1333  0.2938  0.1474
  844POPE   C4B11950  12.272   3.866   7.116  0.0383 -0.3131 -0.0501
  845POPE   NH311951   4.682   5.961   5.162 -0.0857  0.1280 -0.0789
  845POPE   PO411952   4.329   5.721   5.037  0.3274 -0.3464 -0.0794
  845POPE   GL111953   4.279   5.585   5.462  0.1994 -0.2336 -0.0376
  845POPE   GL211954   4.512   5.621   5.579  0.2068  0.0335  0.1041
  845POPE   C1A11955   3.974   5.631   5.813  0.4121  0.0849  0.1116
  845POPE   D2A11956   3.950   5.801   6.273 -0.1679  0.0129  0.3339
  845POPE   C3A11957   3.546   5.838   6.482  0.1040  0.3586 -0.1208
  845POPE   C4A11958   3.265   5.924   6.706 -0.2965  0.0823  0.0604
  845POPE   C1B11959   4.776   5.784   5.871 -0.2720  0.1748 -0.1844
  845POPE   C2B11960   5.026   5.681   6.266 -0.0747 -0.0167  0.2624
  845POPE   C3B11961   4.884   6.021   6.579 -0.4547 -0.0077  0.2037
  845POPE   C4B11962   4.542   5.970   6.887  0.3318 -0.0130 -0.3120
  846POPE   NH311963   3.440  13.399   4.855 -0.2038 -0.4011  0.0120
  846POPE   PO411964   3.642  13.320   5.276 -0.0629 -0.2036  0.0559
  846POPE   GL111965   3.966  13.358   5.488 -0.0144  0.0144 -0.0518
  846POPE   GL211966   4.042  13.097   5.678  0.0132  0.5363  0.2427
  846POPE   C1A11967   4.355  13.483   5.889 -0.0225 -0.4703 -0.1663
  846POPE   D2A11968   4.645  13.350   6.108 -0.3281  0.0324 -0.0975
  846POPE   C3A11969   4.808  13.487   6.529  0.2959  0.4104 -0.0554
  846POPE   C4A11970   4.859  13.472   6.812 -0.0118  0.4309  0.0632
  846POPE   C1B11971   3.965  13.196   6.092 -0.2570  0.1686 -0.2217
  846POPE   C2B11972   4.175  13.275   6.393 -0.2116  0.3138  0.0252
  846POPE   C3B11973   4.281  13.517   6.715 -0.2403  0.0603  0.1173
  846POPE   C4B11974   4.582  13.822   7.042  0.4209 -0.0489  0.0641
  847POPE   NH311975   4.729   0.359   5.242  0.1348  0.0014 -0.3771
  847POPE   PO411976   5.063   0.175   5.158 -0.0381  0.1265  0.1786
  847POPE   GL111977   5.264   0.347   5.485 -0.2210  0.0909  0.0999
  847POPE   GL211978   5.117   0.540   5.699 -0.1509  0.0203 -0.0447
  847POPE   C1A11979   5.395   0.308   5.963 -0.0454 -0.2038 -0.3192
  847POPE   D2A11980   5.653   0.389   6.185  0.1539 -0.0462 -0.1192
  847POPE   C3A11981   5.604   0.422   6.549 -0.2793 -0.0628 -0.0987
  847POPE   C4A11982   5.576   0.242   6.980  0.5021  0.0977  0.1737
  847POPE   C1B11983   5.177   0.785   6.120 -0.0598  0.4658 -0.0022
  847POPE   C2B11984   5.243   0.751   6.533 -0.1148 -0.0351  0.1025
  847POPE   C3B11985   5.358   0.829   6.899 -0.1208  0.0639  0.1036
  847POPE   C4B11986   5.594   0.693   7.109  0.1130 -0.0319  0.0466
  848POPE   NH311987  15.224  14.573   6.007  0.2639 -0.1150 -0.2723
  848POPE   PO411988  15.605  14.784   6.044  0.1173  0.1686 -0.0313
  848POPE   GL111989  15.696  15.164   6.352 -0.0722  0.1149 -0.0960
  848POPE   GL211990  15.965  15.202   6.562  0.3173 -0.0937 -0.2415
  848POPE   C1A11991  15.450  15.430   6.526  0.1031 -0.0165  0.2330
  848POPE   D2A11992  15.305  15.813   6.806 -0.0057  0.1666 -0.1088
  848POPE   C3A11993  15.469  15.853   7.200 -0.0547 -0.1753 -0.0309
  848POPE   C4A11994  15.269  15.922   7.598 -0.1900  0.3561 -0.4312
  848POPE   C1B11995  15.759  15.087   6.904  0.0845  0.4200 -0.0516
  848POPE   C2B11996  15.467  15.348   7.105  0.2307  0.2094 -0.0246
  848POPE   C3B11997  15.488  15.458   7.517 -0.0582  0.3660  0.0715
  848POPE   C4B11998  15.400  15.033   7.801 -0.1696 -0.1762 -0.1857
  849POPE   NH311999   9.221  16.466   5.784 -0.1333  0.1376 -0.0607
  849POPE   PO412000   9.026  16.166   5.595 -0.3558 -0.1375  0.2767
  849POPE   GL112001   8.873  15.979   5.918 -0.1208 -0.2592  0.1218
  849POPE   GL212002   9.094  15.785   6.064 -0.3874  0.1523 -0.0745
  849POPE   C1A12003   8.822  16.073   6.351  0.1646  0.0542  0.1306
  849POPE   D2A12004   8.832  16.303   6.724  0.1683 -0.2603  0.0330
  849POPE   C3A12005   8.506  16.361   6.883  0.0872  0.2362 -0.0994
  849POPE   C4A12006   8.355  16.227   7.270  0.1098 -0.0355  0.1141
  849POPE   C1B12007   8.946  15.579   6.531 -0.2693  0.1593  0.1433
  849POPE   C2B12008   8.721  15.521   6.967  0.0489 -0.0635 -0.1128
  849POPE   C3B12009   8.618  15.266   7.477 -0.2283 -0.1086  0.3139
  849POPE   C4B12010   8.446  15.030   7.818  0.1837 -0.2210  0.0503
  850POPE   NH312011   1.685   3.351   5.202  0.1142  0.0879  0.1173
  850POPE   PO412012   2.120   3.644   5.024 -0.1725  0.0156  0.2915
  850POPE   GL112013   2.102   3.634   5.437 -0.1162 -0.1643 -0.1514
  850POPE   GL212014   2.510   3.669   5.537  0.0983 -0.1541 -0.2417
  850POPE   C1A12015   2.069   3.961   5.820  0.0178  0.2047 -0.0200
  850POPE   D2A12016   2.182   4.055   6.198 -0.4297 -0.2896 -0.0397
  850POPE   C3A12017   2.139   4.128   6.589 -0.0813  0.0152 -0.0358
  850POPE   C4A12018   2.190   4.127   7.129 -0.3354  0.3147  0.0876
  850POPE   C1B12019   2.611   3.684   5.967 -0.2661  0.1459  0.1357
  850POPE   C2B12020   2.550   3.643   6.372 -0.2979 -0.2243  0.2303
  850POPE   C3B12021   2.249   3.609   6.530 -0.2048  0.2118 -0.0226
  850POPE   C4B12022   2.002   3.728   6.894  0.0084 -0.4975 -0.0551
  851POPE   NH312023   0.592   6.039   5.158  0.1497 -0.3222  0.1321
  851POPE   PO412024   0.291   5.760   5.289  0.4787 -0.2520 -0.1432
  851POPE   GL112025   0.455   5.893   5.660  0.0320  0.0332  0.1829
  851POPE   GL212026   0.490   5.530   5.797  0.0313  0.0644  0.1422
  851POPE   C1A12027   0.622   6.249   5.991 -0.0029  0.1179 -0.0318
  851POPE   D2A12028   0.813   6.479   6.267 -0.0775 -0.0223  0.1352
  851POPE   C3A12029   0.558   6.442   6.572 -0.0494  0.0621  0.1149
  851POPE   C4A12030   0.756   6.090   6.744  0.2188  0.3099  0.1823
  851POPE   C1B12031   0.623   5.422   6.260 -0.3027  0.2946 -0.1124
  851POPE   C2B12032   0.630   5.276   6.658 -0.0986  0.3448 -0.3868
  851POPE   C3B12033   0.542   5.195   7.093  0.0670 -0.0652  0.1933
  851POPE   C4B12034   0.344   5.017   7.424  0.0345 -0.2829  0.2299
  852POPE   NH312035  17.197  16.169   5.402  0.0431  0.0524 -0.0240
  852POPE   PO412036  17.527  16.206   5.619 -0.0846  0.2624 -0.0932
  852POPE   GL112037  17.619  16.504   5.869 -0.2964 -0.2328 -0.1928
  852POPE   GL212038  17.743  16.441   6.222 -0.1469 -0.3428  0.1345
  852POPE   C1A12039  17.379  16.771   6.252 -0.2623 -0.0750 -0.4425
  852POPE   D2A12040  17.265  17.146   6.387 -0.0370 -0.2734 -0.0988
  852POPE   C3A12041  17.384  17.212   6.781  0.3693  0.0271 -0.2327
  852POPE   C4A12042  17.134  17.159   7.207  0.0897 -0.0546 -0.1679
  852POPE   C1B12043  17.844  16.255   6.542  0.0825  0.2685 -0.0393
  852POPE   C2B12044  18.038  16.098   6.899  0.0993  0.4356 -0.0869
  852POPE   C3B12045  18.360  15.830   7.009  0.0835  0.1950  0.0448
  852POPE   C4B12046  18.832  15.762   6.898 -0.0578  0.1076  0.0069
  853POPE   NH312047   2.993  13.888   5.112 -0.0762 -0.0640 -0.1743
  853POPE   PO412048   2.657  14.271   5.073  0.0837 -0.0697 -0.5491
  853POPE   GL112049   2.803  14.340   5.592  0.1099  0.2334  0.4181
  853POPE   GL212050   2.716  14.656   5.757  0.0352 -0.0809  0.0728
  853POPE   C1A12051   2.936  14.254   6.051 -0.0619 -0.2419  0.0301
  853POPE   D2A12052   2.945  14.451   6.383  0.3021  0.0046  0.0401
  853POPE   C3A12053   2.542  14.584   6.768 -0.0259 -0.2237 -0.3634
  853POPE   C4A12054   2.601  14.921   7.047  0.2879  0.1872  0.2365
  853POPE   C1B12055   2.530  14.605   6.098  0.1068  0.0646  0.3452
  853POPE   C2B12056   2.179  14.659   6.438 -0.2755  0.2684  0.2536
  853POPE   C3B12057   2.039  14.373   6.653 -0.1789  0.2389 -0.1344
  853POPE   C4B12058   1.980  14.082   7.091 -0.0611 -0.3363  0.1715
  854POPE   NH312059  17.763   1.340   5.799  0.2453 -0.2108 -0.1671
  854POPE   PO412060  17.707   0.967   5.695 -0.0829  0.1267 -0.0484
  854POPE   GL112061  18.065   0.843   6.091 -0.3100  0.1644 -0.0213
  854POPE   GL212062  17.853   0.992   6.312 -0.0453 -0.1605 -0.0672
  854POPE   C1A12063  18.206   0.755   6.579  0.0581 -0.2055  0.2584
  854POPE   D2A12064  18.175   0.592   7.019  0.0381  0.0794 -0.2001
  854POPE   C3A12065  18.240   0.838   7.465  0.1300  0.0863  0.3544
  854POPE   C4A12066  18.207   1.093   7.809 -0.1363  0.1916 -0.0912
  854POPE   C1B12067  17.757   0.832   6.774  0.0751  0.0149  0.0900
  854POPE   C2B12068  17.687   0.698   7.095  0.3656 -0.1796  0.2054
  854POPE   C3B12069  17.774   0.596   7.492 -0.2397 -0.0229 -0.0326
  854POPE   C4B12070  17.660   0.249   7.770  0.1411  0.3752 -0.0652
  855POPE   NH312071  15.267   1.826   5.890  0.2778 -0.0347  0.4679
  855POPE   PO412072  14.855   1.603   5.842 -0.0841 -0.0177  0.2012
  855POPE   GL112073  15.003   1.371   6.094 -0.0600 -0.3342 -0.1200
  855POPE   GL212074  14.752   1.153   6.102 -0.2437  0.2736 -0.1217
  855POPE   C1A12075  15.119   1.374   6.473  0.2014  0.1418 -0.0567
  855POPE   D2A12076  15.274   1.613   6.734 -0.0630 -0.2435 -0.0923
  855POPE   C3A12077  15.120   1.657   7.200  0.0104 -0.2168 -0.1067
  855POPE   C4A12078  14.875   1.794   7.591  0.0898  0.1416  0.2791
  855POPE   C1B12079  14.722   1.054   6.594  0.0700 -0.2744 -0.3424
  855POPE   C2B12080  14.639   0.949   7.081  0.0053  0.1115  0.2472
  855POPE   C3B12081  14.369   1.057   7.414  0.2136 -0.3044 -0.0871
  855POPE   C4B12082  14.102   1.092   7.716  0.2054 -0.2240  0.2763
  856POPE   NH312083  10.589   5.804   4.467 -0.1601  0.0549 -0.0688
  856POPE   PO412084  10.667   5.537   4.782 -0.1869 -0.0484  0.1890
  856POPE   GL112085  10.493   5.833   5.143 -0.1009  0.1105  0.2025
  856POPE   GL212086  10.619   6.070   5.191  0.1448  0.1067 -0.2698
  856POPE   C1A12087  10.451   5.608   5.547 -0.1972 -0.0859  0.1794
  856POPE   D2A12088  10.323   5.572   5.964  0.1968  0.0698 -0.1940
  856POPE   C3A12089  10.097   5.799   6.175  0.1306 -0.0988  0.1488
  856POPE   C4A12090   9.548   5.960   6.333  0.2195  0.0155 -0.3001
  856POPE   C1B12091  10.436   6.094   5.742  0.4757  0.1081  0.0349
  856POPE   C2B12092  10.404   6.158   6.256  0.0055 -0.2089 -0.0046
  856POPE   C3B12093  10.414   6.305   6.656  0.2482 -0.1534  0.0669
  856POPE   C4B12094  10.465   6.714   6.961 -0.1869 -0.0692  0.1594
  857POPE   NH312095   0.636  14.160   5.306  0.0357  0.1801  0.1582
  857POPE   PO412096   0.813  13.654   5.240 -0.0444 -0.0543 -0.1785
  857POPE   GL112097   1.208  13.913   5.396 -0.0833  0.1103 -0.0359
  857POPE   GL212098   1.045  14.135   5.532  0.2234  0.0878  0.0463
  857POPE   C1A12099   1.450  14.165   5.785 -0.1997 -0.0240  0.1516
  857POPE   D2A12100   1.909  14.072   5.785 -0.5403  0.1512 -0.1200
  857POPE   C3A12101   2.111  14.228   6.167 -0.1304 -0.0991  0.0528
  857POPE   C4A12102   2.482  14.152   6.370 -0.1886 -0.2024  0.0662
  857POPE   C1B12103   1.050  13.951   5.954  0.3809 -0.0094 -0.2810
  857POPE   C2B12104   0.943  13.772   6.372  0.0938  0.0058 -0.0144
  857POPE   C3B12105   1.153  13.551   6.573 -0.0023  0.3241  0.2776
  857POPE   C4B12106   1.292  13.155   6.541 -0.2258  0.2339  0.1784
  858POPE   NH312107   3.103  16.458   4.842 -0.0096 -0.1831 -0.2156
  858POPE   PO412108   3.135  16.919   5.062 -0.1491 -0.2155  0.0664
  858POPE   GL112109   2.857  16.950   5.423  0.2726 -0.1940 -0.1305
  858POPE   GL212110   2.741  17.165   5.403 -0.1876 -0.1396  0.5215
  858POPE   C1A12111   2.935  16.935   5.863 -0.3886  0.0745 -0.1497
  858POPE   D2A12112   3.084  16.837   6.184 -0.0113  0.0204  0.3163
  858POPE   C3A12113   2.958  16.622   6.295 -0.0606 -0.1847  0.1939
  858POPE   C4A12114   2.889  16.390   6.670  0.0555 -0.1613 -0.0866
  858POPE   C1B12115   2.859  17.390   5.770  0.3083  0.1618 -0.2027
  858POPE   C2B12116   2.925  17.327   6.214  0.0297 -0.1439  0.0645
  858POPE   C3B12117   3.081  17.194   6.628  0.3270 -0.2425 -0.1120
  858POPE   C4B12118   3.086  17.488   7.043 -0.3298  0.0291  0.3356
  859POPE   NH312119  14.415  16.262   6.164  0.0169  0.1616  0.1941
  859POPE   PO412120  14.534  15.894   5.869 -0.3628 -0.1525 -0.0906
  859POPE   GL112121  14.764  15.904   6.276  0.0106  0.1102 -0.2653
  859POPE   GL212122  15.102  16.064   6.386  0.0496 -0.0826  0.0577
  859POPE   C1A12123  14.718  15.936   6.718  0.0737  0.3931 -0.1896
  859POPE   D2A12124  14.885  15.991   7.112 -0.0466  0.2137 -0.1648
  859POPE   C3A12125  14.882  16.231   7.507  0.0474  0.0026  0.0488
  859POPE   C4A12126  14.647  16.335   7.879 -0.1383  0.1879  0.0716
  859POPE   C1B12127  15.114  16.236   6.735 -0.1417 -0.2317  0.1966
  859POPE   C2B12128  15.231  16.354   7.150 -0.0857  0.1831  0.3651
  859POPE   C3B12129  15.391  16.387   7.478  0.3959  0.2602 -0.1004
  859POPE   C4B12130  15.576  16.334   7.757  0.2835 -0.2384 -0.2251
  860POPE   NH312131   8.861   8.531   5.444  0.1649 -0.0543 -0.3045
  860POPE   PO412132   8.659   8.955   5.372 -0.1217 -0.0484 -0.3857
  860POPE   GL112133   8.482   8.947   5.790  0.2845 -0.0961 -0.1940
  860POPE   GL212134   8.375   8.591   5.827 -0.1458 -0.0690  0.0997
  860POPE   C1A12135   8.685   8.854   6.090 -0.2903  0.0829  0.0262
  860POPE   D2A12136   9.032   8.666   6.187  0.2261  0.1749 -0.1496
  860POPE   C3A12137   9.386   8.772   6.151  0.0649 -0.0698 -0.1989
  860POPE   C4A12138   9.781   8.883   6.317 -0.2115  0.0191  0.2411
  860POPE   C1B12139   8.258   8.510   6.284  0.0576 -0.1080 -0.4515
  860POPE   C2B12140   8.272   8.219   6.613 -0.1478  0.4315 -0.2988
  860POPE   C3B12141   8.311   8.070   6.970  0.0300 -0.0850  0.2014
  860POPE   C4B12142   8.455   7.852   7.252 -0.0473 -0.0161  0.2269
  861POPE   NH312143   8.152   3.759   5.482 -0.1651 -0.1718 -0.2228
  861POPE   PO412144   8.372   4.176   5.554 -0.2229  0.1687  0.3948
  861POPE   GL112145   8.552   4.352   5.924 -0.0738 -0.0857  0.1342
  861POPE   GL212146   8.559   4.052   6.116  0.0772  0.1209  0.2224
  861POPE   C1A12147   8.708   4.672   6.202 -0.0846 -0.4311  0.3177
  861POPE   D2A12148   8.769   4.617   6.696 -0.0953 -0.0090  0.1674
  861POPE   C3A12149   8.482   4.866   6.891  0.1109 -0.0977 -0.0810
  861POPE   C4A12150   8.388   4.888   7.311 -0.3286  0.2722 -0.1959
  861POPE   C1B12151   8.442   3.639   6.245 -0.1982 -0.3293  0.0423
  861POPE   C2B12152   8.272   3.338   6.577  0.2805  0.1795  0.0503
  861POPE   C3B12153   8.239   3.282   7.069  0.4040  0.2480  0.0582
  861POPE   C4B12154   8.099   3.115   7.491 -0.1694  0.1072 -0.0215
  862POPE   NH312155   8.950   2.069   5.654 -0.3028  0.0737 -0.1687
  862POPE   PO412156   8.885   1.592   5.710  0.0080  0.1966 -0.0374
  862POPE   GL112157   8.552   1.491   5.996 -0.0980  0.1466  0.3367
  862POPE   GL212158   8.337   1.266   5.904  0.2116 -0.0961  0.4145
  862POPE   C1A12159   8.239   1.693   6.323  0.2615 -0.1753 -0.1235
  862POPE   D2A12160   8.098   1.565   6.686 -0.0848  0.1410  0.1422
  862POPE   C3A12161   8.249   1.460   7.080 -0.1139 -0.0698  0.0189
  862POPE   C4A12162   8.392   1.540   7.562  0.3480 -0.0912  0.0553
  862POPE   C1B12163   8.188   1.220   6.342  0.1499 -0.0509  0.1311
  862POPE   C2B12164   8.171   1.032   6.771 -0.0376 -0.4173 -0.3248
  862POPE   C3B12165   8.022   0.997   7.162 -0.3629 -0.3523  0.0222
  862POPE   C4B12166   7.883   0.780   7.571 -0.2586  0.2128 -0.0643
  863POPE   NH312167  14.322   3.838   5.685 -0.2807 -0.2516 -0.1877
  863POPE   PO412168  14.316   3.420   5.672  0.0266 -0.1306  0.0147
  863POPE   GL112169  14.076   3.456   5.947  0.0678  0.2200  0.1104
  863POPE   GL212170  13.939   3.158   6.040  0.0119 -0.0605  0.3346
  863POPE   C1A12171  13.811   3.708   6.295 -0.0140 -0.0174  0.2627
  863POPE   D2A12172  13.543   4.096   6.486  0.3824  0.1801  0.0188
  863POPE   C3A12173  13.302   3.995   6.804  0.2387 -0.0443  0.1692
  863POPE   C4A12174  13.208   3.859   7.124  0.0168  0.0392 -0.3345
  863POPE   C1B12175  13.832   3.215   6.380  0.1077 -0.0166 -0.4935
  863POPE   C2B12176  13.907   3.110   6.830 -0.0223  0.1619 -0.0072
  863POPE   C3B12177  13.965   3.365   7.285 -0.1030  0.1036  0.0933
  863POPE   C4B12178  14.122   3.312   7.708  0.0811  0.2222 -0.0547
  864POPE   NH312179  13.833  18.902   5.871  0.0125  0.2994  0.0277
  864POPE   PO412180  14.283  19.018   5.890  0.0897 -0.2667 -0.2832
  864POPE   GL112181  14.687  18.764   6.194  0.1937  0.1230 -0.1702
  864POPE   GL212182  14.634  18.467   6.254 -0.1636 -0.1138 -0.0657
  864POPE   C1A12183  15.005  18.899   6.395 -0.1357  0.1787  0.0075
  864POPE   D2A12184  15.273  18.942   6.795  0.2761 -0.2402 -0.1727
  864POPE   C3A12185  15.370  19.327   7.030 -0.1839  0.4312 -0.0343
  864POPE   C4A12186  15.693  19.568   7.385  0.0709 -0.4626  0.1557
  864POPE   C1B12187  14.664  18.518   6.657  0.0914 -0.0131 -0.1257
  864POPE   C2B12188  15.045  18.345   7.038  0.1712  0.0226 -0.1435
  864POPE   C3B12189  15.347  18.309   7.301  0.0451 -0.0196  0.2003
  864POPE   C4B12190  15.456  18.531   7.592 -0.1924  0.0333  0.2376
  865POPE   NH312191  16.832  17.549   5.315  0.2201  0.0678 -0.1323
  865POPE   PO412192  17.137  17.423   5.611  0.0306  0.1439  0.1313
  865POPE   GL112193  17.293  17.779   6.040 -0.1371  0.3434 -0.1670
  865POPE   GL212194  17.490  17.682   6.258 -0.0093  0.1016 -0.2283
  865POPE   C1A12195  17.490  18.175   6.128 -0.2028  0.2556 -0.0714
  865POPE   D2A12196  17.692  18.545   6.266  0.0716 -0.1985 -0.4289
  865POPE   C3A12197  17.902  18.511   6.615  0.3054  0.0202 -0.2239
  865POPE   C4A12198  18.122  18.308   6.852  0.0673  0.2102  0.1313
  865POPE   C1B12199  17.607  17.638   6.672 -0.0124 -0.2163 -0.0583
  865POPE   C2B12200  17.808  17.415   7.030  0.2585  0.0137 -0.4125
  865POPE   C3B12201  17.582  17.373   7.368 -0.0426 -0.0829  0.0786
  865POPE   C4B12202  17.158  17.498   7.533 -0.0039 -0.0430 -0.1772
  866POPE   NH312203  13.304   8.548   5.422 -0.0703  0.0620 -0.0289
  866POPE   PO412204  13.603   8.205   5.334 -0.0933 -0.0210  0.3260
  866POPE   GL112205  13.740   8.285   5.793  0.1508  0.1642  0.1492
  866POPE   GL212206  13.460   8.344   5.885 -0.1104 -0.2187  0.0673
  866POPE   C1A12207  13.788   8.481   6.265  0.0947 -0.1525  0.2027
  866POPE   D2A12208  14.125   8.532   6.570  0.0393  0.1243  0.3204
  866POPE   C3A12209  14.415   8.297   6.550  0.0719  0.1693  0.1870
  866POPE   C4A12210  14.802   8.359   6.754  0.0313  0.1010 -0.4006
  866POPE   C1B12211  13.459   8.042   6.325 -0.0224 -0.0434  0.0563
  866POPE   C2B12212  13.577   8.219   6.734  0.0388 -0.3057 -0.0985
  866POPE   C3B12213  13.430   8.133   7.090  0.0108  0.0230  0.0578
  866POPE   C4B12214  13.171   8.253   7.335  0.2014  0.0738  0.1873
  867POPE   NH312215   0.608  14.336   4.701 -0.1029 -0.1382  0.1293
  867POPE   PO412216   0.763  14.602   5.121  0.1046 -0.2677  0.1995
  867POPE   GL112217   0.899  14.668   5.513  0.2609  0.0844  0.0403
  867POPE   GL212218   1.316  14.565   5.538  0.3323 -0.2410  0.3228
  867POPE   C1A12219   0.756  14.470   5.985 -0.3142  0.0290  0.4222
  867POPE   D2A12220   0.528  14.495   6.367  0.0017 -0.2514  0.0372
  867POPE   C3A12221   0.514  14.665   6.790 -0.1695  0.1022 -0.2312
  867POPE   C4A12222   0.536  14.675   7.174  0.1345  0.1730  0.0370
  867POPE   C1B12223   1.271  14.777   5.981 -0.2911  0.3076 -0.0657
  867POPE   C2B12224   1.145  15.161   6.300 -0.0764  0.0156 -0.0431
  867POPE   C3B12225   1.255  15.212   6.626 -0.0392 -0.0572 -0.1012
  867POPE   C4B12226   1.146  15.247   7.119 -0.1686  0.0317  0.0833
  868POPE   NH312227   1.502   8.078   4.669  0.1834 -0.0927 -0.1718
  868POPE   PO412228   1.677   8.307   5.029 -0.0548 -0.1385 -0.3146
  868POPE   GL112229   1.567   8.454   5.413  0.0334 -0.2254 -0.1475
  868POPE   GL212230   1.421   8.235   5.634  0.4086  0.2721  0.4042
  868POPE   C1A12231   1.717   8.489   5.884 -0.1837 -0.0787  0.0729
  868POPE   D2A12232   1.847   8.105   6.059 -0.1834 -0.1296  0.2582
  868POPE   C3A12233   2.216   7.978   6.125 -0.2570  0.0183  0.0215
  868POPE   C4A12234   2.368   7.618   6.358 -0.1599 -0.0566 -0.2833
  868POPE   C1B12235   1.003   8.227   6.010 -0.2522 -0.0752 -0.0737
  868POPE   C2B12236   1.142   8.552   6.368  0.4797 -0.0901  0.2246
  868POPE   C3B12237   1.242   8.825   6.667 -0.0457 -0.0343  0.1939
  868POPE   C4B12238   1.174   8.920   7.063  0.1607 -0.2573  0.0540
  869POPE   NH312239   5.685  16.108   5.147  0.1200  0.0140 -0.1357
  869POPE   PO412240   6.009  16.363   5.306 -0.1370 -0.0348 -0.1508
  869POPE   GL112241   6.186  16.256   5.778 -0.2386  0.0363 -0.1120
  869POPE   GL212242   6.105  16.503   5.946  0.2316  0.2606 -0.1830
  869POPE   C1A12243   6.105  16.006   6.191 -0.2497  0.0222  0.0709
  869POPE   D2A12244   6.108  15.947   6.608  0.0036 -0.0245 -0.1332
  869POPE   C3A12245   5.869  15.848   6.909  0.0265 -0.0533 -0.1177
  869POPE   C4A12246   5.702  16.060   7.228 -0.0334  0.0911 -0.0216
  869POPE   C1B12247   6.004  16.513   6.208  0.0557  0.1560  0.2100
  869POPE   C2B12248   5.930  16.424   6.628  0.3486  0.1419  0.1115
  869POPE   C3B12249   5.590  16.418   6.876 -0.1667  0.0397  0.2043
  869POPE   C4B12250   5.266  16.405   7.210  0.1747  0.0678 -0.2807
  870POPE   NH312251  15.085  16.044   5.804  0.1651  0.0418 -0.0042
  870POPE   PO412252  14.814  16.326   5.960 -0.0692  0.0700  0.0327
  870POPE   GL112253  14.796  16.551   6.343 -0.1883  0.1961  0.2821
  870POPE   GL212254  14.889  16.939   6.335  0.0876  0.0653 -0.4851
  870POPE   C1A12255  14.831  16.657   6.794  0.1023  0.2364 -0.2661
  870POPE   D2A12256  14.987  16.776   7.197  0.0540  0.2661 -0.0159
  870POPE   C3A12257  14.704  16.680   7.537 -0.1679  0.1278 -0.2907
  870POPE   C4A12258  14.249  16.638   7.750  0.0333  0.2538 -0.0397
  870POPE   C1B12259  15.059  17.140   6.677 -0.0147  0.1813  0.0022
  870POPE   C2B12260  14.941  17.281   7.061  0.1822  0.1877  0.0646
  870POPE   C3B12261  14.941  17.160   7.500 -0.2018 -0.1233 -0.3861
  870POPE   C4B12262  15.185  16.913   7.677 -0.3238 -0.0455 -0.4073
  871POPE   NH312263  13.707  18.037   6.147  0.1171  0.2040  0.3943
  871POPE   PO412264  13.201  17.946   5.960 -0.0977 -0.1034 -0.0195
  871POPE   GL112265  13.158  18.140   6.384  0.0353  0.1813  0.0336
  871POPE   GL212266  13.425  18.235   6.491 -0.1269 -0.1238  0.0991
  871POPE   C1A12267  13.338  17.947   6.813 -0.2327  0.0161 -0.1439
  871POPE   D2A12268  13.303  18.063   7.238 -0.3846  0.0667 -0.2128
  871POPE   C3A12269  13.297  18.086   7.671  0.0281 -0.0264  0.1379
  871POPE   C4A12270  13.157  18.202   8.054  0.0961  0.1029  0.1600
  871POPE   C1B12271  13.627  18.370   6.850 -0.0872 -0.2541  0.0565
  871POPE   C2B12272  13.617  18.508   7.146  0.1947  0.2585  0.2332
  871POPE   C3B12273  13.632  18.469   7.514 -0.0934  0.0037  0.2091
  871POPE   C4B12274  13.655  18.243   7.958 -0.0129  0.1493  0.1921
  872YOPE   NH312275  11.529  10.115   5.571  0.1740 -0.1224 -0.0001
  872YOPE   PO412276  11.940  10.271   5.568 -0.2528 -0.3226 -0.1960
  872YOPE   GL112277  11.855  10.263   5.972  0.2854 -0.1490  0.0399
  872YOPE   GL212278  11.835  10.461   6.142  0.2331 -0.0965  0.1397
  872YOPE   C1A12279  11.754   9.972   6.358 -0.0773  0.0014 -0.2545
  872YOPE   D2A12280  11.805   9.839   6.819  0.1022 -0.1600  0.5123
  872YOPE   C3A12281  11.541   9.906   7.204 -0.2083 -0.1092  0.0084
  872YOPE   C4A12282  11.406   9.698   7.537  0.1209  0.2241  0.2983
  872YOPE   C1B12283  11.824  10.420   6.606 -0.0254  0.3322 -0.1182
  872YOPE   C2B12284  12.013  10.364   7.018 -0.1620  0.0308  0.1128
  872YOPE   D3B12285  11.837  10.255   7.424  0.0380  0.3396 -0.3818
  872YOPE   C4B12286  11.861  10.653   7.733  0.2186  0.1068 -0.0341
  873YOPE   NH312287   6.858  17.717   5.440 -0.1419  0.0419 -0.2223
  873YOPE   PO412288   7.240  17.853   5.376 -0.1261  0.1657 -0.0235
  873YOPE   GL112289   7.186  17.839   5.837  0.2759 -0.1745  0.2811
  873YOPE   GL212290   7.439  18.074   5.954 -0.2704  0.2889  0.3806
  873YOPE   C1A12291   6.847  17.493   6.066 -0.0039 -0.1020 -0.1351
  873YOPE   D2A12292   6.592  17.346   6.431  0.0689  0.1188 -0.4349
  873YOPE   C3A12293   6.731  17.368   6.882 -0.0112  0.2025 -0.2363
  873YOPE   C4A12294   6.796  17.154   7.199  0.4718  0.0829  0.0988
  873YOPE   C1B12295   7.169  18.249   6.272 -0.1685  0.0617 -0.0988
  873YOPE   C2B12296   6.942  18.286   6.623 -0.1552 -0.0879  0.2042
  873YOPE   D3B12297   6.875  18.686   6.868  0.2244 -0.0748  0.3775
  873YOPE   C4B12298   6.741  18.627   7.338 -0.1028 -0.0059  0.2466
  874YOPE   NH312299   8.793   3.053   5.249  0.0484 -0.2420 -0.1981
  874YOPE   PO412300   8.494   3.367   5.370  0.1159  0.2308  0.0115
  874YOPE   GL112301   8.516   3.079   5.740 -0.0118  0.0746  0.0541
  874YOPE   GL212302   8.694   3.301   5.955 -0.2331  0.1285 -0.4258
  874YOPE   C1A12303   8.264   3.069   6.103  0.3312  0.2206 -0.2205
  874YOPE   D2A12304   7.919   2.872   6.383 -0.4772  0.2787  0.1124
  874YOPE   C3A12305   7.734   2.829   6.781  0.3628 -0.0637  0.1574
  874YOPE   C4A12306   7.695   3.066   7.135  0.0459  0.1668 -0.2708
  874YOPE   C1B12307   8.708   3.241   6.389  0.0769  0.1947 -0.2603
  874YOPE   C2B12308   8.869   2.914   6.708 -0.2039 -0.2851  0.2409
  874YOPE   D3B12309   8.633   3.004   7.176  0.3490 -0.0540 -0.1436
  874YOPE   C4B12310   8.574   3.065   7.542 -0.0246  0.0617  0.1079
  875YOPE   NH312311  13.991  15.467   6.344  0.3200 -0.0572  0.1317
  875YOPE   PO412312  14.420  15.530   6.345 -0.0914  0.1299 -0.2787
  875YOPE   GL112313  14.408  15.258   6.749  0.2384 -0.0470  0.0084
  875YOPE   GL212314  14.551  14.985   6.555 -0.0417  0.0846 -0.0730
  875YOPE   C1A12315  14.163  15.185   7.102 -0.0508 -0.1309 -0.1961
  875YOPE   D2A12316  14.124  15.187   7.511  0.0969  0.0185  0.3255
  875YOPE   C3A12317  14.440  15.366   7.718  0.0550 -0.0782 -0.1765
  875YOPE   C4A12318  14.534  15.451   8.186  0.1223  0.2488  0.0214
  875YOPE   C1B12319  14.642  14.891   6.950 -0.2222  0.1938 -0.0176
  875YOPE   C2B12320  14.690  14.979   7.408 -0.0558  0.2409 -0.1778
  875YOPE   D3B12321  14.477  14.877   7.725  0.0042  0.0307 -0.2165
  875YOPE   C4B12322  14.502  14.977   8.114  0.3238 -0.3108  0.1764
  876YOPE   NH312323   1.135  16.519   5.328 -0.1192  0.3400  0.1294
  876YOPE   PO412324   1.433  16.633   4.998  0.1058  0.2876  0.0321
  876YOPE   GL112325   1.698  16.507   5.356 -0.0211  0.0914  0.4454
  876YOPE   GL212326   1.566  16.565   5.601  0.0249  0.1348 -0.2303
  876YOPE   C1A12327   2.139  16.522   5.592  0.3358  0.2881 -0.2681
  876YOPE   D2A12328   2.476  16.499   5.878 -0.3298 -0.2850  0.2114
  876YOPE   C3A12329   2.410  16.440   6.283 -0.3989 -0.0777  0.4157
  876YOPE   C4A12330   2.365  16.482   6.760 -0.1613  0.1445 -0.1047
  876YOPE   C1B12331   1.372  16.933   5.840 -0.2475  0.2419  0.1816
  876YOPE   C2B12332   1.126  17.216   6.202  0.1462 -0.1796  0.3035
  876YOPE   D3B12333   0.977  17.580   6.180 -0.2352 -0.0330 -0.2770
  876YOPE   C4B12334   0.655  17.780   6.457  0.0240 -0.2535 -0.0452
  877YOPE   NH312335  11.735   2.003   5.163  0.0061  0.3660  0.1956
  877YOPE   PO412336  11.852   1.808   5.489  0.0521 -0.1229 -0.2110
  877YOPE   GL112337  11.692   1.649   5.880  0.2414 -0.1640 -0.1157
  877YOPE   GL212338  11.342   1.586   5.861 -0.0637 -0.2241 -0.0512
  877YOPE   C1A12339  11.631   1.743   6.337  0.1316  0.1082  0.2663
  877YOPE   D2A12340  11.232   1.891   6.456  0.0452 -0.0091 -0.0460
  877YOPE   C3A12341  11.179   2.002   6.825 -0.4029  0.0343 -0.1879
  877YOPE   C4A12342  11.107   2.094   7.252 -0.0792  0.3170  0.0045
  877YOPE   C1B12343  11.309   1.315   6.253 -0.1266 -0.1827 -0.0391
  877YOPE   C2B12344  11.636   1.169   6.414 -0.2834 -0.1389  0.2786
  877YOPE   D3B12345  11.949   0.908   6.412 -0.2649 -0.3370 -0.1964
  877YOPE   C4B12346  12.316   0.704   6.412  0.3642  0.1125  0.1837
  878YOPE   NH312347   4.998  15.476   4.888 -0.2038 -0.1428 -0.1623
  878YOPE   PO412348   5.404  15.720   4.968 -0.0667 -0.0152  0.0450
  878YOPE   GL112349   5.347  15.768   5.354 -0.0333  0.2847  0.0201
  878YOPE   GL212350   5.129  15.554   5.366  0.1647 -0.3556 -0.3224
  878YOPE   C1A12351   5.251  16.030   5.788  0.0749  0.0285 -0.1644
  878YOPE   D2A12352   5.040  16.246   6.033 -0.1902 -0.0313 -0.0108
  878YOPE   C3A12353   5.055  16.440   6.383 -0.4794 -0.0943 -0.2147
  878YOPE   C4A12354   5.096  16.389   6.774 -0.1424  0.4125  0.1455
  878YOPE   C1B12355   4.961  15.326   5.742  0.0064 -0.0722 -0.3668
  878YOPE   C2B12356   4.964  14.937   5.902  0.3263 -0.2501 -0.2196
  878YOPE   D3B12357   5.134  14.723   6.199 -0.1702  0.2609  0.0405
  878YOPE   C4B12358   5.243  14.663   6.655 -0.3107  0.0367 -0.0819
  879YOPE   NH312359  13.086  15.859   6.031  0.0452 -0.1427 -0.3119
  879YOPE   PO412360  12.821  15.499   6.170 -0.0105  0.0311 -0.1753
  879YOPE   GL112361  12.636  15.262   6.448  0.0875  0.2394 -0.3674
  879YOPE   GL212362  12.417  15.299   6.480  0.0225  0.3353  0.0401
  879YOPE   C1A12363  12.720  15.455   6.808 -0.0363 -0.3245 -0.1740
  879YOPE   D2A12364  12.668  15.489   7.167  0.1271  0.1118 -0.1786
  879YOPE   C3A12365  12.850  15.251   7.473 -0.2016  0.1579 -0.2317
  879YOPE   C4A12366  12.759  15.042   7.915 -0.0256  0.1269 -0.0880
  879YOPE   C1B12367  12.379  15.136   6.929 -0.0788 -0.1355  0.0089
  879YOPE   C2B12368  12.450  15.016   7.270  0.1661 -0.1749  0.2964
  879YOPE   D3B12369  12.326  15.071   7.502  0.4685 -0.1027  0.1033
  879YOPE   C4B12370  12.435  15.478   7.748 -0.0453  0.1552  0.0413
  880YOPE   NH312371   6.071   8.933   4.779  0.0476 -0.1244  0.0104
  880YOPE   PO412372   5.902   8.768   5.189 -0.3182 -0.0008  0.3785
  880YOPE   GL112373   5.733   8.503   5.553  0.0380  0.0042  0.2356
  880YOPE   GL212374   5.777   8.224   5.729  0.1302  0.1593  0.1046
  880YOPE   C1A12375   5.939   8.644   5.973  0.0720 -0.1231 -0.2325
  880YOPE   D2A12376   6.009   8.513   6.366  0.0074 -0.0496 -0.3255
  880YOPE   C3A12377   5.787   8.560   6.697 -0.1703 -0.0912 -0.0450
  880YOPE   C4A12378   5.429   8.668   7.024 -0.2022  0.1671  0.1778
  880YOPE   C1B12379   5.605   8.257   6.160  0.0159 -0.0520  0.2725
  880YOPE   C2B12380   5.459   8.222   6.550  0.2585  0.0127 -0.2267
  880YOPE   D3B12381   5.669   8.148   7.044 -0.1416 -0.2790  0.1075
  880YOPE   C4B12382   5.671   7.948   7.488 -0.1582 -0.2361 -0.2615
  881YOPE   NH312383  11.802  16.264   5.890  0.0549  0.2676  0.1040
  881YOPE   PO412384  11.725  15.848   6.112  0.2963 -0.0396 -0.1137
  881YOPE   GL112385  11.474  16.010   6.278 -0.1237  0.0505  0.1116
  881YOPE   GL212386  11.178  16.146   6.164  0.2686 -0.1200 -0.2006
  881YOPE   C1A12387  11.372  16.219   6.643  0.0964 -0.2677  0.1455
  881YOPE   D2A12388  11.046  16.356   6.866 -0.1232 -0.0330 -0.2184
  881YOPE   C3A12389  11.123  16.759   7.182 -0.1311  0.6094  0.1504
  881YOPE   C4A12390  11.427  17.077   7.343 -0.3275  0.1462  0.1536
  881YOPE   C1B12391  10.844  16.412   6.423  0.0390  0.1340 -0.1788
  881YOPE   C2B12392  10.780  16.753   6.728  0.0908 -0.1140  0.2070
  881YOPE   D3B12393  10.551  16.944   6.960  0.1264  0.0096 -0.1213
  881YOPE   C4B12394  10.549  17.398   6.884  0.4104  0.4712  0.0238
  882YOPE   NH312395  14.447   4.937   5.551  0.1645  0.0225 -0.0122
  882YOPE   PO412396  14.283   4.487   5.525  0.0266 -0.0259 -0.0669
  882YOPE   GL112397  14.410   4.287   5.928  0.0849 -0.3792  0.0358
  882YOPE   GL212398  14.074   4.214   6.022 -0.2988  0.4022 -0.1732
  882YOPE   C1A12399  14.411   4.420   6.322  0.2675  0.0941  0.0915
  882YOPE   D2A12400  14.283   4.462   6.688 -0.3432  0.0015  0.1006
  882YOPE   C3A12401  14.669   4.547   6.941  0.2775  0.2239  0.0280
  882YOPE   C4A12402  14.609   4.801   7.286  0.1130  0.2006 -0.3942
  882YOPE   C1B12403  13.930   4.266   6.346  0.1895  0.1647  0.1521
  882YOPE   C2B12404  13.969   4.008   6.710 -0.1863  0.0851 -0.1843
  882YOPE   D3B12405  13.846   4.195   7.121  0.0007  0.3522  0.0701
  882YOPE   C4B12406  13.515   4.204   7.370  0.0465 -0.1382  0.0656
  883YOPE   NH312407  17.186   8.467   5.865 -0.0205 -0.0489  0.0965
  883YOPE   PO412408  16.936   8.133   5.898  0.2078  0.1043 -0.0671
  883YOPE   GL112409  17.186   7.997   6.140  0.3706 -0.0856 -0.3037
  883YOPE   GL212410  17.294   8.258   6.340  0.2164  0.4637  0.0274
  883YOPE   C1A12411  17.322   7.788   6.561 -0.1300  0.0932  0.1353
  883YOPE   D2A12412  17.613   7.708   6.817  0.0020  0.5283  0.0070
  883YOPE   C3A12413  17.783   8.109   6.903  0.0224 -0.0485  0.1737
  883YOPE   C4A12414  18.208   8.159   7.095  0.2198  0.1527 -0.0757
  883YOPE   C1B12415  17.331   8.257   6.738 -0.0996  0.2339 -0.1126
  883YOPE   C2B12416  17.294   8.040   7.085  0.0223  0.0535 -0.0707
  883YOPE   D3B12417  17.428   7.947   7.469 -0.0464 -0.1511 -0.0566
  883YOPE   C4B12418  17.613   7.648   7.659  0.2403 -0.2101 -0.1000
  884YOPE   NH312419   2.215  14.256   4.804 -0.1681  0.5649 -0.4579
  884YOPE   PO412420   2.034  13.802   4.850 -0.1088  0.0178 -0.1784
  884YOPE   GL112421   1.831  14.102   5.103 -0.1267  0.0221  0.1134
  884YOPE   GL212422   1.705  13.833   5.339 -0.0329 -0.0410 -0.1003
  884YOPE   C1A12423   1.768  14.447   5.382  0.2902  0.2277  0.0675
  884YOPE   D2A12424   1.780  14.568   5.874  0.0693 -0.0826  0.3056
  884YOPE   C3A12425   1.643  14.295   6.243  0.0384 -0.5013 -0.1172
  884YOPE   C4A12426   1.172  14.209   6.375  0.0805 -0.1186  0.0815
  884YOPE   C1B12427   1.594  13.672   5.707  0.0028 -0.0173  0.0463
  884YOPE   C2B12428   1.801  13.511   6.067 -0.1327 -0.0556  0.2825
  884YOPE   D3B12429   2.090  13.319   6.333 -0.0484  0.1201  0.1370
  884YOPE   C4B12430   2.504  13.349   6.487 -0.2142  0.0129 -0.3107
  885YOPE   NH312431   2.830  14.749   5.223 -0.2090  0.0394 -0.2711
  885YOPE   PO412432   2.612  15.086   4.966  0.5514 -0.0359 -0.0635
  885YOPE   GL112433   2.234  15.009   5.190  0.0628  0.1746 -0.4079
  885YOPE   GL212434   2.283  14.607   5.234  0.3680  0.0816  0.0713
  885YOPE   C1A12435   2.234  14.931   5.569  0.0767 -0.0644  0.1935
  885YOPE   D2A12436   2.406  15.026   5.919 -0.1198 -0.0667 -0.0352
  885YOPE   C3A12437   2.019  14.972   6.084 -0.0891 -0.1505  0.1110
  885YOPE   C4A12438   1.753  14.783   6.342  0.0029 -0.0041 -0.0570
  885YOPE   C1B12439   2.263  14.419   5.649 -0.1439  0.2545  0.2175
  885YOPE   C2B12440   2.435  14.132   5.867  0.4061  0.0771  0.3271
  885YOPE   D3B12441   2.241  13.742   6.059  0.0535  0.1692  0.0805
  885YOPE   C4B12442   2.166  13.530   5.723 -0.0226 -0.0628 -0.2387
  886YOPE   NH312443  10.441  10.549   5.917 -0.1267 -0.0396  0.0440
  886YOPE   PO412444  10.079  10.737   5.797  0.0447  0.1824  0.0435
  886YOPE   GL112445  10.006  10.649   6.168 -0.1052 -0.3790  0.1925
  886YOPE   GL212446  10.214  10.835   6.314 -0.0435  0.1143  0.0177
  886YOPE   C1A12447   9.757  10.336   6.420  0.1787 -0.4728 -0.1732
  886YOPE   D2A12448   9.564  10.259   6.878 -0.3318 -0.2152  0.1570
  886YOPE   C3A12449   9.613  10.102   7.272 -0.0197 -0.3270 -0.2010
  886YOPE   C4A12450   9.608   9.949   7.627  0.3501 -0.2024  0.4846
  886YOPE   C1B12451  10.120  10.721   6.683 -0.0860 -0.1985  0.3097
  886YOPE   C2B12452   9.992  10.510   7.014  0.3663 -0.0816 -0.3716
  886YOPE   D3B12453   9.912  10.682   7.365 -0.0343 -0.1892 -0.4405
  886YOPE   C4B12454   9.677  10.948   7.669  0.0095 -0.1167  0.2909
  887YOPE   NH312455   2.107  16.821   4.742  0.1159  0.2236  0.0888
  887YOPE   PO412456   2.131  16.516   4.948 -0.0680  0.2616  0.2148
  887YOPE   GL112457   2.238  16.156   5.318 -0.0619 -0.1770  0.2042
  887YOPE   GL212458   2.362  15.817   5.279  0.1001  0.0987  0.0098
  887YOPE   C1A12459   2.376  16.055   5.725 -0.2277 -0.0426 -0.1423
  887YOPE   D2A12460   2.389  15.880   6.038  0.1981  0.2004 -0.0454
  887YOPE   C3A12461   2.543  16.051   6.477  0.0108 -0.1726 -0.1933
  887YOPE   C4A12462   2.657  15.997   6.934 -0.0403  0.0849 -0.0571
  887YOPE   C1B12463   2.467  15.617   5.609 -0.4948  0.3424 -0.1869
  887YOPE   C2B12464   2.706  15.466   5.976 -0.2636 -0.1581 -0.1161
  887YOPE   D3B12465   2.849  15.588   6.414  0.1544  0.0626 -0.2618
  887YOPE   C4B12466   2.725  15.404   6.759 -0.3480 -0.3367 -0.2896
  888YOPE   NH312467   8.004   1.980   5.597 -0.2060 -0.3018 -0.0512
  888YOPE   PO412468   8.269   2.191   5.381  0.1977  0.3001 -0.1819
  888YOPE   GL112469   8.495   2.112   5.845 -0.1250 -0.1160 -0.2512
  888YOPE   GL212470   8.661   1.960   5.989  0.2186 -0.1932 -0.2798
  888YOPE   C1A12471   8.411   2.266   6.302  0.2084  0.0690  0.2422
  888YOPE   D2A12472   8.166   2.432   6.676 -0.1188 -0.2245 -0.2398
  888YOPE   C3A12473   8.062   2.260   6.969  0.1157  0.0172 -0.3459
  888YOPE   C4A12474   8.057   2.251   7.407  0.1126 -0.1824 -0.2990
  888YOPE   C1B12475   8.763   1.975   6.435 -0.1136 -0.3974 -0.0533
  888YOPE   C2B12476   8.911   2.036   6.879 -0.0762 -0.0464  0.5436
  888YOPE   D3B12477   8.876   2.064   7.316  0.1113 -0.2715 -0.3141
  888YOPE   C4B12478   9.117   2.082   7.692 -0.0544  0.1769  0.2427
  889YOPE   NH312479  12.664   5.366   5.184 -0.1766 -0.0081 -0.0807
  889YOPE   PO412480  12.716   4.902   5.190 -0.0959 -0.0543  0.1856
  889YOPE   GL112481  12.783   4.659   5.506  0.2898  0.1228  0.3220
  889YOPE   GL212482  12.412   4.698   5.574  0.2925  0.2331  0.3735
  889YOPE   C1A12483  12.763   4.659   5.937  0.0944 -0.1287  0.3562
  889YOPE   D2A12484  12.657   4.725   6.326  0.0475  0.0391 -0.0245
  889YOPE   C3A12485  12.710   4.596   6.780  0.1600 -0.3367 -0.1689
  889YOPE   C4A12486  12.946   4.333   7.068  0.1546  0.1355 -0.1104
  889YOPE   C1B12487  12.245   4.701   5.996  0.2178 -0.1214  0.0910
  889YOPE   C2B12488  12.045   4.751   6.374  0.1952 -0.0199 -0.1279
  889YOPE   D3B12489  12.045   4.938   6.855 -0.3057 -0.0424  0.3861
  889YOPE   C4B12490  11.886   5.311   6.928 -0.2534 -0.0833  0.3874
  890YOPE   NH312491   9.853   1.308   5.462 -0.2278 -0.5512 -0.0920
  890YOPE   PO412492  10.250   1.509   5.578 -0.0593  0.0494  0.2367
  890YOPE   GL112493   9.967   1.599   5.882  0.0357  0.0516 -0.3576
  890YOPE   GL212494   9.981   1.892   5.770 -0.1197 -0.4481 -0.2136
  890YOPE   C1A12495   9.899   1.904   6.355  0.1013  0.2554 -0.2782
  890YOPE   D2A12496  10.026   1.842   6.764 -0.0390  0.2679 -0.0223
  890YOPE   C3A12497  10.160   2.076   7.154 -0.0856 -0.1163  0.0560
  890YOPE   C4A12498  10.471   2.188   7.380  0.0794 -0.0229 -0.0632
  890YOPE   C1B12499   9.680   2.251   5.977 -0.0259 -0.0472  0.0201
  890YOPE   C2B12500   9.273   2.316   6.182  0.0970  0.0478 -0.0966
  890YOPE   D3B12501   8.980   2.466   6.492  0.1958 -0.1051  0.0144
  890YOPE   C4B12502   8.628   2.416   6.736  0.0548  0.2995 -0.1000
  891YOPE   NH312503   9.494  18.778   5.611  0.3233 -0.0976  0.1601
  891YOPE   PO412504   9.904  18.820   5.690  0.1193  0.0687  0.3422
  891YOPE   GL112505   9.940  18.586   6.030 -0.1817  0.0852  0.0847
  891YOPE   GL212506   9.630  18.546   6.218  0.2687  0.0208 -0.0147
  891YOPE   C1A12507  10.062  18.730   6.413  0.1119 -0.0291  0.0322
  891YOPE   D2A12508  10.066  18.638   6.809 -0.5255 -0.2459 -0.1889
  891YOPE   C3A12509  10.206  18.670   7.143  0.0805  0.0382 -0.3205
  891YOPE   C4A12510  10.325  18.569   7.482 -0.1598 -0.0992 -0.0567
  891YOPE   C1B12511   9.376  18.403   6.494 -0.3030  0.0758 -0.0439
  891YOPE   C2B12512   9.586  18.187   6.818 -0.0293 -0.1620 -0.0475
  891YOPE   D3B12513   9.608  17.821   7.141  0.0515 -0.0246  0.0241
  891YOPE   C4B12514   9.655  17.753   7.427 -0.0987  0.5146 -0.0535
  892YOPE   NH312515  18.895  14.173   5.559  0.1705 -0.0650  0.0129
  892YOPE   PO412516  19.292  13.989   5.489 -0.6379  0.0017 -0.1056
  892YOPE   GL112517  19.604  14.232   5.735  0.2088  0.0811  0.0220
  892YOPE   GL212518  19.313  14.414   6.023 -0.0137 -0.0753  0.0896
  892YOPE   C1A12519  19.714  14.057   6.162 -0.2392  0.0721  0.2330
  892YOPE   D2A12520  19.747  14.043   6.599 -0.0860  0.2394 -0.0637
  892YOPE   C3A12521  20.071  14.368   6.713  0.2152  0.2148 -0.1814
  892YOPE   C4A12522  20.172  14.793   6.963  0.1089 -0.0167 -0.1733
  892YOPE   C1B12523  19.302  14.770   6.254  0.1102 -0.0227  0.3918
  892YOPE   C2B12524  19.315  14.870   6.568  0.0043  0.0056 -0.3618
  892YOPE   D3B12525  19.364  14.997   6.967 -0.6145 -0.1485 -0.2994
  892YOPE   C4B12526  19.440  15.102   7.343  0.2130  0.1599 -0.2049
  893YOPE   NH312527   4.004   2.370   4.995 -0.0272  0.2823  0.0528
  893YOPE   PO412528   3.562   2.242   5.011 -0.3164  0.0984 -0.1234
  893YOPE   GL112529   3.272   2.244   5.308  0.0491  0.3292 -0.0693
  893YOPE   GL212530   2.989   2.516   5.338 -0.0919  0.0611  0.0469
  893YOPE   C1A12531   3.430   2.120   5.677  0.2501 -0.1332 -0.1173
  893YOPE   D2A12532   3.654   1.875   6.045  0.0376 -0.0324  0.4249
  893YOPE   C3A12533   3.621   1.802   6.540 -0.2531  0.0288 -0.0377
  893YOPE   C4A12534   3.839   1.525   6.941  0.2687 -0.1949 -0.1454
  893YOPE   C1B12535   3.214   2.654   5.720  0.2450  0.1964 -0.1817
  893YOPE   C2B12536   3.349   2.379   6.124 -0.0370  0.3630 -0.1951
  893YOPE   D3B12537   3.314   2.241   6.589  0.0414 -0.2777 -0.1817
  893YOPE   C4B12538   3.358   2.478   6.936 -0.1651  0.2359 -0.2805
  894YOPE   NH312539  18.554   3.216   5.510  0.0075 -0.0038 -0.1972
  894YOPE   PO412540  18.461   2.691   5.252  0.6435  0.1776 -0.0364
  894YOPE   GL112541  18.732   2.714   5.616  0.4248  0.0677 -0.1039
  894YOPE   GL212542  18.706   2.949   5.948 -0.3617 -0.0661 -0.2901
  894YOPE   C1A12543  18.952   2.382   5.811  0.0271  0.0186 -0.0233
  894YOPE   D2A12544  18.925   1.931   5.878  0.2054 -0.0516 -0.0910
  894YOPE   C3A12545  19.323   1.889   6.118  0.0665  0.3204  0.2288
  894YOPE   C4A12546  19.514   1.912   6.453  0.2514 -0.0765  0.0177
  894YOPE   C1B12547  18.850   2.642   6.234  0.1384  0.0333  0.2391
  894YOPE   C2B12548  18.803   2.670   6.730  0.0477  0.3006 -0.1180
  894YOPE   D3B12549  18.771   2.393   7.098 -0.2415 -0.0914  0.1181
  894YOPE   C4B12550  18.520   2.330   7.368 -0.0273 -0.2231  0.1825
  895YOPE   NH312551  12.076  18.044   5.886  0.0122 -0.4192 -0.0770
  895YOPE   PO412552  12.364  18.371   5.662  0.2118  0.0043 -0.0093
  895YOPE   GL112553  12.494  18.346   6.052  0.2950 -0.0649  0.0045
  895YOPE   GL212554  12.717  18.176   6.232 -0.0588  0.1401 -0.1742
  895YOPE   C1A12555  12.249  18.362   6.463 -0.1923 -0.1487  0.1054
  895YOPE   D2A12556  12.176  18.336   6.858  0.2424 -0.0855  0.2464
  895YOPE   C3A12557  12.323  18.305   7.191 -0.0905  0.3076 -0.2323
  895YOPE   C4A12558  12.334  18.476   7.575  0.1348 -0.0293 -0.0696
  895YOPE   C1B12559  12.728  18.200   6.692 -0.1626 -0.2241  0.1866
  895YOPE   C2B12560  12.859  18.170   7.087 -0.0136  0.1221 -0.2426
  895YOPE   D3B12561  12.825  18.309   7.560  0.2356  0.3577 -0.2420
  895YOPE   C4B12562  12.575  18.682   7.932  0.0368  0.1473 -0.4209
  896YOPE   NH312563  13.943   0.665   5.537 -0.1839  0.4107  0.0029
  896YOPE   PO412564  14.402   0.750   5.505 -0.0597  0.1764  0.1165
  896YOPE   GL112565  14.458   0.753   5.968 -0.1187 -0.3207 -0.1385
  896YOPE   GL212566  14.131   0.729   6.013 -0.2639  0.1563 -0.1140
  896YOPE   C1A12567  14.677   0.642   6.313  0.0388  0.1757 -0.1063
  896YOPE   D2A12568  14.622   0.549   6.693 -0.1042  0.1079  0.2084
  896YOPE   C3A12569  14.813   0.227   6.961 -0.1278  0.3101 -0.2717
  896YOPE   C4A12570  14.888   0.238   7.339 -0.0634  0.1653  0.0613
  896YOPE   C1B12571  14.160   0.552   6.495 -0.2875 -0.3725 -0.0944
  896YOPE   C2B12572  14.213   0.194   6.919  0.0839 -0.3362 -0.0316
  896YOPE   D3B12573  14.421   0.354   7.260 -0.2331  0.3839 -0.1944
  896YOPE   C4B12574  14.686   0.651   7.489 -0.0496 -0.1003  0.6724
  897YOPE   NH312575  10.748   9.533   5.696  0.0373  0.2903 -0.0858
  897YOPE   PO412576  10.565   9.222   5.660  0.0515  0.0400  0.1560
  897YOPE   GL112577  10.285   8.999   5.988  0.1507  0.0682 -0.1496
  897YOPE   GL212578   9.999   8.794   5.885  0.3171  0.1044 -0.3496
  897YOPE   C1A12579  10.125   9.323   6.312  0.0041  0.2488  0.3693
  897YOPE   D2A12580  10.261   9.446   6.748 -0.2142 -0.0563  0.1434
  897YOPE   C3A12581  10.179   9.451   7.097 -0.0433 -0.1243 -0.0216
  897YOPE   C4A12582  10.021   9.716   7.383  0.3520  0.2909  0.1338
  897YOPE   C1B12583   9.816   8.437   5.913  0.1310  0.3023 -0.1219
  897YOPE   C2B12584   9.550   8.355   6.403  0.1374  0.0003  0.0186
  897YOPE   D3B12585   9.228   8.557   6.655  0.0592 -0.4912 -0.0304
  897YOPE   C4B12586   9.074   8.547   6.893 -0.1326  0.1104  0.0843
  898YOPE   NH312587  17.518   9.375   5.603  0.3593 -0.0701 -0.0261
  898YOPE   PO412588  17.865   9.740   5.573 -0.0889 -0.0865  0.2189
  898YOPE   GL112589  17.927   9.903   5.913  0.0074 -0.0476 -0.0757
  898YOPE   GL212590  17.965   9.721   6.160  0.1369 -0.0425  0.0536
  898YOPE   C1A12591  18.185  10.179   6.219 -0.0895  0.0729 -0.2787
  898YOPE   D2A12592  18.320  10.237   6.556  0.3084  0.0114  0.1042
  898YOPE   C3A12593  18.620  10.381   6.735  0.0013 -0.4053  0.1465
  898YOPE   C4A12594  18.805  10.432   6.996  0.2952 -0.0237 -0.0348
  898YOPE   C1B12595  17.894   9.909   6.540 -0.1129  0.1187  0.0617
  898YOPE   C2B12596  18.198   9.871   6.883  0.0188 -0.1589  0.2410
  898YOPE   D3B12597  18.377  10.137   7.127  0.1905  0.2801  0.2420
  898YOPE   C4B12598  18.403  10.438   7.335 -0.1044 -0.0260  0.0142
  899YOPE   NH312599  14.516  17.687   6.015  0.1755 -0.0027  0.0357
  899YOPE   PO412600  14.273  18.060   6.100 -0.0712 -0.1167 -0.0452
  899YOPE   GL112601  14.206  18.008   6.469 -0.0281  0.2270  0.1733
  899YOPE   GL212602  13.966  18.040   6.607 -0.1499 -0.0976 -0.1190
  899YOPE   C1A12603  14.501  18.052   6.818  0.1981 -0.0497  0.0307
  899YOPE   D2A12604  14.563  18.091   7.323 -0.2403 -0.2043 -0.2639
  899YOPE   C3A12605  14.906  18.317   7.517  0.0811 -0.1316  0.0960
  899YOPE   C4A12606  15.133  18.209   7.761 -0.1503  0.2469 -0.1842
  899YOPE   C1B12607  14.034  18.090   7.071 -0.1086  0.2490 -0.2082
  899YOPE   C2B12608  13.770  17.996   7.405 -0.1593 -0.2671  0.1518
  899YOPE   D3B12609  13.734  17.781   7.708  0.2709  0.0854  0.1235
  899YOPE   C4B12610  13.457  17.742   8.060  0.1718 -0.2356 -0.2658
  900YOPE   NH312611  18.579   7.538   4.551 -0.0635 -0.3082 -0.1970
  900YOPE   PO412612  18.551   7.444   5.065 -0.2267 -0.2773  0.1377
  900YOPE   GL112613  18.602   7.534   5.544 -0.1381  0.1815 -0.1151
  900YOPE   GL212614  18.904   7.396   5.599  0.0169  0.0636  0.2405
  900YOPE   C1A12615  18.553   7.693   5.872 -0.0163  0.2278 -0.1202
  900YOPE   D2A12616  18.569   7.687   6.309 -0.0551  0.1656 -0.0528
  900YOPE   C3A12617  18.648   7.945   6.649  0.3272  0.2945 -0.0867
  900YOPE   C4A12618  18.686   8.135   7.143 -0.0299 -0.0873  0.2343
  900YOPE   C1B12619  18.786   7.192   5.955  0.1082 -0.2643  0.4349
  900YOPE   C2B12620  18.803   7.283   6.364 -0.0220 -0.1920 -0.1984
  900YOPE   D3B12621  18.772   7.417   6.649  0.1852 -0.1118  0.3259
  900YOPE   C4B12622  18.709   7.405   7.074  0.1831  0.0204 -0.1616
  901YOPE   NH312623   7.721  17.850   5.552  0.0738 -0.2395 -0.2251
  901YOPE   PO412624   7.589  17.464   5.366 -0.0317  0.0949  0.2808
  901YOPE   GL112625   7.541  17.223   5.800  0.2505 -0.1287 -0.0008
  901YOPE   GL212626   7.604  17.467   5.891  0.1533  0.1587  0.0771
  901YOPE   C1A12627   7.230  17.103   6.129  0.1449 -0.0177  0.1241
  901YOPE   D2A12628   7.038  17.195   6.489  0.0199 -0.4493 -0.2248
  901YOPE   C3A12629   6.957  16.918   6.757  0.0239  0.1690 -0.3108
  901YOPE   C4A12630   6.745  16.627   7.140 -0.0089  0.2159 -0.1057
  901YOPE   C1B12631   7.356  17.556   6.199  0.1858 -0.2080 -0.0086
  901YOPE   C2B12632   7.008  17.712   6.493  0.1333  0.1011 -0.4320
  901YOPE   D3B12633   6.994  17.912   6.951 -0.1562 -0.2206 -0.1248
  901YOPE   C4B12634   6.941  18.011   7.415 -0.1896 -0.1853 -0.3249
  902YOPE   NH312635   1.933   7.766   5.241  0.0771 -0.2564  0.0585
  902YOPE   PO412636   1.770   7.313   5.229  0.0109 -0.1619  0.2010
  902YOPE   GL112637   1.974   7.261   5.509  0.1792  0.0896 -0.1424
  902YOPE   GL212638   2.260   7.513   5.520  0.4020 -0.1981 -0.1370
  902YOPE   C1A12639   1.971   7.422   5.918 -0.0750  0.1746 -0.2092
  902YOPE   D2A12640   1.841   7.513   6.310 -0.2927  0.1654 -0.2235
  902YOPE   C3A12641   1.795   7.916   6.601  0.1134  0.1299 -0.0627
  902YOPE   C4A12642   2.017   7.859   6.927 -0.3005 -0.1959 -0.0417
  902YOPE   C1B12643   2.421   7.643   5.857 -0.2047  0.3279 -0.0509
  902YOPE   C2B12644   2.791   7.542   6.127 -0.1905 -0.1376  0.1294
  902YOPE   D3B12645   2.857   7.741   6.563  0.2426  0.0262  0.0667
  902YOPE   C4B12646   3.220   7.615   6.844  0.2097  0.2346 -0.2152
  903YOPE   NH312647  12.678  18.922   5.688 -0.2457 -0.2516 -0.0044
  903YOPE   PO412648  12.946  19.270   5.843  0.0389 -0.0102  0.0508
  903YOPE   GL112649  13.083  19.282   6.256  0.2040 -0.0778  0.0966
  903YOPE   GL212650  13.322  19.527   6.446 -0.0563 -0.1662  0.2579
  903YOPE   C1A12651  12.969  19.225   6.680  0.1681  0.2265  0.1380
  903YOPE   D2A12652  12.857  19.228   7.138  0.4435 -0.5712  0.3250
  903YOPE   C3A12653  12.782  19.377   7.485  0.2104 -0.2918  0.1546
  903YOPE   C4A12654  12.587  19.538   7.727 -0.1990 -0.2875 -0.0738
  903YOPE   C1B12655  13.203  19.645   6.792  0.3438 -0.0126  0.1210
  903YOPE   C2B12656  12.886  19.776   7.167 -0.0166 -0.1164  0.1441
  903YOPE   D3B12657  12.429  19.923   7.420 -0.2834  0.1759  0.2340
  903YOPE   C4B12658  11.948  20.082   7.392 -0.1371 -0.4065  0.0173
  904YOPE   NH312659  10.860  17.920   5.797  0.0877  0.2069 -0.1827
  904YOPE   PO412660  10.546  17.650   5.611  0.0161 -0.2926 -0.2698
  904YOPE   GL112661  10.315  17.751   6.002 -0.1405 -0.0570 -0.0372
  904YOPE   GL212662  10.377  17.410   6.125 -0.0831 -0.2585  0.1555
  904YOPE   C1A12663  10.500  17.754   6.485  0.0699  0.1812  0.1717
  904YOPE   D2A12664  10.834  17.502   6.447 -0.0005  0.0296 -0.1339
  904YOPE   C3A12665  10.888  17.144   6.450  0.1811 -0.0878  0.3175
  904YOPE   C4A12666  10.639  16.857   6.192 -0.1580 -0.3766  0.0808
  904YOPE   C1B12667  10.338  17.134   6.452  0.2109 -0.0398  0.1174
  904YOPE   C2B12668  10.131  17.098   6.844  0.2093 -0.1215  0.0450
  904YOPE   D3B12669  10.097  16.853   7.196 -0.2116  0.1466  0.0723
  904YOPE   C4B12670   9.998  16.937   7.612 -0.1276  0.0039  0.0245
  905YOPE   NH312671  18.062  10.222   5.508  0.0637 -0.1403 -0.2204
  905YOPE   PO412672  18.485  10.306   5.392  0.1011  0.1412  0.0484
  905YOPE   GL112673  18.533  10.114   5.788  0.0351 -0.1509 -0.0469
  905YOPE   GL212674  18.525   9.747   5.700  0.0893  0.1347 -0.1624
  905YOPE   C1A12675  18.723  10.140   6.266  0.1895  0.1176  0.1593
  905YOPE   D2A12676  19.049  10.242   6.436  0.2595 -0.1953  0.0593
  905YOPE   C3A12677  19.360  10.352   6.670  0.1695 -0.2096 -0.1675
  905YOPE   C4A12678  19.706  10.186   6.983  0.1215  0.0542 -0.0443
  905YOPE   C1B12679  18.432   9.746   6.150 -0.0551  0.0823 -0.1099
  905YOPE   C2B12680  18.489   9.745   6.489  0.4888 -0.1993  0.4008
  905YOPE   D3B12681  18.710   9.872   6.848 -0.1305  0.0294 -0.0030
  905YOPE   C4B12682  18.853  10.016   7.351  0.0498  0.0509 -0.1112
  906YOPE   NH312683  10.906   9.029   5.246  0.1062 -0.0551  0.0396
  906YOPE   PO412684  11.246   9.213   5.459 -0.4187  0.1308  0.4347
  906YOPE   GL112685  11.057   9.083   5.779 -0.0252 -0.1387  0.2153
  906YOPE   GL212686  10.778   8.821   5.830  0.3092 -0.4130 -0.0205
  906YOPE   C1A12687  10.968   9.257   6.232 -0.0160  0.1676 -0.2909
  906YOPE   D2A12688  11.091   9.281   6.613 -0.0911 -0.1167  0.2388
  906YOPE   C3A12689  11.070   9.042   7.042 -0.1006 -0.2440 -0.1811
  906YOPE   C4A12690  11.078   9.220   7.480 -0.2912  0.1110  0.0050
  906YOPE   C1B12691  10.674   8.696   6.230 -0.3047 -0.0993  0.0124
  906YOPE   C2B12692  10.488   8.344   6.574 -0.1763  0.0698 -0.3903
  906YOPE   D3B12693  10.529   8.113   6.963 -0.2005 -0.5321  0.1876
  906YOPE   C4B12694  10.502   7.638   7.046 -0.1337  0.0182  0.4977
  907YOPE   NH312695   8.735   0.407   6.142 -0.0543 -0.0547  0.2426
  907YOPE   PO412696   8.395   0.339   5.938  0.1351  0.3918 -0.2417
  907YOPE   GL112697   8.382   0.050   6.350 -0.0839  0.3001  0.0342
  907YOPE   GL212698   8.201  -0.156   6.290  0.0955 -0.1675  0.0411
  907YOPE   C1A12699   8.283   0.005   6.748 -0.2213 -0.3609  0.1041
  907YOPE   D2A12700   8.145  -0.247   7.055 -0.0410 -0.1136 -0.0350
  907YOPE   C3A12701   8.009  -0.021   7.436  0.0092 -0.2249 -0.2671
  907YOPE   C4A12702   8.152   0.318   7.706  0.0045 -0.4767  0.0321
  907YOPE   C1B12703   7.914  -0.328   6.608  0.0918  0.1723 -0.1315
  907YOPE   C2B12704   7.692  -0.383   7.068  0.1441  0.1290  0.1487
  907YOPE   D3B12705   7.531  -0.090   7.411  0.1679  0.0864 -0.1339
  907YOPE   C4B12706   7.218  -0.040   7.706  0.0808 -0.1183  0.0356
  908YOPE   NH312707  10.616   7.810   5.121 -0.0302 -0.0721  0.0286
  908YOPE   PO412708  10.935   8.052   5.235  0.3316  0.1406 -0.2935
  908YOPE   GL112709  11.165   7.741   5.526  0.3143 -0.1135 -0.3252
  908YOPE   GL212710  11.443   7.725   5.488 -0.0112 -0.2627  0.2794
  908YOPE   C1A12711  11.330   7.399   5.819  0.1210 -0.2705  0.0037
  908YOPE   D2A12712  11.545   7.560   6.132  0.3502  0.2190  0.0014
  908YOPE   C3A12713  11.428   7.553   6.562  0.2697  0.1866  0.0697
  908YOPE   C4A12714  11.322   7.662   6.897 -0.0704  0.2600 -0.2079
  908YOPE   C1B12715  11.499   8.163   5.634 -0.0194  0.0168 -0.0060
  908YOPE   C2B12716  11.338   8.621   5.941  0.1456  0.0817 -0.0201
  908YOPE   D3B12717  11.117   8.748   6.445  0.1156 -0.1804  0.0686
  908YOPE   C4B12718  10.915   8.558   6.907 -0.2086  0.1013  0.0763
  909YOPE   NH312719  10.724   1.241   5.484  0.0721  0.1024  0.0360
  909YOPE   PO412720  10.992   1.682   5.500  0.1099  0.0219 -0.3645
  909YOPE   GL112721  10.877   1.908   5.894 -0.1454 -0.2771  0.0184
  909YOPE   GL212722  10.601   2.112   5.938  0.0718 -0.1362 -0.3580
  909YOPE   C1A12723  10.803   2.062   6.378 -0.1052 -0.2250 -0.1817
  909YOPE   D2A12724  10.522   1.940   6.716  0.2508  0.1421 -0.0695
  909YOPE   C3A12725  10.713   1.955   7.016  0.1467 -0.0577 -0.1246
  909YOPE   C4A12726  10.785   1.742   7.407  0.4476  0.0755  0.2641
  909YOPE   C1B12727  10.411   1.820   6.147 -0.3466 -0.0704  0.2061
  909YOPE   C2B12728  10.279   1.450   6.206  0.3261  0.0930 -0.0008
  909YOPE   D3B12729  10.178   1.355   6.660  0.1630 -0.1594 -0.0118
  909YOPE   C4B12730  10.258   1.234   6.987  0.0068 -0.1159  0.0706
  910YOPE   NH312731   0.374   5.168   5.277 -0.1273 -0.2011 -0.0072
  910YOPE   PO412732   0.658   5.023   5.043 -0.0851 -0.1087 -0.2412
  910YOPE   GL112733   0.874   5.141   5.474  0.2193 -0.1858  0.0884
  910YOPE   GL212734   1.152   5.369   5.484 -0.1047 -0.0119 -0.1138
  910YOPE   C1A12735   0.937   5.294   5.864 -0.0084 -0.0263  0.1577
  910YOPE   D2A12736   1.128   5.257   6.314  0.1070  0.0715 -0.2253
  910YOPE   C3A12737   1.554   5.231   6.276  0.1054 -0.1204  0.0880
  910YOPE   C4A12738   1.731   5.144   5.874  0.1330 -0.2989 -0.1780
  910YOPE   C1B12739   1.401   5.488   5.857 -0.1457 -0.1161 -0.0450
  910YOPE   C2B12740   1.523   5.671   6.137  0.1774  0.0597 -0.1055
  910YOPE   D3B12741   1.489   5.651   6.518  0.0690 -0.0535 -0.0348
  910YOPE   C4B12742   1.475   5.723   6.994 -0.0960 -0.3568  0.1032
  911YOPE   NH312743  14.175  18.549   6.050 -0.1599 -0.0254  0.0602
  911YOPE   PO412744  13.784  18.543   6.267  0.1098  0.3526  0.0358
  911YOPE   GL112745  13.734  18.797   6.585 -0.1491  0.0795  0.1680
  911YOPE   GL212746  13.592  19.079   6.409  0.0247  0.1027 -0.2028
  911YOPE   C1A12747  13.863  18.917   6.903 -0.3373  0.0890  0.0385
  911YOPE   D2A12748  13.797  18.941   7.358  0.2233 -0.1154 -0.4190
  911YOPE   C3A12749  14.259  19.076   7.403  0.0699 -0.1377 -0.3831
  911YOPE   C4A12750  14.672  18.795   7.612 -0.1281 -0.0622  0.2224
  911YOPE   C1B12751  13.427  19.151   6.851 -0.1129 -0.2970  0.0499
  911YOPE   C2B12752  13.379  19.160   7.154  0.0758 -0.1122  0.2015
  911YOPE   D3B12753  13.469  19.204   7.598 -0.1078  0.1035  0.1551
  911YOPE   C4B12754  13.876  19.273   7.906  0.1338 -0.2112  0.0052
  912YOPE   NH312755   8.311   5.446   4.943  0.1958 -0.0797  0.2377
  912YOPE   PO412756   8.677   5.414   5.137 -0.1295  0.1460  0.2313
  912YOPE   GL112757   8.507   5.481   5.604  0.0607  0.0091  0.0306
  912YOPE   GL212758   8.348   5.864   5.687 -0.1076  0.1604  0.1162
  912YOPE   C1A12759   8.600   5.685   6.061 -0.2763 -0.3671 -0.0293
  912YOPE   D2A12760   8.411   6.062   6.467 -0.0110  0.0770  0.0343
  912YOPE   C3A12761   8.089   6.125   6.845  0.2113 -0.1837  0.0084
  912YOPE   C4A12762   7.993   6.321   7.129 -0.1194 -0.1201  0.1542
  912YOPE   C1B12763   8.117   6.044   6.016 -0.1195  0.1820 -0.1683
  912YOPE   C2B12764   7.885   6.061   6.385 -0.0544 -0.1463  0.2897
  912YOPE   D3B12765   7.756   5.788   6.719  0.0966  0.1283  0.1004
  912YOPE   C4B12766   7.786   5.516   6.980  0.1331  0.0019 -0.0508
  913YOPE   NH312767   7.953   0.271   5.745 -0.2321 -0.0716 -0.0288
  913YOPE   PO412768   7.770   0.716   5.701 -0.1191 -0.0283  0.0163
  913YOPE   GL112769   7.606   0.732   6.108  0.1416  0.0664 -0.0952
  913YOPE   GL212770   7.320   0.906   6.063 -0.0082  0.1490  0.2564
  913YOPE   C1A12771   7.293   0.449   6.345  0.0204 -0.0109  0.1606
  913YOPE   D2A12772   7.213   0.444   6.821  0.1158  0.0799 -0.1722
  913YOPE   C3A12773   7.061   0.791   7.076 -0.1507 -0.2962  0.1469
  913YOPE   C4A12774   6.921   1.245   7.402 -0.0279  0.0948  0.1185
  913YOPE   C1B12775   7.267   1.005   6.505  0.2749 -0.1749  0.3773
  913YOPE   C2B12776   7.156   1.194   6.822  0.0030 -0.0951 -0.0472
  913YOPE   D3B12777   7.242   1.686   6.729 -0.0759  0.0708  0.0688
  913YOPE   C4B12778   7.434   1.916   6.518  0.1823 -0.3652 -0.1205
  914YOPE   NH312779   7.067  13.434   5.643 -0.0114 -0.4025  0.0422
  914YOPE   PO412780   7.386  13.218   5.684 -0.2558  0.2857 -0.2253
  914YOPE   GL112781   7.280  13.053   6.068  0.0493  0.2905  0.1007
  914YOPE   GL212782   6.986  13.159   6.147  0.2658 -0.2211  0.1687
  914YOPE   C1A12783   7.243  12.872   6.466  0.0825 -0.0669  0.1151
  914YOPE   D2A12784   7.423  12.700   6.904  0.3937 -0.4240 -0.0615
  914YOPE   C3A12785   7.645  13.032   7.197 -0.1691  0.1879  0.1438
  914YOPE   C4A12786   7.898  13.222   7.394  0.3479  0.2568 -0.0531
  914YOPE   C1B12787   6.933  13.382   6.559 -0.0727  0.0201 -0.1984
  914YOPE   C2B12788   6.897  13.597   6.976  0.2015  0.2933 -0.2130
  914YOPE   D3B12789   6.613  13.562   7.394 -0.2716  0.0407  0.2075
  914YOPE   C4B12790   6.594  13.412   7.825 -0.0480  0.3007 -0.1448
  915YOPE   NH312791  13.920   3.133   5.533 -0.0679  0.4325 -0.1826
  915YOPE   PO412792  14.163   2.739   5.881  0.1705 -0.2445  0.4187
  915YOPE   GL112793  14.068   2.757   6.355  0.2409 -0.2143 -0.2884
  915YOPE   GL212794  13.881   2.487   6.479 -0.0385  0.1233 -0.0038
  915YOPE   C1A12795  14.270   2.768   6.766 -0.1333 -0.0765  0.0148
  915YOPE   D2A12796  14.297   3.027   7.115 -0.0217 -0.0829  0.2343
  915YOPE   C3A12797  14.394   2.940   7.538  0.1121 -0.2696  0.0324
  915YOPE   C4A12798  14.625   2.885   7.926  0.1236  0.0268  0.1325
  915YOPE   C1B12799  13.804   2.390   6.833 -0.0004 -0.0724 -0.3084
  915YOPE   C2B12800  13.858   2.678   7.087 -0.1328 -0.2819  0.2096
  915YOPE   D3B12801  13.847   2.920   7.435  0.1321  0.3837  0.0206
  915YOPE   C4B12802  13.648   3.049   7.776  0.3124  0.2876  0.1560
  916YOPE   NH312803  13.460   0.136   5.913 -0.1340  0.0625  0.1767
  916YOPE   PO412804  13.914   0.179   5.727 -0.0898 -0.3536  0.0038
  916YOPE   GL112805  14.005   0.145   6.239  0.1992 -0.2331  0.4053
  916YOPE   GL212806  14.118  -0.156   6.373 -0.1221  0.1454  0.0211
  916YOPE   C1A12807  13.825   0.286   6.666  0.0088  0.1521  0.2445
  916YOPE   D2A12808  13.685   0.364   7.088  0.1239  0.3946  0.1336
  916YOPE   C3A12809  13.941   0.323   7.390  0.2841 -0.0104  0.0385
  916YOPE   C4A12810  14.188   0.545   7.706 -0.3010 -0.0700 -0.0562
  916YOPE   C1B12811  14.497  -0.142   6.665  0.0060  0.3742  0.1161
  916YOPE   C2B12812  14.751  -0.274   7.071  0.2632 -0.0913  0.2348
  916YOPE   D3B12813  15.138  -0.365   7.346  0.2549  0.0197 -0.2853
  916YOPE   C4B12814  15.564  -0.262   7.254 -0.0637 -0.0781  0.1669
  917YOPE   NH312815  11.454  11.526   6.023 -0.0602 -0.1155 -0.2481
  917YOPE   PO412816  11.168  11.846   5.933 -0.0483 -0.2547  0.0992
  917YOPE   GL112817  11.143  11.867   6.346  0.1993 -0.1867  0.3123
  917YOPE   GL212818  11.408  12.157   6.432 -0.0448  0.0862  0.0927
  917YOPE   C1A12819  10.923  11.563   6.660 -0.1223 -0.0383  0.1407
  917YOPE   D2A12820  10.995  11.326   6.999 -0.1610  0.0800  0.2161
  917YOPE   C3A12821  11.261  11.375   7.338  0.4615 -0.0529 -0.2855
  917YOPE   C4A12822  11.436  11.494   7.666  0.1595  0.2663 -0.0488
  917YOPE   C1B12823  11.538  11.697   6.648 -0.0266  0.1020  0.1497
  917YOPE   C2B12824  11.533  11.307   6.853 -0.1143  0.1656 -0.3342
  917YOPE   D3B12825  11.731  10.987   6.971  0.1615 -0.1260 -0.0758
  917YOPE   C4B12826  12.024  10.803   7.200 -0.2676  0.1223 -0.3421
  918YOPE   NH312827   8.090  13.906   5.634  0.1499  0.1312  0.1466
  918YOPE   PO412828   8.283  13.607   5.813  0.1511 -0.0445  0.1258
  918YOPE   GL112829   8.079  13.795   6.141  0.2001 -0.1892 -0.1412
  918YOPE   GL212830   8.283  13.938   6.272  0.0337  0.0643 -0.0260
  918YOPE   C1A12831   7.753  14.016   6.438 -0.0989  0.0163  0.1390
  918YOPE   D2A12832   7.827  14.303   6.770  0.1328 -0.0477  0.3100
  918YOPE   C3A12833   7.475  14.563   6.817  0.0937  0.1285 -0.1108
  918YOPE   C4A12834   7.036  14.456   6.955  0.0660  0.0239 -0.1953
  918YOPE   C1B12835   8.245  13.879   6.611  0.1949  0.0798 -0.0997
  918YOPE   C2B12836   8.069  13.913   6.933  0.0878  0.1083  0.2241
  918YOPE   D3B12837   7.923  14.065   7.305 -0.0769 -0.0176  0.0439
  918YOPE   C4B12838   8.136  14.064   7.693  0.0718  0.3407 -0.4056
  919YOPE   NH312839  13.409   6.206   5.484 -0.0580  0.1458 -0.2937
  919YOPE   PO412840  13.699   5.849   5.299 -0.0421  0.0189 -0.3651
  919YOPE   GL112841  13.661   5.811   5.789  0.1052  0.1565  0.1342
  919YOPE   GL212842  13.330   5.801   5.748 -0.1523 -0.0527 -0.0877
  919YOPE   C1A12843  13.548   5.641   6.199 -0.2988  0.0204  0.2210
  919YOPE   D2A12844  13.204   5.529   6.475 -0.1005 -0.2362  0.1279
  919YOPE   C3A12845  13.277   5.509   6.906 -0.0478 -0.1389  0.0475
  919YOPE   C4A12846  13.149   5.612   7.394 -0.0626 -0.2957  0.4997
  919YOPE   C1B12847  13.114   5.487   5.907 -0.0656  0.0751 -0.1203
  919YOPE   C2B12848  13.140   5.003   6.097 -0.2760  0.1169 -0.2016
  919YOPE   D3B12849  13.169   4.677   6.249 -0.1930  0.0501 -0.0384
  919YOPE   C4B12850  13.203   4.480   6.669 -0.2386 -0.0169 -0.2010
  920YOPE   NH312851   0.014  12.339   5.336  0.1750 -0.0983 -0.1734
  920YOPE   PO412852   0.422  12.278   5.227 -0.0422  0.0270  0.0274
  920YOPE   GL112853   0.483  12.147   5.546  0.0971 -0.0597 -0.1169
  920YOPE   GL212854   0.312  12.283   5.727  0.0657 -0.1922  0.3803
  920YOPE   C1A12855   0.763  12.209   5.873 -0.2669 -0.1716  0.0518
  920YOPE   D2A12856   0.840  12.083   6.229 -0.2903 -0.0450  0.1988
  920YOPE   C3A12857   0.923  11.982   6.644 -0.0970 -0.1132  0.1762
  920YOPE   C4A12858   1.016  11.689   6.848 -0.1051  0.0767  0.0024
  920YOPE   C1B12859   0.314  12.089   6.136 -0.1695 -0.0985 -0.0990
  920YOPE   C2B12860   0.487  12.151   6.527 -0.4583  0.0880 -0.0773
  920YOPE   D3B12861   0.573  12.052   7.036 -0.0940  0.0069 -0.0450
  920YOPE   C4B12862   1.006  11.905   7.276 -0.3587 -0.1161  0.0044
  921YOPE   NH312863   0.094   3.566   5.222  0.1085 -0.0813  0.0086
  921YOPE   PO412864   0.341   3.044   5.122 -0.1653 -0.2081  0.2692
  921YOPE   GL112865   0.464   3.133   5.559  0.2442 -0.2109 -0.2504
  921YOPE   GL212866   0.811   3.214   5.606  0.2644  0.0537 -0.2137
  921YOPE   C1A12867   0.348   3.316   5.993  0.3019 -0.0064 -0.2092
  921YOPE   D2A12868   0.568   3.580   6.390 -0.0791 -0.1608  0.0320
  921YOPE   C3A12869   0.522   3.833   6.764  0.2135  0.1180 -0.3215
  921YOPE   C4A12870   0.684   4.222   6.836  0.0420  0.0710 -0.1299
  921YOPE   C1B12871   0.928   3.227   6.019  0.0177  0.0841  0.0727
  921YOPE   C2B12872   1.042   3.364   6.498 -0.1224  0.0474 -0.1743
  921YOPE   D3B12873   0.828   3.471   6.874  0.0447 -0.2255 -0.1962
  921YOPE   C4B12874   0.954   3.259   7.103 -0.1653  0.0817  0.0892
  922YOPE   NH312875   5.036   2.681   5.136  0.1531 -0.1904  0.0961
  922YOPE   PO412876   5.512   2.682   5.125  0.1683 -0.4864 -0.0114
  922YOPE   GL112877   5.535   2.829   5.544  0.0368  0.0276 -0.0043
  922YOPE   GL212878   5.542   2.558   5.762 -0.1789 -0.0152  0.0724
  922YOPE   C1A12879   5.502   3.280   5.816  0.2583 -0.0593  0.1990
  922YOPE   D2A12880   5.296   3.553   6.064  0.1665  0.0246 -0.0245
  922YOPE   C3A12881   5.237   3.290   6.374  0.0189 -0.0094 -0.1637
  922YOPE   C4A12882   5.516   3.238   6.710 -0.1163  0.1829  0.0726
  922YOPE   C1B12883   5.337   2.509   6.178 -0.0061 -0.0760  0.0478
  922YOPE   C2B12884   4.910   2.426   6.130  0.3972 -0.2545  0.0033
  922YOPE   D3B12885   4.623   2.827   6.250 -0.0501  0.0192  0.0963
  922YOPE   C4B12886   4.780   3.295   6.252  0.0087  0.0335 -0.2718
  923YOPE   NH312887   8.981   9.757   5.407 -0.1722  0.4445 -0.1458
  923YOPE   PO412888   9.339   9.994   5.579 -0.4476 -0.0248  0.0541
  923YOPE   GL112889   9.406   9.916   6.005 -0.4227 -0.1187 -0.3678
  923YOPE   GL212890   9.312  10.117   6.158 -0.1356 -0.1907  0.2074
  923YOPE   C1A12891   9.375   9.659   6.425  0.2595 -0.5071 -0.0376
  923YOPE   D2A12892   9.163   9.415   6.726 -0.1057  0.2656 -0.2984
  923YOPE   C3A12893   8.941   9.042   6.714 -0.1487  0.3310  0.3445
  923YOPE   C4A12894   8.721   8.643   6.549 -0.1353 -0.2279  0.0099
  923YOPE   C1B12895   9.130  10.065   6.591  0.0046 -0.0529 -0.0001
  923YOPE   C2B12896   9.090   9.849   6.942 -0.0717 -0.1236  0.1217
  923YOPE   D3B12897   9.237   9.651   7.312  0.0156  0.2255  0.0727
  923YOPE   C4B12898   9.553   9.366   7.422  0.1716 -0.2115  0.3201
  924YOPE   NH312899  18.687   0.024   5.053  0.1299 -0.2268 -0.1036
  924YOPE   PO412900  18.236   0.262   5.109  0.3696  0.1697 -0.1038
  924YOPE   GL112901  18.442   0.210   5.548 -0.0906 -0.0164  0.0239
  924YOPE   GL212902  18.765   0.283   5.576 -0.0422 -0.1799  0.1300
  924YOPE   C1A12903  18.325   0.121   5.956 -0.3423 -0.0891 -0.0234
  924YOPE   D2A12904  18.276   0.409   6.239  0.1359 -0.3678  0.0004
  924YOPE   C3A12905  18.122   0.292   6.605  0.2110 -0.1410 -0.3898
  924YOPE   C4A12906  18.356   0.108   7.039 -0.2638 -0.1370  0.1324
  924YOPE   C1B12907  18.791   0.294   5.980  0.1536  0.3806  0.0420
  924YOPE   C2B12908  18.813   0.374   6.393  0.3340  0.0516  0.0244
  924YOPE   D3B12909  18.592   0.455   6.805 -0.0088 -0.0498  0.3037
  924YOPE   C4B12910  18.608   0.570   7.308 -0.4780 -0.0331  0.0671
  925YOPE   NH312911  15.108   8.072   5.372  0.1758  0.1046 -0.1008
  925YOPE   PO412912  14.705   8.313   5.239  0.1191  0.0731 -0.0213
  925YOPE   GL112913  14.594   8.278   5.737 -0.0453  0.3073 -0.0126
  925YOPE   GL212914  14.708   8.041   5.919  0.1652  0.1121 -0.0050
  925YOPE   C1A12915  14.367   8.491   6.079  0.2161 -0.2007  0.0572
  925YOPE   D2A12916  14.135   8.811   5.989  0.1087 -0.1135  0.0874
  925YOPE   C3A12917  14.005   9.026   6.313  0.1305 -0.0150  0.0800
  925YOPE   C4A12918  14.037   9.107   6.748  0.2235  0.0099 -0.4873
  925YOPE   C1B12919  14.201   8.073   5.949  0.0438  0.0418  0.2543
  925YOPE   C2B12920  14.026   8.084   6.284 -0.0383 -0.0476  0.2765
  925YOPE   D3B12921  14.024   7.983   6.683  0.0348 -0.0231  0.0036
  925YOPE   C4B12922  14.216   7.616   6.952 -0.1957 -0.1505 -0.2328
  926YOPE   NH312923  17.081   0.293   5.385 -0.0727 -0.1925 -0.1738
  926YOPE   PO412924  16.976  -0.155   5.497 -0.0280 -0.0637 -0.0056
  926YOPE   GL112925  17.012  -0.321   5.901 -0.0631 -0.4079  0.2892
  926YOPE   GL212926  17.090  -0.646   6.051 -0.1286 -0.0390 -0.3752
  926YOPE   C1A12927  16.910  -0.165   6.308 -0.1123  0.0858 -0.4032
  926YOPE   D2A12928  16.570  -0.169   6.480  0.1828 -0.0702 -0.0858
  926YOPE   C3A12929  16.496  -0.002   6.965 -0.1266  0.0073  0.0356
  926YOPE   C4A12930  16.533   0.233   7.193 -0.2794  0.5159 -0.2222
  926YOPE   C1B12931  17.248  -0.538   6.442 -0.0671 -0.0351 -0.3522
  926YOPE   C2B12932  17.457  -0.490   6.821  0.0965  0.0803 -0.1206
  926YOPE   D3B12933  17.820  -0.401   7.065 -0.1745  0.1135 -0.0989
  926YOPE   C4B12934  18.251  -0.320   7.288 -0.0052  0.4109  0.4555
  927YOPE   NH312935   4.186  16.148   5.005  0.1129  0.2108 -0.2233
  927YOPE   PO412936   4.214  15.721   5.157  0.0842  0.3445 -0.1183
  927YOPE   GL112937   4.232  15.611   5.618  0.0096  0.0794 -0.4116
  927YOPE   GL212938   4.064  15.618   5.845  0.2142 -0.2644 -0.1548
  927YOPE   C1A12939   4.473  15.315   5.886  0.0645 -0.1556 -0.0708
  927YOPE   D2A12940   4.710  15.308   6.181  0.0182 -0.0285  0.3569
  927YOPE   C3A12941   4.627  15.146   6.644 -0.1506 -0.2189 -0.0025
  927YOPE   C4A12942   4.828  14.829   6.802 -0.1781 -0.0292 -0.2074
  927YOPE   C1B12943   4.347  15.802   6.056  0.1141  0.0096  0.0848
  927YOPE   C2B12944   4.566  15.673   6.551 -0.0639 -0.0739  0.0222
  927YOPE   D3B12945   4.639  15.567   6.949 -0.4360 -0.0503 -0.0653
  927YOPE   C4B12946   4.936  15.640   7.168 -0.2786 -0.1025 -0.0719
  928YOPE   NH312947  18.261   8.589   5.615  0.2276  0.0852 -0.2838
  928YOPE   PO412948  18.716   8.507   5.540  0.2424  0.0779  0.2333
  928YOPE   GL112949  19.109   8.371   5.659 -0.0371  0.1301 -0.0660
  928YOPE   GL212950  19.050   8.194   5.870 -0.1435 -0.3728  0.0474
  928YOPE   C1A12951  19.418   8.549   6.005 -0.1400  0.0545  0.1845
  928YOPE   D2A12952  19.664   8.685   6.344  0.0277 -0.4198 -0.0026
  928YOPE   C3A12953  19.918   9.059   6.246 -0.0800  0.3782  0.2008
  928YOPE   C4A12954  20.053   9.419   5.963 -0.2272 -0.3486  0.0895
  928YOPE   C1B12955  18.854   8.336   6.252  0.0506  0.2014  0.3495
  928YOPE   C2B12956  18.712   8.429   6.653  0.0195 -0.0568  0.2171
  928YOPE   D3B12957  18.924   8.578   6.989 -0.1154 -0.1200 -0.2235
  928YOPE   C4B12958  18.957   8.443   7.504 -0.0632  0.1711 -0.1438
  929YOPE   NH312959  14.307   5.639   5.104 -0.1064  0.5010  0.3483
  929YOPE   PO412960  14.496   5.431   5.539 -0.2495 -0.0123 -0.4904
  929YOPE   GL112961  14.336   5.513   5.909  0.1306 -0.0065  0.2250
  929YOPE   GL212962  14.626   5.673   6.096 -0.2394 -0.3883  0.0289
  929YOPE   C1A12963  14.070   5.276   6.085 -0.0193  0.2362  0.2343
  929YOPE   D2A12964  14.166   4.836   6.158  0.2196  0.1089  0.0598
  929YOPE   C3A12965  13.939   4.743   6.408  0.2160 -0.0172  0.1942
  929YOPE   C4A12966  13.769   4.549   6.748 -0.1846  0.1406 -0.0255
  929YOPE   C1B12967  14.325   5.568   6.448 -0.0029 -0.1086  0.1594
  929YOPE   C2B12968  14.222   5.602   6.886 -0.1546 -0.2322  0.1019
  929YOPE   D3B12969  14.218   5.307   7.209  0.3936 -0.3870 -0.0094
  929YOPE   C4B12970  14.380   5.067   7.592  0.2634  0.3576  0.2731
  930YOPE   NH312971  13.293   3.284   5.470 -0.3218 -0.1868  0.0338
  930YOPE   PO412972  13.411   2.977   5.576 -0.1945 -0.1759 -0.0041
  930YOPE   GL112973  13.294   3.167   5.968 -0.0592  0.1135  0.2955
  930YOPE   GL212974  13.057   3.337   5.925  0.1563  0.0059 -0.0296
  930YOPE   C1A12975  13.355   3.279   6.349  0.0123  0.0039 -0.0528
  930YOPE   D2A12976  13.567   3.547   6.711  0.0609  0.1405 -0.1068
  930YOPE   C3A12977  13.688   3.734   7.142  0.0294 -0.1043  0.1542
  930YOPE   C4A12978  13.963   3.820   7.525 -0.1669  0.0332 -0.1320
  930YOPE   C1B12979  12.805   3.530   6.164 -0.0561 -0.0456 -0.1453
  930YOPE   C2B12980  13.011   3.647   6.568 -0.1134 -0.1690 -0.0826
  930YOPE   D3B12981  13.150   3.443   6.961 -0.0671  0.0696 -0.1352
  930YOPE   C4B12982  12.916   3.508   7.465 -0.2839  0.0301 -0.1651
  931YOPE   NH312983  11.895   0.816   5.508  0.1883 -0.1612 -0.1413
  931YOPE   PO412984  12.304   1.046   5.687  0.0516 -0.3064 -0.0279
  931YOPE   GL112985  12.330   1.334   5.986 -0.5295 -0.2128  0.3373
  931YOPE   GL212986  12.585   1.531   5.983  0.0891  0.3225 -0.0675
  931YOPE   C1A12987  12.048   1.472   6.198  0.0100 -0.3039  0.0319
  931YOPE   D2A12988  12.022   1.546   6.612  0.4248 -0.4507 -0.3654
  931YOPE   C3A12989  11.647   1.568   6.790 -0.0334  0.0643  0.1935
  931YOPE   C4A12990  11.455   1.660   7.101 -0.3016 -0.0029  0.1147
  931YOPE   C1B12991  12.459   1.670   6.465 -0.2057 -0.1524  0.2698
  931YOPE   C2B12992  12.381   1.776   6.895  0.1730  0.0494 -0.5447
  931YOPE   D3B12993  12.014   1.648   7.134 -0.1411 -0.1211 -0.0688
  931YOPE   C4B12994  11.787   1.383   7.484 -0.2130  0.0386 -0.1148
  932YOPE   NH312995  16.700   5.854   5.961  0.0989  0.3106 -0.1929
  932YOPE   PO412996  16.304   6.154   6.013  0.2087  0.3227  0.2229
  932YOPE   GL112997  16.566   6.106   6.381 -0.2348  0.1385 -0.0371
  932YOPE   GL212998  16.729   5.783   6.472  0.2105  0.0594 -0.2002
  932YOPE   C1A12999  16.615   6.243   6.763 -0.1829  0.0509  0.1832
  932YOPE   D2A13000  16.930   5.939   6.938  0.4437 -0.0759 -0.1269
  932YOPE   C3A13001  16.885   5.933   7.345 -0.1566  0.1309  0.0106
  932YOPE   C4A13002  16.926   6.058   7.768  0.0193  0.1556 -0.1494
  932YOPE   C1B13003  16.927   5.467   6.607 -0.0485 -0.0640  0.0597
  932YOPE   C2B13004  17.279   5.063   6.667 -0.0926 -0.2214  0.1933
  932YOPE   D3B13005  17.446   4.869   7.021  0.2904  0.4392 -0.0654
  932YOPE   C4B13006  17.619   4.672   7.440 -0.0630  0.0213 -0.2343
  933YOPE   NH313007   2.960   1.661   5.352 -0.0464  0.2394  0.0777
  933YOPE   PO413008   2.947   2.000   5.090  0.0434 -0.0141 -0.1692
  933YOPE   GL113009   2.932   2.101   5.641 -0.1100 -0.2997 -0.1490
  933YOPE   GL213010   2.630   1.869   5.724 -0.2138 -0.1842  0.0998
  933YOPE   C1A13011   3.029   1.965   6.066 -0.2395 -0.3169 -0.1180
  933YOPE   D2A13012   2.962   1.776   6.536  0.1529 -0.0080  0.0243
  933YOPE   C3A13013   3.309   1.840   6.886  0.1119 -0.1600 -0.1862
  933YOPE   C4A13014   3.332   1.874   7.365  0.0516  0.1109  0.1682
  933YOPE   C1B13015   2.585   2.211   6.022  0.3278  0.0193  0.3480
  933YOPE   C2B13016   2.525   2.093   6.370 -0.3154  0.1253  0.0424
  933YOPE   D3B13017   2.539   1.948   6.841 -0.0942 -0.2602 -0.1055
  933YOPE   C4B13018   2.511   2.050   7.322 -0.1818  0.3049 -0.0162
  934YOPE   NH313019   2.704   9.361   5.349  0.1990 -0.0169  0.2085
  934YOPE   PO413020   2.537   9.606   5.045  0.1970  0.2288  0.0017
  934YOPE   GL113021   2.462   9.827   5.409 -0.0272 -0.0894  0.3851
  934YOPE   GL213022   2.696   9.865   5.584 -0.0302 -0.2126  0.0488
  934YOPE   C1A13023   2.106   9.896   5.521 -0.2136 -0.0262 -0.2585
  934YOPE   D2A13024   1.807  10.205   5.830 -0.0200 -0.1422 -0.0407
  934YOPE   C3A13025   1.785  10.250   6.276 -0.1370 -0.0307  0.3010
  934YOPE   C4A13026   1.533  10.363   6.626  0.3407 -0.0401 -0.0127
  934YOPE   C1B13027   2.848  10.156   5.886 -0.1049  0.0295 -0.3809
  934YOPE   C2B13028   2.923  10.300   6.296  0.0170 -0.1339  0.0225
  934YOPE   D3B13029   2.790  10.558   6.669  0.0475  0.3733  0.2207
  934YOPE   C4B13030   2.595  10.834   6.914  0.0086 -0.0872  0.2793
  935YOPE   NH313031   3.054  13.182   5.114 -0.3936 -0.1554  0.1579
  935YOPE   PO413032   2.679  13.422   5.169 -0.0069 -0.0824  0.0297
  935YOPE   GL113033   2.737  13.232   5.615  0.0154 -0.1428 -0.1542
  935YOPE   GL213034   3.091  13.252   5.900  0.1360  0.1433  0.2228
  935YOPE   C1A13035   2.413  13.174   5.985 -0.0943  0.0162 -0.0999
  935YOPE   D2A13036   2.278  12.831   6.155 -0.0083  0.3782  0.1087
  935YOPE   C3A13037   2.193  12.783   6.651  0.0499  0.0033  0.0893
  935YOPE   C4A13038   2.089  12.621   7.057  0.0686  0.1712  0.2195
  935YOPE   C1B13039   2.910  13.168   6.300 -0.0266  0.1988 -0.1516
  935YOPE   C2B13040   2.946  12.998   6.766 -0.1010  0.0732  0.0218
  935YOPE   D3B13041   2.534  12.975   7.008  0.1213  0.2248 -0.3090
  935YOPE   C4B13042   2.313  13.230   7.342  0.1187 -0.1913  0.2257
  936YOPE   NH313043  15.982   5.222   5.395  0.3778 -0.1474  0.0007
  936YOPE   PO413044  15.717   4.934   5.425 -0.2149  0.0026  0.1183
  936YOPE   GL113045  15.574   4.772   5.865  0.0668 -0.1400  0.0866
  936YOPE   GL213046  15.783   4.603   6.038  0.0942  0.2538 -0.5263
  936YOPE   C1A13047  15.342   4.531   6.260  0.0565  0.0281 -0.1389
  936YOPE   D2A13048  15.386   4.430   6.737  0.0176  0.0153  0.0414
  936YOPE   C3A13049  15.467   4.573   7.198 -0.6608 -0.0057  0.1665
  936YOPE   C4A13050  15.483   4.624   7.625 -0.2499 -0.1534  0.3921
  936YOPE   C1B13051  15.650   4.873   6.392 -0.0914  0.2862  0.1679
  936YOPE   C2B13052  15.590   4.894   6.828 -0.0865 -0.0334 -0.1088
  936YOPE   D3B13053  15.881   4.885   7.145  0.0463 -0.0614  0.0657
  936YOPE   C4B13054  16.238   5.170   7.162 -0.0634 -0.2348 -0.0767
  937YOPE   NH313055  12.027  17.037   5.750  0.2457 -0.0353  0.0191
  937YOPE   PO413056  11.617  16.776   5.825  0.1683  0.1649 -0.3355
  937YOPE   GL113057  11.551  16.579   6.175 -0.4022  0.1760 -0.3781
  937YOPE   GL213058  11.238  16.683   6.238 -0.0537  0.1085  0.0824
  937YOPE   C1A13059  11.801  16.683   6.546 -0.1287  0.2088  0.1586
  937YOPE   D2A13060  11.663  16.494   6.898  0.0951  0.1480  0.2519
  937YOPE   C3A13061  11.773  16.700   7.254 -0.1773  0.1760 -0.6405
  937YOPE   C4A13062  11.966  16.994   7.489 -0.0166  0.0911 -0.0216
  937YOPE   C1B13063  11.273  16.816   6.730  0.1183 -0.0631 -0.0107
  937YOPE   C2B13064  11.591  16.984   6.872  0.0409  0.0006  0.1623
  937YOPE   D3B13065  12.005  17.043   6.822  0.1124 -0.4178  0.0204
  937YOPE   C4B13066  12.265  16.807   7.047 -0.0219  0.1473 -0.1716
  938YOPE   NH313067   0.178   0.912   5.185  0.2045  0.0974 -0.1159
  938YOPE   PO413068  -0.258   1.056   5.081  0.1222  0.3082  0.1534
  938YOPE   GL113069  -0.122   1.262   5.500  0.0302  0.1336 -0.0907
  938YOPE   GL213070   0.140   0.981   5.663 -0.1552 -0.0334 -0.3484
  938YOPE   C1A13071   0.079   1.541   5.729 -0.2185 -0.2714 -0.1720
  938YOPE   D2A13072   0.553   1.494   5.914 -0.4490 -0.0424  0.2693
  938YOPE   C3A13073   0.761   1.210   5.926 -0.0640 -0.0485 -0.1013
  938YOPE   C4A13074   0.993   0.908   5.754  0.1477 -0.0222  0.0040
  938YOPE   C1B13075   0.213   1.091   6.068  0.1038  0.0226 -0.2181
  938YOPE   C2B13076   0.408   1.397   6.382  0.0296 -0.0258 -0.0002
  938YOPE   D3B13077   0.586   1.527   6.725 -0.0966  0.2383 -0.1172
  938YOPE   C4B13078   0.639   1.358   7.124  0.0243  0.0423  0.0816
  939YOPE   NH313079   9.785   0.197   5.762  0.2246 -0.0508 -0.1220
  939YOPE   PO413080  10.166   0.111   5.614  0.1440  0.3778 -0.3497
  939YOPE   GL113081  10.343   0.072   6.083  0.0747 -0.0528  0.1156
  939YOPE   GL213082  10.710  -0.011   6.218  0.3694 -0.1869 -0.0292
  939YOPE   C1A13083  10.297   0.004   6.527 -0.2696 -0.0402 -0.1624
  939YOPE   D2A13084  10.146  -0.061   6.910  0.0526  0.1408  0.2491
  939YOPE   C3A13085  10.285  -0.010   7.300 -0.0425  0.1384 -0.0426
  939YOPE   C4A13086  10.322  -0.125   7.796 -0.0329 -0.0235 -0.0510
  939YOPE   C1B13087  10.766   0.015   6.705  0.3239  0.0180  0.2872
  939YOPE   C2B13088  10.818  -0.123   7.112  0.0735 -0.0399 -0.0450
  939YOPE   D3B13089  10.750  -0.289   7.488  0.1332  0.4228  0.1892
  939YOPE   C4B13090  10.631  -0.551   7.877 -0.0817 -0.2275 -0.2761
  940YOPE   NH313091  12.714   3.364   5.117  0.2237  0.0059  0.2296
  940YOPE   PO413092  12.852   3.040   5.367 -0.0755  0.2246 -0.0944
  940YOPE   GL113093  12.939   2.832   5.726 -0.0082  0.2021  0.0893
  940YOPE   GL213094  13.091   2.586   5.963  0.0139  0.1198 -0.0309
  940YOPE   C1A13095  12.932   2.987   6.262  0.0951  0.3755  0.0545
  940YOPE   D2A13096  12.881   3.171   6.657  0.2773 -0.2732 -0.0447
  940YOPE   C3A13097  12.834   3.004   7.072  0.0521  0.1919  0.0033
  940YOPE   C4A13098  12.666   3.000   7.492 -0.0042 -0.1144  0.1007
  940YOPE   C1B13099  12.965   2.493   6.354 -0.0737 -0.2628  0.0604
  940YOPE   C2B13100  12.862   2.613   6.739  0.2811 -0.2196  0.0352
  940YOPE   D3B13101  13.011   2.510   7.145  0.0849 -0.2193  0.3110
  940YOPE   C4B13102  13.082   2.068   7.331 -0.2615  0.3353 -0.3341
  941YOPE   NH313103   6.042  18.058   5.286  0.0996  0.0356  0.1549
  941YOPE   PO413104   5.991  18.392   5.417  0.0790  0.0807  0.1787
  941YOPE   GL113105   5.984  18.547   5.746  0.1927 -0.1820 -0.1021
  941YOPE   GL213106   5.651  18.363   5.842 -0.1441 -0.0594  0.3343
  941YOPE   C1A13107   6.057  18.628   6.139 -0.3127 -0.0580 -0.0500
  941YOPE   D2A13108   6.116  18.733   6.549 -0.2400  0.3936 -0.1525
  941YOPE   C3A13109   6.476  18.793   6.600 -0.0383  0.1192 -0.1289
  941YOPE   C4A13110   6.913  18.755   6.317  0.1181  0.0879  0.0445
  941YOPE   C1B13111   5.621  18.297   6.266  0.0078 -0.1116  0.1945
  941YOPE   C2B13112   5.613  18.570   6.521 -0.1119  0.0067  0.4220
  941YOPE   D3B13113   5.473  19.088   6.624 -0.1133  0.4127 -0.0539
  941YOPE   C4B13114   5.179  19.384   6.564  0.0194 -0.1691 -0.0389
  942POPC   NC313115  18.853  10.295   5.080 -0.3187 -0.2863 -0.0378
  942POPC   PO413116  19.212  10.431   5.330  0.1591  0.0613  0.0789
  942POPC   GL113117  19.220  10.347   5.752  0.5263  0.1158  0.0468
  942POPC   GL213118  19.062  10.238   5.942 -0.2919 -0.0650 -0.0372
  942POPC   C1A13119  19.324  10.603   6.090 -0.2876 -0.0682 -0.0515
  942POPC   D2A13120  19.508  10.727   6.354 -0.0647 -0.0167  0.2346
  942POPC   C3A13121  20.043  10.716   6.220 -0.1186 -0.1333 -0.1517
  942POPC   C4A13122  20.383  10.507   6.045 -0.1687 -0.0030  0.1960
  942POPC   C1B13123  19.402  10.004   6.198 -0.1631  0.2504  0.2352
  942POPC   C2B13124  19.550   9.834   6.618  0.2783  0.1088  0.4219
  942POPC   C3B13125  19.646   9.528   6.927 -0.0941 -0.0162 -0.0205
  942POPC   C4B13126  19.682   9.240   7.261 -0.0794  0.1589  0.0702
  943POPC   NC313127   7.919  10.825   5.592  0.0028 -0.2531 -0.0629
  943POPC   PO413128   7.497  10.727   5.594  0.3757  0.1171 -0.0963
  943POPC   GL113129   7.486  10.624   6.066  0.4188  0.2675 -0.4868
  943POPC   GL213130   7.382  10.410   5.975 -0.1088  0.1238 -0.0684
  943POPC   C1A13131   7.658  10.472   6.373 -0.0854  0.3700  0.1532
  943POPC   D2A13132   7.876  10.368   6.728 -0.0421 -0.1456  0.0337
  943POPC   C3A13133   7.758  10.263   7.104 -0.0165 -0.0209 -0.0989
  943POPC   C4A13134   7.556  10.067   7.315  0.0302 -0.0016 -0.0485
  943POPC   C1B13135   7.201  10.340   6.353  0.0487  0.2008 -0.2136
  943POPC   C2B13136   6.877  10.216   6.639 -0.0642 -0.2436 -0.1167
  943POPC   C3B13137   6.697  10.236   6.976 -0.1406  0.2489  0.2975
  943POPC   C4B13138   6.676  10.447   7.371 -0.1827 -0.1316  0.3897
  944POPC   NC313139  17.377  12.175   5.720  0.2420  0.1448 -0.1066
  944POPC   PO413140  17.731  12.326   5.472  0.3301 -0.0696  0.1820
  944POPC   GL113141  17.755  12.405   5.979 -0.1126 -0.1921  0.0482
  944POPC   GL213142  18.013  12.600   6.125  0.0307 -0.4735  0.2241
  944POPC   C1A13143  17.518  12.463   6.431  0.0635 -0.2207  0.2403
  944POPC   D2A13144  17.705  12.476   6.774  0.2097 -0.0371  0.1635
  944POPC   C3A13145  17.820  12.154   7.172 -0.2335 -0.1341 -0.0003
  944POPC   C4A13146  17.579  11.947   7.388  0.2502 -0.1140  0.1764
  944POPC   C1B13147  18.064  12.472   6.416 -0.2050 -0.5341  0.0785
  944POPC   C2B13148  18.194  12.577   6.750 -0.3470  0.0152  0.0715
  944POPC   C3B13149  18.199  12.540   7.264  0.0520  0.1147 -0.0187
  944POPC   C4B13150  18.531  12.648   7.591  0.1082 -0.0283  0.1706
  945POPC   NC313151   0.864   7.627   5.280 -0.0659  0.1373  0.1492
  945POPC   PO413152   1.077   7.988   5.280  0.1221 -0.0362  0.0466
  945POPC   GL113153   1.106   7.803   5.699  0.1378  0.4386  0.0072
  945POPC   GL213154   1.458   7.504   5.627  0.1772 -0.0071  0.0916
  945POPC   C1A13155   1.004   7.725   6.028  0.0800 -0.0154 -0.1659
  945POPC   D2A13156   0.925   7.774   6.476  0.0256  0.2409  0.0871
  945POPC   C3A13157   0.947   7.949   6.822  0.1814 -0.2734  0.0710
  945POPC   C4A13158   0.943   8.414   6.854 -0.2622  0.3234 -0.0291
  945POPC   C1B13159   1.477   7.791   5.966 -0.2408  0.0983 -0.0317
  945POPC   C2B13160   1.387   8.034   6.286  0.1687 -0.3265 -0.2808
  945POPC   C3B13161   1.418   8.223   6.649 -0.1790 -0.0140 -0.3273
  945POPC   C4B13162   1.532   8.354   7.033 -0.0698  0.0094  0.2192
  946POPC   NC313163  11.033  12.307   6.013 -0.1341 -0.0015 -0.2754
  946POPC   PO413164  10.636  12.483   6.058  0.1806  0.0469  0.2849
  946POPC   GL113165  10.648  12.481   6.445  0.0036 -0.1696 -0.0139
  946POPC   GL213166  10.947  12.406   6.490 -0.0098  0.1908 -0.1703
  946POPC   C1A13167  10.588  12.593   6.892 -0.1442  0.1515 -0.1485
  946POPC   D2A13168  10.857  12.497   7.189  0.2280  0.1057 -0.0809
  946POPC   C3A13169  11.007  12.245   7.530  0.3208  0.1512  0.4141
  946POPC   C4A13170  10.948  11.816   7.723 -0.2497  0.1583  0.4654
  946POPC   C1B13171  10.957  12.842   6.599 -0.1088  0.0250  0.2518
  946POPC   C2B13172  10.824  13.290   6.531  0.1218 -0.0595 -0.2861
  946POPC   C3B13173  10.922  13.787   6.645  0.0943 -0.2356 -0.1470
  946POPC   C4B13174  10.819  14.181   6.478 -0.0612 -0.2185  0.4325
  947POPC   NC313175  10.663  16.394   5.030 -0.0018 -0.5770 -0.1184
  947POPC   PO413176  10.749  16.503   5.497  0.2381  0.1282 -0.1285
  947POPC   GL113177  10.648  16.233   5.827  0.0848 -0.1169  0.0772
  947POPC   GL213178  10.435  16.318   6.149 -0.0286  0.0626 -0.1476
  947POPC   C1A13179  10.702  15.910   6.004  0.1364 -0.1388  0.1527
  947POPC   D2A13180  10.570  15.538   6.204  0.1041  0.1918  0.1603
  947POPC   C3A13181  10.623  15.524   6.628 -0.0386  0.0098 -0.2369
  947POPC   C4A13182  10.672  15.486   7.153  0.0510 -0.0686 -0.2031
  947POPC   C1B13183  10.485  16.025   6.484 -0.2582  0.1876  0.0758
  947POPC   C2B13184  10.599  15.970   6.951 -0.0424  0.3138  0.1166
  947POPC   C3B13185  10.506  15.864   7.412  0.1108 -0.0864  0.2299
  947POPC   C4B13186  10.121  15.681   7.667 -0.3153 -0.1308 -0.0473
  948POPC   NC313187  11.359   4.852   5.497 -0.2873  0.2686 -0.2655
  948POPC   PO413188  11.379   5.065   5.089 -0.2566 -0.1088 -0.0151
  948POPC   GL113189  11.311   5.332   5.445  0.3339  0.3201  0.3075
  948POPC   GL213190  11.531   5.275   5.643 -0.2707  0.1042  0.2843
  948POPC   C1A13191  11.016   5.397   5.892  0.0477 -0.0982  0.0059
  948POPC   D2A13192  10.825   5.393   6.274  0.0348  0.0906  0.3105
  948POPC   C3A13193  10.937   5.560   6.708 -0.3502  0.0130  0.1937
  948POPC   C4A13194  10.732   5.654   7.100 -0.1708  0.2209 -0.1731
  948POPC   C1B13195  11.439   5.198   6.147 -0.0859  0.0350 -0.2771
  948POPC   C2B13196  11.449   5.426   6.594 -0.0334  0.3786  0.1968
  948POPC   C3B13197  11.379   5.753   6.843 -0.2137  0.0779  0.5509
  948POPC   C4B13198  11.493   6.178   6.849 -0.1126 -0.0135 -0.3413
  949POPC   NC313199  11.898   5.988   5.147  0.1164  0.2237 -0.2085
  949POPC   PO413200  12.329   6.014   5.139  0.1005 -0.0791 -0.0428
  949POPC   GL113201  12.291   6.158   5.516  0.1128  0.0093 -0.1479
  949POPC   GL213202  12.007   5.833   5.583 -0.2740  0.1879  0.3054
  949POPC   C1A13203  12.048   6.225   5.954  0.4216  0.1184  0.1728
  949POPC   D2A13204  11.807   6.179   6.354  0.0268 -0.1004 -0.1577
  949POPC   C3A13205  11.517   5.985   6.366  0.0369 -0.2575  0.3286
  949POPC   C4A13206  11.281   5.784   6.151 -0.1495  0.0676  0.2316
  949POPC   C1B13207  11.785   5.795   5.930 -0.0204  0.1729  0.2180
  949POPC   C2B13208  11.768   5.582   6.217 -0.0576  0.0801 -0.2264
  949POPC   C3B13209  11.895   5.230   6.366 -0.0760  0.1335 -0.5679
  949POPC   C4B13210  12.296   5.196   6.323  0.2066  0.1152 -0.0352
  950POPC   NC313211  15.850   1.214   5.784  0.1265 -0.2450  0.2490
  950POPC   PO413212  16.096   1.377   6.174  0.1369 -0.1462 -0.1081
  950POPC   GL113213  15.659   1.114   6.291 -0.3576  0.2006  0.0976
  950POPC   GL213214  15.397   1.058   6.031  0.0928 -0.2495 -0.1648
  950POPC   C1A13215  15.371   1.052   6.750 -0.2082 -0.1874 -0.3610
  950POPC   D2A13216  15.075   1.199   6.968  0.0109  0.3380  0.2935
  950POPC   C3A13217  15.236   1.121   7.384  0.1748 -0.2826 -0.0616
  950POPC   C4A13218  15.190   0.674   7.682  0.0230  0.0513  0.1593
  950POPC   C1B13219  15.170   0.884   6.364 -0.1448  0.2164 -0.0234
  950POPC   C2B13220  15.077   0.658   6.823  0.4158 -0.0670  0.0604
  950POPC   C3B13221  15.285   0.662   7.151 -0.0162  0.1519  0.2083
  950POPC   C4B13222  15.647   0.909   7.207  0.3273  0.4293  0.0940
  951POPC   NC313223  12.582   0.460   5.882 -0.0761 -0.0225  0.3630
  951POPC   PO413224  12.318   0.131   5.801  0.0835  0.0220 -0.1752
  951POPC   GL113225  11.989   0.177   6.226  0.2330  0.2093 -0.2159
  951POPC   GL213226  11.613   0.146   6.142 -0.1138 -0.1585 -0.0316
  951POPC   C1A13227  11.941  -0.119   6.416  0.3106  0.1123 -0.2248
  951POPC   D2A13228  12.105  -0.386   6.667  0.0524 -0.0696 -0.0728
  951POPC   C3A13229  12.018  -0.383   7.108  0.3828  0.1329  0.2241
  951POPC   C4A13230  11.865  -0.659   7.421 -0.1450 -0.0364  0.2580
  951POPC   C1B13231  11.572   0.172   6.557  0.0080  0.0401 -0.3069
  951POPC   C2B13232  11.750  -0.045   6.907  0.1304  0.0425 -0.3160
  951POPC   C3B13233  11.737  -0.085   7.387  0.2165 -0.2074 -0.0753
  951POPC   C4B13234  11.589  -0.281   7.710  0.0145  0.3463  0.0237
  952POPC   NC313235  16.651   4.900   5.870  0.0109  0.1471  0.0869
  952POPC   PO413236  16.375   5.257   5.727  0.3217  0.0186 -0.4495
  952POPC   GL113237  16.370   5.212   6.088  0.0588  0.1333 -0.3069
  952POPC   GL213238  16.154   4.939   6.175  0.0999 -0.2261 -0.4241
  952POPC   C1A13239  16.256   5.301   6.550 -0.0575 -0.0593 -0.1435
  952POPC   D2A13240  15.924   5.350   6.818 -0.2673  0.1254 -0.1866
  952POPC   C3A13241  15.900   5.516   7.285 -0.0545 -0.0323 -0.0440
  952POPC   C4A13242  16.148   5.460   7.514 -0.0057 -0.2487 -0.2134
  952POPC   C1B13243  16.123   4.761   6.614  0.0273  0.3759 -0.1902
  952POPC   C2B13244  16.383   4.595   7.010 -0.0062  0.1119  0.0060
  952POPC   C3B13245  16.293   4.735   7.428  0.2591 -0.1105  0.0693
  952POPC   C4B13246  16.150   5.039   7.706 -0.1015 -0.0364  0.2711
  953POPC   NC313247  16.016  16.590   5.666  0.1823  0.1070 -0.0736
  953POPC   PO413248  16.194  16.200   5.702  0.3399  0.2641  0.0623
  953POPC   GL113249  16.469  16.159   6.000 -0.3110  0.2783  0.0105
  953POPC   GL213250  16.366  15.921   6.226  0.4722  0.0726 -0.0702
  953POPC   C1A13251  16.888  15.990   6.215  0.1973  0.1489  0.3022
  953POPC   D2A13252  17.130  15.749   6.529  0.4507 -0.0514 -0.0268
  953POPC   C3A13253  17.434  15.594   6.370 -0.2430  0.0352  0.0933
  953POPC   C4A13254  17.806  15.705   6.625  0.3562  0.1371 -0.2153
  953POPC   C1B13255  16.577  15.781   6.534  0.0040 -0.0517  0.0747
  953POPC   C2B13256  16.812  15.697   6.929  0.1182  0.0663  0.0891
  953POPC   C3B13257  17.098  15.691   7.207 -0.1677 -0.2755  0.0759
  953POPC   C4B13258  17.359  15.422   7.401 -0.1730 -0.1407 -0.2170
  954POPC   NC313259  13.735   6.319   5.144  0.2112  0.3921 -0.0867
  954POPC   PO413260  13.249   6.619   5.284  0.0921  0.0894  0.0386
  954POPC   GL113261  12.939   6.491   5.527  0.0839 -0.1368  0.0788
  954POPC   GL213262  12.798   6.124   5.470 -0.1396 -0.1353  0.2002
  954POPC   C1A13263  12.557   6.417   5.816 -0.0870  0.0887 -0.0534
  954POPC   D2A13264  12.540   6.253   6.182  0.1972  0.3468  0.0101
  954POPC   C3A13265  12.254   6.451   6.461 -0.1016 -0.1214  0.2509
  954POPC   C4A13266  11.833   6.581   6.690 -0.2286  0.2271 -0.0547
  954POPC   C1B13267  12.894   6.063   5.907  0.0195 -0.1417  0.1403
  954POPC   C2B13268  12.827   5.854   6.281  0.0602  0.1138 -0.1100
  954POPC   C3B13269  12.807   5.664   6.744 -0.1638 -0.1242  0.2879
  954POPC   C4B13270  12.841   5.855   7.114  0.1413 -0.6655 -0.0086
  955POPC   NC313271  12.396  15.618   5.992  0.2960  0.1497  0.1202
  955POPC   PO413272  12.684  15.854   5.785  0.1646 -0.0307  0.4441
  955POPC   GL113273  12.663  15.980   6.151 -0.0935 -0.0168 -0.0860
  955POPC   GL213274  12.813  16.275   6.233 -0.0092 -0.2291 -0.2634
  955POPC   C1A13275  12.507  15.934   6.600  0.2791 -0.2504 -0.0787
  955POPC   D2A13276  12.286  16.061   6.990 -0.0897  0.1252  0.0156
  955POPC   C3A13277  11.937  16.095   7.172  0.0986  0.0975  0.2003
  955POPC   C4A13278  11.742  15.955   7.514 -0.0047 -0.0398  0.1446
  955POPC   C1B13279  12.821  16.293   6.686 -0.0487  0.0528  0.1228
  955POPC   C2B13280  12.672  16.295   7.101 -0.1058 -0.1231  0.1039
  955POPC   C3B13281  12.553  15.995   7.340 -0.1174  0.1384 -0.1259
  955POPC   C4B13282  12.248  15.936   7.564 -0.0659 -0.1651 -0.2051
  956POPC   NC313283   5.928  12.198   5.246  0.3711 -0.3265  0.1375
  956POPC   PO413284   5.504  12.233   5.532  0.0420 -0.3024 -0.3770
  956POPC   GL113285   5.483  12.035   5.875  0.1819  0.2263 -0.4554
  956POPC   GL213286   5.711  11.842   6.017  0.1193  0.2399 -0.0140
  956POPC   C1A13287   5.407  12.133   6.297  0.0475  0.0477  0.1032
  956POPC   D2A13288   5.438  12.252   6.691  0.2187 -0.1162 -0.0075
  956POPC   C3A13289   5.533  11.961   6.869  0.2384  0.0714  0.1487
  956POPC   C4A13290   5.455  11.959   7.296 -0.0541 -0.0681  0.2279
  956POPC   C1B13291   5.767  11.708   6.467 -0.1717  0.0002 -0.1208
  956POPC   C2B13292   5.886  11.608   6.907  0.3002  0.3483 -0.1021
  956POPC   C3B13293   5.815  11.623   7.307  0.2399 -0.1376  0.0994
  956POPC   C4B13294   5.890  11.741   7.658  0.1346  0.0098  0.2826
  957POPC   NC313295   2.761   7.631   4.715 -0.0989  0.0032 -0.0438
  957POPC   PO413296   3.103   7.994   4.780 -0.2697  0.0852  0.4112
  957POPC   GL113297   3.273   8.189   5.112 -0.2283  0.1668 -0.3352
  957POPC   GL213298   3.449   8.002   5.326 -0.0511  0.0460  0.1941
  957POPC   C1A13299   3.121   8.293   5.620 -0.1116 -0.3792 -0.0435
  957POPC   D2A13300   3.037   8.374   5.971  0.0366  0.1317 -0.0579
  957POPC   C3A13301   3.133   8.855   6.082  0.1549  0.3203 -0.1522
  957POPC   C4A13302   3.305   9.149   5.964 -0.3478 -0.1638  0.0732
  957POPC   C1B13303   3.397   7.950   5.728  0.0075 -0.2882  0.1998
  957POPC   C2B13304   3.211   7.934   6.122 -0.1652  0.1308 -0.1245
  957POPC   C3B13305   3.464   7.748   6.438 -0.3562 -0.1215  0.2790
  957POPC   C4B13306   3.533   8.010   6.876  0.1916  0.1738 -0.0057
  958POPC   NC313307   8.583  14.524   5.080  0.3578  0.0827  0.0018
  958POPC   PO413308   8.540  14.443   5.469  0.2598  0.1686  0.1882
  958POPC   GL113309   8.667  14.313   5.900 -0.0126  0.1350 -0.1145
  958POPC   GL213310   8.915  14.026   5.949 -0.2720  0.1266  0.1168
  958POPC   C1A13311   8.800  14.544   6.178  0.2614  0.0748 -0.1014
  958POPC   D2A13312   8.961  14.566   6.625  0.1359 -0.2281  0.1721
  958POPC   C3A13313   9.111  14.996   6.842 -0.1002 -0.0683 -0.2060
  958POPC   C4A13314   8.980  15.191   7.173 -0.1853  0.1680  0.3686
  958POPC   C1B13315   8.748  14.092   6.415 -0.2965 -0.1934  0.0394
  958POPC   C2B13316   8.773  14.187   6.823  0.0492  0.0356 -0.0341
  958POPC   C3B13317   9.001  14.261   7.228 -0.0136 -0.0888 -0.2319
  958POPC   C4B13318   8.949  14.422   7.632  0.3537 -0.1176 -0.1417
  959POPC   NC313319  19.077   6.820   5.365 -0.0354  0.1607  0.0775
  959POPC   PO413320  19.523   6.765   5.161  0.2750  0.1940 -0.0477
  959POPC   GL113321  19.513   6.846   5.651  0.3640 -0.1546 -0.1742
  959POPC   GL213322  19.742   6.886   5.638  0.0278 -0.2641 -0.2783
  959POPC   C1A13323  19.362   7.104   5.990  0.0598  0.2277 -0.0004
  959POPC   D2A13324  19.294   7.276   6.369 -0.0549  0.0499  0.0078
  959POPC   C3A13325  19.234   7.232   6.771  0.2946  0.1129  0.0054
  959POPC   C4A13326  19.238   7.115   7.189 -0.1409 -0.1710 -0.1595
  959POPC   C1B13327  19.832   6.937   6.055 -0.2099 -0.0177 -0.0392
  959POPC   C2B13328  19.829   6.944   6.479 -0.2624  0.0221  0.1655
  959POPC   C3B13329  19.991   7.284   6.676 -0.0199 -0.1908 -0.2960
  959POPC   C4B13330  20.077   7.528   7.084  0.0147  0.0313  0.0278
  960POPC   NC313331  15.079  19.014   5.243  0.0511 -0.0545  0.0441
  960POPC   PO413332  15.489  18.825   5.401 -0.0617 -0.1076 -0.5080
  960POPC   GL113333  15.538  18.961   5.836  0.4701  0.0864 -0.0828
  960POPC   GL213334  15.328  19.004   5.984 -0.2000 -0.1875 -0.2107
  960POPC   C1A13335  15.822  19.349   6.081 -0.1706  0.1688 -0.0122
  960POPC   D2A13336  16.188  19.333   6.349 -0.7401  0.2498  0.1238
  960POPC   C3A13337  16.345  19.463   6.565 -0.2876  0.0298  0.1123
  960POPC   C4A13338  16.267  19.682   6.887  0.0224 -0.2129  0.1832
  960POPC   C1B13339  15.507  19.022   6.368 -0.0747  0.0236  0.0774
  960POPC   C2B13340  15.786  19.221   6.695  0.1140  0.3997 -0.1031
  960POPC   C3B13341  15.983  19.207   7.115 -0.0305 -0.2197 -0.1842
  960POPC   C4B13342  16.158  18.977   7.350  0.0132 -0.0188 -0.1495
  961POPC   NC313343  12.120  10.763   5.634  0.2402  0.0425 -0.0344
  961POPC   PO413344  12.272  11.146   5.484  0.2710  0.4796 -0.2202
  961POPC   GL113345  12.326  11.210   5.899 -0.1325  0.0193  0.0575
  961POPC   GL213346  12.277  11.499   5.911 -0.0774 -0.4301 -0.1986
  961POPC   C1A13347  12.233  10.877   6.221  0.3355 -0.0841  0.0201
  961POPC   D2A13348  12.376  10.443   6.362  0.3270 -0.0745 -0.0163
  961POPC   C3A13349  12.647  10.226   6.650 -0.0481 -0.4063  0.2878
  961POPC   C4A13350  12.691   9.821   6.894 -0.1348  0.1771  0.0407
  961POPC   C1B13351  12.327  11.331   6.372  0.2676  0.1877 -0.2157
  961POPC   C2B13352  11.951  11.246   6.474  0.4031 -0.3689  0.2232
  961POPC   C3B13353  11.715  10.897   6.442  0.1209 -0.2602 -0.1472
  961POPC   C4B13354  11.423  10.808   6.590 -0.3535  0.1490 -0.1558
  962POPC   NC313355   7.055   9.297   4.955 -0.1053  0.0170 -0.1120
  962POPC   PO413356   6.690   9.287   5.022  0.1646 -0.0575 -0.3195
  962POPC   GL113357   6.760   9.225   5.483 -0.0399  0.1144 -0.0244
  962POPC   GL213358   6.440   9.302   5.610  0.1802  0.2794  0.0566
  962POPC   C1A13359   6.767   9.205   6.012  0.3533 -0.0038  0.1190
  962POPC   D2A13360   7.052   9.235   6.274  0.1417 -0.0750  0.1741
  962POPC   C3A13361   7.388   9.055   6.466 -0.0328  0.0807 -0.1162
  962POPC   C4A13362   7.429   8.604   6.538  0.1691  0.0115  0.3093
  962POPC   C1B13363   6.297   8.959   5.974  0.1105  0.0670 -0.2305
  962POPC   C2B13364   6.364   8.905   6.364  0.0417  0.0067  0.0456
  962POPC   C3B13365   6.190   8.867   6.842 -0.0914 -0.0003 -0.4284
  962POPC   C4B13366   6.206   8.591   7.156 -0.0081  0.0219  0.0742
  963POPC   NC313367  16.574   9.102   5.510  0.2027 -0.1556 -0.0045
  963POPC   PO413368  16.971   9.328   5.570  0.0055 -0.2852  0.1551
  963POPC   GL113369  17.166   9.494   6.001 -0.1510  0.0071 -0.0744
  963POPC   GL213370  17.419   9.788   5.858  0.1752  0.0432  0.3188
  963POPC   C1A13371  17.223   9.409   6.409 -0.1872  0.1131 -0.2163
  963POPC   D2A13372  16.922   9.600   6.622  0.0032 -0.1524  0.2374
  963POPC   C3A13373  16.917  10.166   6.689  0.1299 -0.1195 -0.1177
  963POPC   C4A13374  16.922  10.585   6.823  0.0020 -0.0873 -0.4909
  963POPC   C1B13375  17.504   9.804   6.259  0.1398 -0.1376 -0.2858
  963POPC   C2B13376  17.316   9.910   6.542  0.1001 -0.0435 -0.2178
  963POPC   C3B13377  17.333   9.906   6.886  0.1586 -0.0797 -0.1577
  963POPC   C4B13378  17.035  10.107   7.194 -0.1126 -0.0902  0.3693
  964POPC   NC313379  15.089   6.882   5.827 -0.0745 -0.0762  0.0848
  964POPC   PO413380  15.589   6.845   5.838 -0.4033 -0.4542  0.2616
  964POPC   GL113381  15.740   6.870   6.266  0.0897 -0.2132 -0.0209
  964POPC   GL213382  15.436   6.912   6.334  0.2218  0.2045 -0.0570
  964POPC   C1A13383  15.653   6.821   6.745 -0.1564 -0.0213 -0.0210
  964POPC   D2A13384  15.457   6.542   6.970  0.0894 -0.1888 -0.1887
  964POPC   C3A13385  15.257   6.240   7.284 -0.2162  0.0166  0.0710
  964POPC   C4A13386  14.945   5.897   7.405  0.0766  0.0040 -0.1241
  964POPC   C1B13387  15.165   6.949   6.737 -0.1854 -0.1492 -0.0955
  964POPC   C2B13388  15.080   6.801   7.178 -0.0033 -0.3069  0.0874
  964POPC   C3B13389  15.401   6.664   7.519  0.1148  0.1792  0.0625
  964POPC   C4B13390  15.713   6.371   7.657  0.2558  0.0711 -0.0932
  965POPC   NC313391   8.596   4.493   5.271  0.4211  0.0296  0.2910
  965POPC   PO413392   8.874   4.231   5.252 -0.1700 -0.0489 -0.1585
  965POPC   GL113393   8.970   4.225   5.605  0.3582  0.4859 -0.0005
  965POPC   GL213394   9.073   3.907   5.680 -0.0655  0.1505 -0.0792
  965POPC   C1A13395   9.050   4.533   5.797  0.4984  0.0181 -0.0540
  965POPC   D2A13396   8.966   4.968   5.767  0.0431  0.1237 -0.2662
  965POPC   C3A13397   8.733   5.204   6.113 -0.0201 -0.2411 -0.0582
  965POPC   C4A13398   8.646   5.605   6.536  0.0240 -0.1077  0.0008
  965POPC   C1B13399   9.058   3.768   6.180  0.0347  0.2024 -0.1130
  965POPC   C2B13400   8.852   3.692   6.583 -0.1424  0.2287 -0.2898
  965POPC   C3B13401   8.699   3.448   6.984  0.0949 -0.1517  0.6309
  965POPC   C4B13402   8.895   3.455   7.407 -0.3792 -0.1018 -0.4350
  966POPC   NC313403   6.363   7.841   5.090  0.1454  0.1551 -0.3390
  966POPC   PO413404   6.306   7.454   4.988  0.2875 -0.1317 -0.0288
  966POPC   GL113405   6.523   7.258   5.287  0.1900 -0.1585  0.2229
  966POPC   GL213406   6.330   7.252   5.619  0.1836 -0.0747 -0.3222
  966POPC   C1A13407   6.776   7.127   5.634  0.1461  0.3019 -0.2078
  966POPC   D2A13408   6.697   6.944   5.991 -0.4178 -0.1618 -0.2700
  966POPC   C3A13409   6.294   6.945   6.214 -0.2998  0.0090 -0.0127
  966POPC   C4A13410   6.034   6.893   6.654 -0.1299 -0.2743 -0.0395
  966POPC   C1B13411   6.089   7.318   5.985 -0.1614 -0.0822 -0.0321
  966POPC   C2B13412   6.117   7.385   6.411  0.1095  0.2045  0.1019
  966POPC   C3B13413   6.203   7.618   6.793 -0.0385  0.1425 -0.1408
  966POPC   C4B13414   5.916   7.612   7.184  0.3369  0.0654  0.4050
  967POPC   NC313415   5.967  12.267   5.780  0.1067 -0.0224 -0.0723
  967POPC   PO413416   6.282  12.291   5.737 -0.0587 -0.1027  0.4961
  967POPC   GL113417   6.320  12.108   6.138  0.1592 -0.2495 -0.0864
  967POPC   GL213418   6.209  11.905   6.072 -0.1802  0.2112  0.1087
  967POPC   C1A13419   6.298  12.503   6.463  0.2266 -0.1685 -0.0610
  967POPC   D2A13420   6.402  12.477   6.869  0.0132 -0.2572  0.0312
  967POPC   C3A13421   6.198  12.760   7.183  0.1160 -0.0191  0.1311
  967POPC   C4A13422   6.034  12.689   7.580 -0.0209  0.4459  0.1131
  967POPC   C1B13423   6.576  11.699   6.223 -0.0418  0.0716  0.0062
  967POPC   C2B13424   6.935  11.629   6.465 -0.2070 -0.2986 -0.1371
  967POPC   C3B13425   7.033  11.712   6.868 -0.0483 -0.3329  0.0921
  967POPC   C4B13426   6.838  11.599   7.210  0.1805  0.2089 -0.1438
  968POPC   NC313427   6.916  13.803   4.802 -0.1437  0.0949 -0.0628
  968POPC   PO413428   7.113  14.083   5.070  0.1330  0.0693 -0.1460
  968POPC   GL113429   6.965  14.115   5.484 -0.1357  0.0441  0.2803
  968POPC   GL213430   7.155  13.954   5.712 -0.0824  0.0001  0.2020
  968POPC   C1A13431   6.762  14.258   5.759  0.2109  0.3438  0.1154
  968POPC   D2A13432   6.447  14.268   5.981 -0.0533  0.0305 -0.2345
  968POPC   C3A13433   6.315  14.603   6.237 -0.1695 -0.2878  0.1267
  968POPC   C4A13434   6.059  14.579   6.565  0.0194  0.2463  0.0896
  968POPC   C1B13435   7.069  14.146   6.074  0.2334 -0.1346 -0.1782
  968POPC   C2B13436   6.807  14.317   6.332  0.1958 -0.3037 -0.3360
  968POPC   C3B13437   6.601  14.456   6.701  0.0881  0.1539  0.0208
  968POPC   C4B13438   6.593  14.487   7.256  0.2895 -0.3814  0.0052
  969POPC   NC313439  18.135  11.022   5.476  0.1109  0.0891 -0.1782
  969POPC   PO413440  18.543  11.110   5.559 -0.1683 -0.0375 -0.1259
  969POPC   GL113441  18.703  11.283   5.928 -0.3235  0.0933 -0.0439
  969POPC   GL213442  18.690  11.547   5.853 -0.3009 -0.1784  0.1644
  969POPC   C1A13443  18.801  11.089   6.268 -0.3030  0.2434 -0.1718
  969POPC   D2A13444  19.066  10.773   6.519 -0.2289  0.1892  0.1236
  969POPC   C3A13445  19.225  10.724   6.967 -0.1039 -0.0322 -0.1157
  969POPC   C4A13446  19.525  10.975   7.267  0.0667 -0.0100  0.0909
  969POPC   C1B13447  18.710  11.737   6.297  0.1078 -0.1580 -0.0304
  969POPC   C2B13448  18.796  11.817   6.817 -0.0081 -0.2273 -0.2690
  969POPC   C3B13449  18.974  11.779   7.268 -0.2315  0.1036  0.1946
  969POPC   C4B13450  19.060  12.010   7.647 -0.0228 -0.1472 -0.1336
  970POPC   NC313451   2.156  18.409   4.806  0.2388 -0.1077 -0.1791
  970POPC   PO413452   1.986  18.211   5.087  0.0212 -0.1108 -0.0894
  970POPC   GL113453   2.129  18.410   5.431 -0.0271  0.2864 -0.0583
  970POPC   GL213454   2.066  18.764   5.573 -0.2613  0.2282  0.0388
  970POPC   C1A13455   2.084  18.214   5.813 -0.1830 -0.0009 -0.0226
  970POPC   D2A13456   2.328  18.257   6.145 -0.0980 -0.0886  0.1852
  970POPC   C3A13457   2.485  17.970   6.426  0.1547 -0.1349  0.2184
  970POPC   C4A13458   2.262  17.621   6.709  0.0128  0.0266  0.2497
  970POPC   C1B13459   2.411  18.803   5.878  0.3397  0.1082 -0.1435
  970POPC   C2B13460   2.614  18.649   6.295  0.0090 -0.1421 -0.0577
  970POPC   C3B13461   2.833  18.761   6.593  0.0988 -0.0426  0.0673
  970POPC   C4B13462   2.857  18.953   6.987 -0.0025 -0.0487  0.0239
  971POPC   NC313463   9.979   8.884   5.199 -0.1704  0.1823  0.1668
  971POPC   PO413464  10.332   8.816   5.408  0.0448  0.2414 -0.0398
  971POPC   GL113465  10.330   8.448   5.788 -0.0317 -0.1783 -0.0378
  971POPC   GL213466  10.213   8.156   5.736 -0.0160  0.0655 -0.1739
  971POPC   C1A13467  10.146   8.518   6.286 -0.1232 -0.0833  0.1707
  971POPC   D2A13468  10.174   8.942   6.596  0.4606 -0.2780 -0.0494
  971POPC   C3A13469   9.819   9.110   6.742  0.0874 -0.2685  0.0229
  971POPC   C4A13470   9.557   9.245   6.529 -0.1049  0.0444  0.0092
  971POPC   C1B13471  10.422   8.038   6.136 -0.0509 -0.0729  0.1008
  971POPC   C2B13472  10.402   7.756   6.514  0.2625  0.0629 -0.0475
  971POPC   C3B13473  10.058   7.851   6.771  0.2313 -0.0358 -0.0266
  971POPC   C4B13474   9.718   7.616   6.844 -0.0884  0.0630 -0.0502
  972POPC   NC313475   3.588  15.836   5.089  0.0701  0.1183 -0.2762
  972POPC   PO413476   3.452  16.273   5.184 -0.4017 -0.2937  0.2488
  972POPC   GL113477   3.397  16.142   5.598  0.0810  0.3542 -0.1643
  972POPC   GL213478   3.511  15.908   5.657  0.0387  0.1609  0.1454
  972POPC   C1A13479   3.466  16.253   6.081  0.1530  0.1842  0.0427
  972POPC   D2A13480   3.470  16.629   6.331 -0.3079  0.0610 -0.0457
  972POPC   C3A13481   3.673  16.859   6.645  0.4193  0.0686 -0.3720
  972POPC   C4A13482   3.886  16.887   6.937  0.0055  0.2716 -0.0494
  972POPC   C1B13483   3.618  15.788   6.046 -0.1239  0.0141  0.2455
  972POPC   C2B13484   3.518  15.868   6.404  0.1245 -0.0057  0.0383
  972POPC   C3B13485   3.465  16.289   6.652  0.0403  0.1413 -0.2030
  972POPC   C4B13486   3.228  16.706   6.818  0.1581  0.3804  0.4887
  973POPC   NC313487   0.897  15.142   5.198 -0.1808 -0.2637 -0.1305
  973POPC   PO413488   1.218  14.923   5.175 -0.0532  0.5053  0.0256
  973POPC   GL113489   1.467  15.057   5.517 -0.0703 -0.2327  0.0568
  973POPC   GL213490   1.736  14.968   5.528 -0.1952 -0.2016  0.0981
  973POPC   C1A13491   1.162  15.348   5.789 -0.1457  0.2398 -0.4579
  973POPC   D2A13492   0.913  15.723   5.980  0.1347  0.0785 -0.4215
  973POPC   C3A13493   0.732  15.417   6.288 -0.4384  0.0493  0.1750
  973POPC   C4A13494   0.576  15.110   6.571 -0.1854 -0.0055  0.2510
  973POPC   C1B13495   1.586  15.150   6.000  0.2066 -0.2989  0.2138
  973POPC   C2B13496   1.715  15.255   6.472 -0.0940 -0.0378  0.1227
  973POPC   C3B13497   1.914  15.418   6.852  0.1949  0.0333 -0.1049
  973POPC   C4B13498   1.848  15.545   7.331  0.1298  0.2118  0.0749
  974POPC   NC313499   1.297  12.780   5.450 -0.2477  0.2324  0.0932
  974POPC   PO413500   1.065  12.994   5.146  0.1092 -0.1730  0.1497
  974POPC   GL113501   0.777  12.953   5.444  0.2327  0.3213 -0.0540
  974POPC   GL213502   0.507  13.110   5.603  0.0234  0.3044 -0.0957
  974POPC   C1A13503   0.688  12.690   5.805  0.0329  0.0912  0.2829
  974POPC   D2A13504   0.582  12.562   6.193  0.1376  0.1305  0.2562
  974POPC   C3A13505   0.906  12.493   6.543  0.2122 -0.1173  0.0626
  974POPC   C4A13506   0.986  12.340   6.963  0.1506 -0.0065 -0.4120
  974POPC   C1B13507   0.328  13.047   6.094 -0.0226  0.0365 -0.4935
  974POPC   C2B13508   0.236  13.081   6.443  0.0772  0.1656  0.0230
  974POPC   C3B13509   0.427  12.795   6.631  0.1383 -0.2511 -0.0693
  974POPC   C4B13510   0.441  12.635   6.949 -0.1637 -0.1461  0.0297
  975POPC   NC313511  14.579  13.187   5.988  0.1248 -0.0907 -0.2771
  975POPC   PO413512  14.474  13.565   6.248  0.0808 -0.0451  0.1105
  975POPC   GL113513  14.642  13.444   6.586  0.3128  0.1085 -0.3433
  975POPC   GL213514  14.820  13.645   6.802  0.0757 -0.1062  0.0592
  975POPC   C1A13515  14.414  13.186   6.866  0.0547  0.2242  0.1205
  975POPC   D2A13516  14.051  13.056   7.091  0.0044  0.0642  0.0097
  975POPC   C3A13517  14.067  12.708   7.459 -0.2104  0.1066 -0.1352
  975POPC   C4A13518  13.695  12.566   7.731 -0.1594 -0.2143 -0.2550
  975POPC   C1B13519  14.699  13.497   7.128  0.2143  0.0352  0.2356
  975POPC   C2B13520  14.505  13.352   7.332 -0.2098  0.2244  0.0979
  975POPC   C3B13521  14.267  13.117   7.569 -0.0098  0.3867  0.0028
  975POPC   C4B13522  14.086  13.002   7.986 -0.0161 -0.1682  0.0830
  976POPC   NC313523   9.394  17.901   5.537  0.2232  0.1808 -0.0175
  976POPC   PO413524   9.434  17.680   5.927 -0.3073 -0.3008  0.2568
  976POPC   GL113525   9.235  17.419   6.152 -0.1334 -0.0009 -0.1583
  976POPC   GL213526   9.353  17.204   6.353 -0.1721 -0.0937 -0.0652
  976POPC   C1A13527   8.850  17.187   6.411  0.1555 -0.0587  0.3190
  976POPC   D2A13528   8.596  16.926   6.529 -0.3189  0.0413 -0.2102
  976POPC   C3A13529   8.419  16.866   6.959  0.0397  0.1165  0.0541
  976POPC   C4A13530   8.529  16.803   7.376  0.1090  0.3837 -0.0563
  976POPC   C1B13531   9.163  17.274   6.817  0.1346 -0.3889  0.2371
  976POPC   C2B13532   9.389  17.366   7.220 -0.0606  0.1295 -0.0904
  976POPC   C3B13533   9.584  17.226   7.586 -0.2002  0.0825  0.2825
  976POPC   C4B13534   9.653  17.099   7.969 -0.3393  0.0315 -0.0258
  977POPC   NC313535  18.847  17.476   5.831 -0.1892  0.0989  0.0994
  977POPC   PO413536  18.510  17.542   5.605 -0.2334 -0.1363  0.0968
  977POPC   GL113537  18.305  17.739   5.978  0.0844 -0.0635 -0.1090
  977POPC   GL213538  17.903  17.731   5.985  0.2263  0.2342 -0.2755
  977POPC   C1A13539  18.378  17.772   6.395  0.1339 -0.3796  0.0644
  977POPC   D2A13540  18.402  17.960   6.682  0.0997  0.1553  0.0163
  977POPC   C3A13541  18.112  17.777   6.863 -0.3184 -0.3755  0.0563
  977POPC   C4A13542  17.942  17.860   7.247 -0.1016 -0.0041  0.1022
  977POPC   C1B13543  17.918  18.044   6.385 -0.0010  0.1215  0.0452
  977POPC   C2B13544  17.474  18.136   6.638  0.2492  0.0445 -0.2630
  977POPC   C3B13545  17.614  18.257   7.075  0.4802  0.0220  0.0297
  977POPC   C4B13546  17.307  18.502   7.356  0.1176  0.0031 -0.1441
  978POPC   NC313547   2.584   0.921   5.305 -0.2511  0.2198  0.1506
  978POPC   PO413548   2.953   1.149   5.337 -0.0243  0.2627  0.0286
  978POPC   GL113549   3.009   1.193   5.702  0.0908 -0.1256  0.0004
  978POPC   GL213550   3.011   1.489   5.801  0.2704  0.1188  0.0939
  978POPC   C1A13551   2.901   1.040   6.110  0.1797  0.2182 -0.3436
  978POPC   D2A13552   2.742   1.193   6.509 -0.2885 -0.0298  0.0786
  978POPC   C3A13553   2.786   1.397   6.883  0.1967 -0.2657  0.2362
  978POPC   C4A13554   2.891   1.627   7.302  0.1103 -0.1803 -0.2929
  978POPC   C1B13555   3.219   1.482   6.226 -0.1641 -0.0618 -0.0032
  978POPC   C2B13556   3.366   1.345   6.556  0.0164  0.1278  0.2361
  978POPC   C3B13557   3.460   0.962   6.904 -0.2425 -0.0961 -0.1087
  978POPC   C4B13558   3.852   0.988   7.046  0.0806 -0.5914 -0.2839
  979POPC   NC313559  16.369   8.371   5.703 -0.0338 -0.3158  0.0318
  979POPC   PO413560  16.322   8.699   5.756 -0.2888 -0.1594 -0.1855
  979POPC   GL113561  16.180   8.645   6.096  0.1115 -0.2856  0.0167
  979POPC   GL213562  16.311   8.938   6.288  0.1512  0.2178  0.0985
  979POPC   C1A13563  16.127   8.390   6.349  0.1748  0.1588 -0.3543
  979POPC   D2A13564  16.158   8.189   6.781  0.4006 -0.1839  0.2983
  979POPC   C3A13565  16.560   8.334   7.077  0.1967 -0.2087 -0.1947
  979POPC   C4A13566  16.640   8.669   7.374  0.0807  0.0061  0.1573
  979POPC   C1B13567  16.396   8.650   6.658  0.1038 -0.0159 -0.4069
  979POPC   C2B13568  16.660   8.884   6.936 -0.0697 -0.4271  0.1835
  979POPC   C3B13569  16.921   9.204   6.964  0.0259  0.1534 -0.0148
  979POPC   C4B13570  17.041   9.540   7.255  0.1551  0.2255 -0.0227
  980POPC   NC313571  14.451   2.420   5.641 -0.0754  0.0649 -0.1730
  980POPC   PO413572  14.559   2.933   5.543 -0.2616 -0.0759 -0.1887
  980POPC   GL113573  14.639   2.992   5.930 -0.1025  0.0724 -0.1511
  980POPC   GL213574  14.430   3.121   6.231 -0.0587  0.0580 -0.1501
  980POPC   C1A13575  14.909   2.890   6.206 -0.2441  0.1929  0.0010
  980POPC   D2A13576  15.248   2.602   6.271 -0.0872 -0.1362 -0.4228
  980POPC   C3A13577  15.559   2.536   6.649 -0.0462  0.3772  0.1593
  980POPC   C4A13578  15.469   2.409   7.088  0.0410 -0.0950 -0.1526
  980POPC   C1B13579  14.780   3.145   6.562  0.4621  0.2027 -0.2286
  980POPC   C2B13580  14.820   3.240   6.849  0.1748 -0.3374 -0.2418
  980POPC   C3B13581  14.878   3.171   7.212 -0.0180  0.1841 -0.0019
  980POPC   C4B13582  14.966   3.160   7.655 -0.2921 -0.3106 -0.1244
  981POPC   NC313583   4.552  11.370   5.219 -0.1219  0.0729  0.4696
  981POPC   PO413584   4.647  11.710   5.455  0.1047  0.1927  0.0670
  981POPC   GL113585   4.745  11.837   5.870 -0.0135 -0.0272  0.1650
  981POPC   GL213586   5.000  11.898   6.035  0.1506 -0.2186 -0.1579
  981POPC   C1A13587   4.525  11.766   6.203 -0.2049  0.1940  0.0319
  981POPC   D2A13588   4.571  11.741   6.617 -0.2342  0.1401  0.0560
  981POPC   C3A13589   4.412  11.631   6.944  0.2206  0.3582 -0.3566
  981POPC   C4A13590   4.006  11.590   7.018 -0.0801 -0.1267 -0.0585
  981POPC   C1B13591   4.874  12.053   6.401 -0.0829 -0.0353  0.0443
  981POPC   C2B13592   4.987  12.080   6.767  0.3818 -0.1494 -0.3470
  981POPC   C3B13593   4.895  11.923   7.210 -0.0099 -0.4295  0.2321
  981POPC   C4B13594   4.807  11.580   7.480  0.0071 -0.1675 -0.2187
  982YOPC   NC313595   8.410   9.848   4.784 -0.0017 -0.3445 -0.0505
  982YOPC   PO413596   8.514   9.898   5.283  0.1664 -0.1611  0.0031
  982YOPC   GL113597   8.232   9.652   5.567 -0.5947 -0.4260  0.0380
  982YOPC   GL213598   7.963   9.853   5.618 -0.0162  0.0034 -0.4071
  982YOPC   C1A13599   8.164   9.667   6.011 -0.0188  0.2994  0.2926
  982YOPC   D2A13600   8.019   9.372   6.348 -0.2074  0.0795 -0.1291
  982YOPC   C3A13601   8.368   9.061   6.493 -0.3094  0.2195 -0.0616
  982YOPC   C4A13602   8.312   8.769   6.743 -0.1443  0.4583 -0.0411
  982YOPC   C1B13603   7.624   9.899   5.966 -0.0009  0.1148 -0.2273
  982YOPC   C2B13604   7.627   9.935   6.438  0.2054 -0.0076  0.0372
  982YOPC   D3B13605   7.322  10.098   6.775 -0.1526 -0.1125 -0.0335
  982YOPC   C4B13606   7.043   9.886   7.145  0.0031 -0.0826 -0.0777
  983YOPC   NC313607   7.870   6.279   5.001 -0.3719  0.1208 -0.0238
  983YOPC   PO413608   7.998   6.134   5.366 -0.0101 -0.1477  0.0657
  983YOPC   GL113609   8.129   6.375   5.658 -0.2444  0.0746  0.3112
  983YOPC   GL213610   8.000   6.488   5.872 -0.1808  0.0329  0.1314
  983YOPC   C1A13611   8.518   6.348   5.932 -0.3531  0.0109  0.0347
  983YOPC   D2A13612   8.874   6.074   6.165  0.1116  0.3480  0.0100
  983YOPC   C3A13613   8.898   6.062   6.676 -0.1414 -0.3198 -0.0818
  983YOPC   C4A13614   8.596   5.974   6.939  0.1657  0.2863 -0.1974
  983YOPC   C1B13615   8.167   6.513   6.377  0.1564 -0.1317 -0.0292
  983YOPC   C2B13616   8.388   6.498   6.720 -0.1334  0.0245  0.2190
  983YOPC   D3B13617   8.481   6.685   7.053 -0.0523 -0.1366  0.0152
  983YOPC   C4B13618   8.458   7.081   7.280 -0.0666 -0.1036 -0.0078
  984YOPC   NC313619  18.640   0.511   5.015 -0.2297 -0.0372  0.1983
  984YOPC   PO413620  19.019   0.501   5.107 -0.1818  0.1856  0.1855
  984YOPC   GL113621  18.912   0.710   5.472  0.1308 -0.0651 -0.2667
  984YOPC   GL213622  18.668   0.947   5.561 -0.4891 -0.1259 -0.0820
  984YOPC   C1A13623  18.912   0.810   5.964  0.0121  0.0030 -0.1625
  984YOPC   D2A13624  18.680   0.928   6.299 -0.1311 -0.1182  0.0438
  984YOPC   C3A13625  18.882   0.950   6.646  0.0948 -0.1234  0.2884
  984YOPC   C4A13626  18.996   0.946   7.102 -0.0093  0.0820  0.1233
  984YOPC   C1B13627  18.467   0.664   5.872  0.2318 -0.1390  0.0303
  984YOPC   C2B13628  18.021   0.458   5.826  0.1437  0.0935  0.1902
  984YOPC   D3B13629  17.795   0.144   6.067 -0.2332  0.0803  0.2804
  984YOPC   C4B13630  17.441  -0.152   6.218 -0.4846 -0.2810  0.1113
  985YOPC   NC313631   4.152   7.797   5.050  0.0394 -0.2292  0.0258
  985YOPC   PO413632   3.797   7.611   5.119  0.0850  0.1145  0.0582
  985YOPC   GL113633   3.666   7.536   5.574 -0.4232  0.3718  0.0145
  985YOPC   GL213634   3.799   7.370   5.799 -0.3472 -0.3839 -0.1778
  985YOPC   C1A13635   3.406   7.442   6.051 -0.1410  0.1191 -0.2570
  985YOPC   D2A13636   3.438   7.256   6.438  0.2940 -0.1040  0.0019
  985YOPC   C3A13637   3.739   6.989   6.440  0.2131 -0.0611 -0.1841
  985YOPC   C4A13638   3.839   6.945   6.006 -0.0061 -0.2051  0.0754
  985YOPC   C1B13639   3.799   7.745   6.043  0.1490 -0.0897 -0.1036
  985YOPC   C2B13640   3.873   8.027   6.383  0.1907 -0.0492  0.0522
  985YOPC   D3B13641   4.038   8.134   6.849 -0.1195 -0.0434  0.1926
  985YOPC   C4B13642   4.241   8.412   7.035  0.1473 -0.2632 -0.0542
  986YOPC   NC313643  16.744  13.758   5.650 -0.2897 -0.2805  0.1405
  986YOPC   PO413644  17.154  13.969   5.643  0.1070 -0.2621  0.0077
  986YOPC   GL113645  17.369  13.729   5.938 -0.3894 -0.1370 -0.1460
  986YOPC   GL213646  17.726  13.785   6.019  0.0803  0.2330 -0.1560
  986YOPC   C1A13647  17.119  13.461   6.264 -0.0219 -0.1302 -0.0215
  986YOPC   D2A13648  17.172  13.159   6.538 -0.1688  0.0226 -0.1358
  986YOPC   C3A13649  16.925  13.087   6.910  0.0820  0.1864 -0.0749
  986YOPC   C4A13650  16.907  12.681   7.111  0.4879 -0.3077 -0.1454
  986YOPC   C1B13651  17.856  14.082   6.295 -0.1631 -0.1613 -0.1331
  986YOPC   C2B13652  18.115  14.249   6.649 -0.1674 -0.0000  0.0788
  986YOPC   D3B13653  18.310  14.002   7.003  0.1621 -0.0664 -0.0707
  986YOPC   C4B13654  18.510  13.988   7.433  0.0414 -0.0523  0.2518
  987YOPC   NC313655  11.144   0.535   5.763 -0.0692  0.1589  0.2701
  987YOPC   PO413656  11.045   0.996   5.789 -0.2563 -0.0237  0.2647
  987YOPC   GL113657  11.262   0.784   6.154 -0.2163  0.0275  0.1941
  987YOPC   GL213658  11.547   0.599   6.298  0.0184  0.1464  0.4271
  987YOPC   C1A13659  11.077   0.995   6.580  0.0590  0.0167  0.0307
  987YOPC   D2A13660  11.106   1.136   6.872 -0.0522 -0.0883  0.1268
  987YOPC   C3A13661  10.989   1.187   7.233  0.3711  0.1984 -0.1223
  987YOPC   C4A13662  11.206   1.441   7.527  0.0657 -0.1587  0.0469
  987YOPC   C1B13663  11.520   0.745   6.654 -0.3261  0.0929 -0.0780
  987YOPC   C2B13664  11.616   0.468   7.038  0.1941 -0.0029  0.1366
  987YOPC   D3B13665  11.563   0.631   7.394 -0.0201  0.1203 -0.1379
  987YOPC   C4B13666  11.454   1.099   7.255  0.1832  0.1029  0.2728
  988YOPC   NC313667  15.366  13.016   6.255  0.1541 -0.0890  0.1209
  988YOPC   PO413668  15.820  12.949   6.190 -0.3249 -0.2688 -0.1683
  988YOPC   GL113669  15.784  13.035   6.517 -0.3886  0.2002 -0.4642
  988YOPC   GL213670  15.695  12.779   6.632 -0.2286 -0.2004  0.0753
  988YOPC   C1A13671  15.715  13.161   6.956 -0.5138  0.0677  0.1637
  988YOPC   D2A13672  15.937  13.176   7.200 -0.3860  0.0246 -0.2673
  988YOPC   C3A13673  16.097  12.909   7.455  0.0689 -0.0129 -0.2651
  988YOPC   C4A13674  16.188  12.967   7.851 -0.0803  0.3967 -0.0391
  988YOPC   C1B13675  15.891  12.677   7.070  0.2028 -0.0137 -0.1200
  988YOPC   C2B13676  16.401  12.518   7.168  0.3904  0.1573  0.2538
  988YOPC   D3B13677  16.565  12.591   7.585  0.3498 -0.1743 -0.1990
  988YOPC   C4B13678  16.789  12.342   7.870  0.0908 -0.0465  0.0234
  989YOPC   NC313679   2.210   6.389   4.630  0.2160 -0.2067 -0.1965
  989YOPC   PO413680   1.850   6.219   4.752  0.6216 -0.0322 -0.0162
  989YOPC   GL113681   2.037   5.996   5.220 -0.3359  0.3588  0.0882
  989YOPC   GL213682   2.195   6.068   5.450  0.1182 -0.0869  0.1009
  989YOPC   C1A13683   2.230   5.547   5.291  0.0684 -0.3993  0.2748
  989YOPC   D2A13684   2.140   5.372   5.690  0.0986 -0.0593 -0.3390
  989YOPC   C3A13685   2.056   5.509   6.106 -0.1710 -0.2346 -0.1139
  989YOPC   C4A13686   2.027   5.418   6.486 -0.0969 -0.0533  0.0686
  989YOPC   C1B13687   2.384   5.794   5.843  0.1667  0.2901 -0.1225
  989YOPC   C2B13688   2.448   6.021   6.232 -0.0256 -0.0474 -0.2475
  989YOPC   D3B13689   2.325   5.868   6.528 -0.0878 -0.3078 -0.0092
  989YOPC   C4B13690   2.208   5.813   6.901  0.0466 -0.2142 -0.0265
  990YOPC   NC313691   6.293   6.927   4.978 -0.1206 -0.2584  0.1852
  990YOPC   PO413692   6.529   6.753   5.242 -0.0659  0.2287  0.2941
  990YOPC   GL113693   6.749   6.499   5.593  0.0137  0.0128 -0.0638
  990YOPC   GL213694   6.930   6.203   5.557 -0.0904 -0.2441 -0.0047
  990YOPC   C1A13695   6.680   6.472   6.085 -0.4400  0.1746  0.1421
  990YOPC   D2A13696   6.688   6.767   6.487  0.0989 -0.4071 -0.1234
  990YOPC   C3A13697   6.893   6.843   6.883  0.0241 -0.0696 -0.2159
  990YOPC   C4A13698   7.233   6.900   7.211 -0.0416  0.1308  0.1289
  990YOPC   C1B13699   7.041   6.093   6.026 -0.0338  0.0463 -0.0932
  990YOPC   C2B13700   7.361   5.963   6.423 -0.1603 -0.3493  0.3226
  990YOPC   D3B13701   7.544   6.246   6.703  0.2462  0.0862  0.0273
  990YOPC   C4B13702   7.545   6.541   7.042  0.0159 -0.4865 -0.0849
  991YOPC   NC313703   6.740  10.650   5.179 -0.1753 -0.1590  0.1223
  991YOPC   PO413704   6.544  11.005   5.529 -0.0851  0.1086 -0.1217
  991YOPC   GL113705   6.415  10.857   6.004  0.1630 -0.2562 -0.0387
  991YOPC   GL213706   6.607  10.697   6.174  0.1499 -0.1658 -0.2343
  991YOPC   C1A13707   6.279  10.824   6.482  0.2766  0.0940 -0.0435
  991YOPC   D2A13708   6.457  10.721   6.948 -0.1267  0.1890 -0.0596
  991YOPC   C3A13709   6.283  10.793   7.355  0.2709 -0.1337  0.1205
  991YOPC   C4A13710   5.843  10.642   7.443 -0.1619  0.2714 -0.1573
  991YOPC   C1B13711   6.783  10.655   6.552  0.1734  0.1409 -0.1834
  991YOPC   C2B13712   6.978  10.791   7.001  0.2254  0.2766  0.4430
  991YOPC   D3B13713   7.176  10.406   7.238  0.1313  0.0280  0.1617
  991YOPC   C4B13714   7.078  10.164   7.550 -0.1917 -0.0646 -0.0787
  992YOPC   NC313715   5.165  16.615   5.110  0.1895 -0.2457 -0.1526
  992YOPC   PO413716   5.162  16.154   5.147  0.4512 -0.0769 -0.0947
  992YOPC   GL113717   4.789  15.979   5.511 -0.0663 -0.2399  0.1390
  992YOPC   GL213718   4.467  16.094   5.514 -0.0641  0.1254  0.1851
  992YOPC   C1A13719   4.806  15.798   5.868 -0.5455 -0.1097 -0.0090
  992YOPC   D2A13720   4.968  15.722   6.179 -0.5343 -0.1801  0.1817
  992YOPC   C3A13721   5.052  15.956   6.448  0.1293  0.0191  0.0508
  992YOPC   C4A13722   4.855  16.013   6.863 -0.0175 -0.0124  0.0094
  992YOPC   C1B13723   4.569  16.290   5.942 -0.1048  0.1113  0.0639
  992YOPC   C2B13724   4.520  16.187   6.346 -0.1245  0.2887 -0.2173
  992YOPC   D3B13725   4.590  16.440   6.625  0.4664  0.1412  0.1567
  992YOPC   C4B13726   4.822  16.811   6.593  0.0067  0.0201 -0.1075
  993YOPC   NC313727   3.971   5.375   4.948 -0.2700  0.0794  0.1962
  993YOPC   PO413728   3.962   5.059   5.127 -0.1620  0.0754 -0.1414
  993YOPC   GL113729   3.646   4.848   5.321 -0.1410 -0.0135  0.0486
  993YOPC   GL213730   3.285   4.826   5.184 -0.3975  0.1494 -0.1886
  993YOPC   C1A13731   3.396   4.845   5.693 -0.1198 -0.0094 -0.1380
  993YOPC   D2A13732   3.374   4.607   6.044 -0.1956 -0.1357 -0.2493
  993YOPC   C3A13733   3.428   4.955   6.486  0.0187 -0.2010 -0.5239
  993YOPC   C4A13734   3.442   4.739   6.886 -0.0443 -0.2671  0.1624
  993YOPC   C1B13735   2.930   4.819   5.428  0.0502  0.3284  0.3816
  993YOPC   C2B13736   2.515   4.751   5.710 -0.0842 -0.1610 -0.2947
  993YOPC   D3B13737   2.450   4.998   5.948 -0.0501 -0.2143  0.1588
  993YOPC   C4B13738   2.595   5.342   6.016  0.1646  0.0809  0.3000
  994YOPC   NC313739  17.738   4.026   5.566  0.1208  0.0728  0.1630
  994YOPC   PO413740  17.928   3.983   5.941 -0.1738  0.1368 -0.1401
  994YOPC   GL113741  17.851   4.047   6.267  0.3365 -0.2344  0.2496
  994YOPC   GL213742  17.640   4.372   6.239 -0.1165 -0.0381  0.1322
  994YOPC   C1A13743  17.884   4.169   6.664 -0.1009  0.1885 -0.0892
  994YOPC   D2A13744  17.640   4.367   6.978  0.1633  0.0117 -0.0689
  994YOPC   C3A13745  17.481   4.131   7.334  0.0169  0.1030 -0.0138
  994YOPC   C4A13746  17.691   3.892   7.660 -0.1591 -0.3278 -0.1517
  994YOPC   C1B13747  17.321   4.500   6.492  0.0556 -0.1279  0.0461
  994YOPC   C2B13748  16.956   4.509   6.672  0.3291  0.3223  0.1581
  994YOPC   D3B13749  16.894   4.818   6.893  0.1640 -0.3680  0.1645
  994YOPC   C4B13750  16.668   5.048   6.852  0.0653  0.0070 -0.0199
  995YOPC   NC313751   1.470   2.118   5.389 -0.0499 -0.0062 -0.0322
  995YOPC   PO413752   1.918   2.242   5.450  0.0673 -0.0886 -0.1611
  995YOPC   GL113753   1.634   2.184   5.859 -0.1005  0.0504  0.0312
  995YOPC   GL213754   1.417   2.324   5.891  0.2371  0.2257 -0.0896
  995YOPC   C1A13755   1.647   2.266   6.392  0.2176 -0.2291 -0.1797
  995YOPC   D2A13756   1.701   2.304   6.824 -0.2322  0.2995 -0.0035
  995YOPC   C3A13757   1.526   1.979   7.003 -0.5000  0.0152 -0.1920
  995YOPC   C4A13758   1.524   1.521   7.181  0.0374 -0.2338 -0.1370
  995YOPC   C1B13759   1.110   2.531   6.163  0.0597 -0.2674  0.0367
  995YOPC   C2B13760   1.153   2.856   6.360  0.1667 -0.3699 -0.1491
  995YOPC   D3B13761   0.970   2.922   6.724 -0.2244 -0.2280  0.1354
  995YOPC   C4B13762   1.058   2.784   7.195 -0.0790  0.3651  0.1894
  996YOPC   NC313763  10.341  12.732   5.734 -0.0837  0.1417  0.0174
  996YOPC   PO413764  10.476  13.187   5.875 -0.4153 -0.0640  0.0860
  996YOPC   GL113765  10.315  12.950   6.165  0.2428 -0.3398  0.1154
  996YOPC   GL213766  10.059  12.697   6.319 -0.0555  0.0499 -0.1644
  996YOPC   C1A13767  10.407  12.900   6.611  0.0361 -0.0318 -0.0378
  996YOPC   D2A13768  10.278  12.921   7.105  0.0648 -0.2660  0.2730
  996YOPC   C3A13769  10.432  12.734   7.367  0.2396 -0.1802 -0.3088
  996YOPC   C4A13770  10.709  12.939   7.699 -0.0297 -0.2060 -0.0050
  996YOPC   C1B13771  10.205  12.373   6.615  0.1426  0.0509 -0.0405
  996YOPC   C2B13772  10.110  12.373   6.985 -0.1392 -0.0623  0.0210
  996YOPC   D3B13773   9.779  12.159   6.969 -0.0111  0.1804 -0.1525
  996YOPC   C4B13774   9.650  11.721   7.154 -0.1543 -0.1617  0.2741
  997YOPC   NC313775  14.515  15.016   5.693 -0.2357  0.0251 -0.1261
  997YOPC   PO413776  14.702  14.835   6.077  0.0964  0.0191  0.4228
  997YOPC   GL113777  14.987  14.786   6.501 -0.1287  0.1182 -0.0105
  997YOPC   GL213778  15.357  14.772   6.542  0.2848 -0.0616 -0.1560
  997YOPC   C1A13779  15.142  14.908   6.955  0.1878  0.0673  0.2470
  997YOPC   D2A13780  15.414  14.904   7.284 -0.0721  0.0455 -0.2356
  997YOPC   C3A13781  15.718  14.610   7.294 -0.0291 -0.0471 -0.0285
  997YOPC   C4A13782  15.920  14.202   7.120  0.3029 -0.1969  0.1786
  997YOPC   C1B13783  15.420  14.449   6.863 -0.0633  0.0741 -0.1931
  997YOPC   C2B13784  15.288  14.360   7.284  0.2143 -0.0623  0.0086
  997YOPC   D3B13785  15.093  14.701   7.556  0.3028 -0.1573 -0.2991
  997YOPC   C4B13786  15.041  14.629   8.029  0.1519  0.1920  0.0391
  998YOPC   NC313787  17.466   2.642   5.641  0.2480  0.0830 -0.0545
  998YOPC   PO413788  17.092   2.573   5.971 -0.0737 -0.0309 -0.1373
  998YOPC   GL113789  17.092   2.508   6.393 -0.3990 -0.0243  0.1015
  998YOPC   GL213790  17.157   2.870   6.465  0.2235  0.2187  0.3630
  998YOPC   C1A13791  17.331   2.408   6.762 -0.2975  0.2845  0.1391
  998YOPC   D2A13792  17.238   2.042   7.060  0.4441 -0.3740 -0.1416
  998YOPC   C3A13793  17.640   1.925   7.321 -0.3284  0.0941 -0.2358
  998YOPC   C4A13794  18.036   1.922   7.142  0.2943 -0.1104  0.1933
  998YOPC   C1B13795  17.169   2.902   6.893  0.0234 -0.5098 -0.2367
  998YOPC   C2B13796  17.222   2.652   7.172  0.0537  0.0473  0.1461
  998YOPC   D3B13797  16.912   2.290   7.373 -0.0861 -0.0643 -0.0388
  998YOPC   C4B13798  16.654   2.050   7.630  0.2520 -0.1253  0.0397
  999YOPC   NC313799   9.631  10.930   5.564 -0.2101 -0.1341 -0.2493
  999YOPC   PO413800   9.537  11.477   5.543  0.0233 -0.4109 -0.0315
  999YOPC   GL113801   9.398  11.430   6.050  0.0322 -0.0840 -0.2440
  999YOPC   GL213802   9.649  11.559   6.287 -0.0279  0.1858 -0.1473
  999YOPC   C1A13803   9.054  11.359   6.435 -0.1265 -0.2444  0.0895
  999YOPC   D2A13804   8.927  10.951   6.530  0.1099  0.0971 -0.0580
  999YOPC   C3A13805   8.685  10.719   6.776 -0.0672  0.1009  0.2375
  999YOPC   C4A13806   8.387  10.474   6.850  0.1788 -0.0426 -0.1769
  999YOPC   C1B13807   9.529  11.554   6.618 -0.2041  0.3983 -0.0814
  999YOPC   C2B13808   9.205  11.471   6.869 -0.1107  0.0643 -0.2338
  999YOPC   D3B13809   9.094  11.057   7.110  0.1063 -0.1584  0.0640
  999YOPC   C4B13810   8.679  10.982   7.184  0.0017 -0.1947 -0.1322
 1000YOPC   NC313811  17.889   8.730   5.209 -0.0889 -0.0418 -0.3594
 1000YOPC   PO413812  17.584   8.529   5.560  0.0870  0.1725  0.0099
 1000YOPC   GL113813  17.684   8.627   5.995  0.3045 -0.2098 -0.1075
 1000YOPC   GL213814  18.034   8.669   6.038  0.2371  0.0752 -0.0438
 1000YOPC   C1A13815  17.723   8.699   6.453 -0.3098  0.0007 -0.1533
 1000YOPC   D2A13816  17.887   8.967   6.714 -0.0489  0.2723 -0.4272
 1000YOPC   C3A13817  17.792   9.002   7.163  0.1192 -0.2338 -0.0330
 1000YOPC   C4A13818  17.581   9.154   7.518  0.2680 -0.0369 -0.0654
 1000YOPC   C1B13819  18.043   8.989   6.232 -0.0245 -0.2284 -0.4681
 1000YOPC   C2B13820  18.234   9.284   6.277 -0.0064 -0.2129 -0.1009
 1000YOPC   D3B13821  18.298   9.301   6.688  0.0064 -0.0778  0.0600
 1000YOPC   C4B13822  18.254   9.119   6.993  0.3243 -0.2574 -0.2121
 1001YOPC   NC313823  17.002  18.443   5.456 -0.1481  0.2368  0.1601
 1001YOPC   PO413824  17.389  18.677   5.593 -0.3515 -0.0859  0.0053
 1001YOPC   GL113825  17.393  19.280   5.813  0.1397 -0.2109  0.3285
 1001YOPC   GL213826  17.431  19.667   5.715 -0.2550 -0.1378 -0.2546
 1001YOPC   C1A13827  17.219  19.429   6.270 -0.0294  0.1695 -0.0402
 1001YOPC   D2A13828  17.218  19.153   6.644  0.1992 -0.1063 -0.2988
 1001YOPC   C3A13829  16.899  18.806   6.838  0.0882  0.0571  0.4099
 1001YOPC   C4A13830  16.666  18.596   6.776 -0.0164 -0.3621  0.2376
 1001YOPC   C1B13831  17.587  19.713   6.078  0.0315  0.0333  0.0548
 1001YOPC   C2B13832  17.617  19.617   6.475 -0.1831  0.0864  0.0278
 1001YOPC   D3B13833  17.259  19.688   6.838 -0.2043  0.2391 -0.2084
 1001YOPC   C4B13834  16.950  19.930   6.969  0.2616  0.4841 -0.1331
 1002YOPC   NC313835  18.981  18.363   5.696 -0.3596  0.2569  0.2075
 1002YOPC   PO413836  18.749  18.034   5.887  0.1811  0.3799  0.1053
 1002YOPC   GL113837  18.869  17.979   6.376 -0.2990  0.1539  0.3893
 1002YOPC   GL213838  18.869  17.560   6.339  0.0877  0.1657  0.0842
 1002YOPC   C1A13839  18.858  18.206   6.769 -0.0737 -0.0436  0.1081
 1002YOPC   D2A13840  18.554  18.393   7.034 -0.1129  0.2258  0.1077
 1002YOPC   C3A13841  18.437  18.063   7.402 -0.0811 -0.1739  0.0840
 1002YOPC   C4A13842  18.884  18.034   7.718 -0.1896 -0.4027 -0.1095
 1002YOPC   C1B13843  18.774  17.612   6.693 -0.1178  0.2783 -0.2242
 1002YOPC   C2B13844  18.672  17.851   7.058  0.0017 -0.1414 -0.0328
 1002YOPC   D3B13845  18.891  17.618   7.371  0.2712 -0.1770  0.2501
 1002YOPC   C4B13846  19.288  17.647   7.607 -0.0934 -0.1287  0.1745
 1003YOPC   NC313847  17.602  14.743   5.396 -0.0732  0.0557 -0.2330
 1003YOPC   PO413848  18.040  14.564   5.473  0.3318 -0.0915 -0.0672
 1003YOPC   GL113849  18.305  14.774   5.754 -0.1630 -0.1114 -0.1227
 1003YOPC   GL213850  18.549  14.506   5.793 -0.0751  0.1218 -0.1026
 1003YOPC   C1A13851  18.276  14.950   6.104 -0.1298 -0.0944 -0.0640
 1003YOPC   D2A13852  18.160  15.061   6.588  0.0339  0.0963  0.3103
 1003YOPC   C3A13853  18.438  15.111   6.942 -0.1395  0.1302  0.0553
 1003YOPC   C4A13854  18.443  15.319   7.345  0.1961  0.1507 -0.0149
 1003YOPC   C1B13855  18.739  14.653   6.117  0.0454 -0.2543 -0.1499
 1003YOPC   C2B13856  18.894  14.623   6.536 -0.1333 -0.3456  0.0257
 1003YOPC   D3B13857  18.917  14.884   6.882  0.6075 -0.1846  0.0005
 1003YOPC   C4B13858  18.977  15.280   6.965 -0.0502  0.0465 -0.1888
 1004YOPC   NC313859   1.454   5.898   4.802 -0.2293 -0.4784 -0.1763
 1004YOPC   PO413860   1.165   5.634   5.023 -0.1704 -0.0395  0.1254
 1004YOPC   GL113861   1.448   5.756   5.324 -0.2222  0.0649 -0.1175
 1004YOPC   GL213862   1.549   5.998   5.325  0.1392  0.1354  0.2548
 1004YOPC   C1A13863   1.838   5.730   5.606 -0.0214  0.2140 -0.1558
 1004YOPC   D2A13864   1.926   5.991   6.059 -0.3576 -0.2067 -0.0172
 1004YOPC   C3A13865   1.875   6.012   6.517 -0.0901  0.5002  0.0972
 1004YOPC   C4A13866   2.044   6.279   6.844  0.0593  0.3121 -0.0496
 1004YOPC   C1B13867   1.506   6.046   5.809 -0.1018  0.0198 -0.1292
 1004YOPC   C2B13868   1.387   6.266   6.223 -0.3061 -0.1766 -0.1807
 1004YOPC   D3B13869   1.280   6.101   6.625  0.1406  0.0917  0.0614
 1004YOPC   C4B13870   1.164   6.110   7.015  0.0019  0.2455 -0.1481
 1005YOPC   NC313871  15.044   3.062   5.563 -0.0388  0.3163 -0.2242
 1005YOPC   PO413872  15.547   3.285   5.550  0.0224  0.2232  0.2791
 1005YOPC   GL113873  15.322   3.384   5.966  0.3370  0.0783  0.4353
 1005YOPC   GL213874  15.414   3.569   6.191  0.0469 -0.0466  0.2220
 1005YOPC   C1A13875  14.864   3.434   6.118  0.2035 -0.0957 -0.0238
 1005YOPC   D2A13876  14.819   3.638   6.552 -0.2762 -0.2080  0.2094
 1005YOPC   C3A13877  15.043   3.858   6.880  0.1750 -0.1535  0.1593
 1005YOPC   C4A13878  15.075   4.251   7.055  0.1279 -0.3212 -0.0195
 1005YOPC   C1B13879  15.347   3.580   6.607 -0.1764 -0.0833 -0.2659
 1005YOPC   C2B13880  15.387   3.281   6.959  0.1770 -0.0393 -0.0145
 1005YOPC   D3B13881  15.719   2.877   6.979  0.1992  0.0155  0.3205
 1005YOPC   C4B13882  16.006   2.906   7.357 -0.2003 -0.1756  0.2224
 1006YOPC   NC313883   7.038  11.114   5.561  0.1385 -0.0776  0.1303
 1006YOPC   PO413884   7.178  11.593   5.653 -0.1221  0.2069 -0.1652
 1006YOPC   GL113885   7.281  11.423   6.108 -0.1322  0.0501  0.1376
 1006YOPC   GL213886   7.429  11.662   6.321  0.1234 -0.0825  0.2638
 1006YOPC   C1A13887   7.448  11.057   6.336 -0.1010  0.1138  0.2172
 1006YOPC   D2A13888   7.243  10.837   6.611 -0.0946 -0.0081 -0.1901
 1006YOPC   C3A13889   7.546  10.733   6.889  0.1133 -0.3343  0.1920
 1006YOPC   C4A13890   7.986  10.737   7.117 -0.0866 -0.0956  0.2997
 1006YOPC   C1B13891   7.433  11.450   6.705  0.1136  0.2132  0.1041
 1006YOPC   C2B13892   7.220  11.239   7.041 -0.0622 -0.0806 -0.0409
 1006YOPC   D3B13893   7.355  10.963   7.287 -0.2593 -0.1198  0.2530
 1006YOPC   C4B13894   7.026  10.680   7.613 -0.2556 -0.0379  0.4109
 1007YOPC   NC313895  10.134   3.562   5.266 -0.0986 -0.0963  0.1138
 1007YOPC   PO413896  10.084   3.142   5.452  0.0979 -0.2935  0.2227
 1007YOPC   GL113897  10.212   2.968   5.858  0.2402 -0.2232 -0.0614
 1007YOPC   GL213898  10.611   3.088   5.883  0.2875  0.1512  0.0953
 1007YOPC   C1A13899  10.414   2.767   6.185 -0.2969 -0.1094 -0.0997
 1007YOPC   D2A13900  10.403   2.899   6.653  0.0363  0.3763  0.0225
 1007YOPC   C3A13901   9.949   2.839   6.725 -0.1116 -0.1076 -0.0189
 1007YOPC   C4A13902   9.630   3.171   6.757  0.4980  0.0468  0.0689
 1007YOPC   C1B13903  10.388   3.322   6.306  0.0558  0.1343 -0.2842
 1007YOPC   C2B13904  10.097   3.390   6.639 -0.0734  0.0115  0.2098
 1007YOPC   D3B13905  10.166   3.185   7.009  0.0054  0.0490  0.2003
 1007YOPC   C4B13906  10.249   3.163   7.429 -0.0558 -0.1560 -0.1031
 1008YOPC   NC313907   7.095  15.532   5.310  0.1657 -0.0988  0.2293
 1008YOPC   PO413908   6.971  15.982   5.212 -0.0831 -0.1100 -0.0512
 1008YOPC   GL113909   6.899  16.024   5.701  0.1174 -0.1522  0.0358
 1008YOPC   GL213910   6.600  15.997   5.721 -0.2799 -0.0120  0.1401
 1008YOPC   C1A13911   7.109  16.071   6.073  0.0326  0.2139 -0.0370
 1008YOPC   D2A13912   7.526  15.814   6.209 -0.0934  0.0669  0.2702
 1008YOPC   C3A13913   7.547  15.474   6.545 -0.1583  0.2046 -0.2374
 1008YOPC   C4A13914   7.350  15.123   6.692  0.2975 -0.0124 -0.0247
 1008YOPC   C1B13915   6.807  15.633   6.016 -0.1183  0.1356  0.0259
 1008YOPC   C2B13916   7.063  15.633   6.436 -0.1512 -0.1954 -0.0181
 1008YOPC   D3B13917   6.869  15.359   6.753 -0.0839  0.0083 -0.1727
 1008YOPC   C4B13918   6.839  14.906   6.815  0.0124 -0.1635 -0.5885
 1009YOPC   NC313919   0.606   8.062   5.076  0.0517  0.2138 -0.5499
 1009YOPC   PO413920   0.209   8.098   4.814  0.0787 -0.0558 -0.2898
 1009YOPC   GL113921   0.192   8.096   5.348  0.0880  0.1902 -0.1077
 1009YOPC   GL213922   0.488   8.408   5.542 -0.1950 -0.0591  0.2404
 1009YOPC   C1A13923   0.084   7.833   5.680 -0.1583  0.2261 -0.0866
 1009YOPC   D2A13924   0.182   7.670   6.029 -0.2381 -0.0896 -0.2513
 1009YOPC   C3A13925  -0.001   7.843   6.417 -0.0913  0.0249 -0.0703
 1009YOPC   C4A13926  -0.006   8.220   6.664  0.1945 -0.0313  0.1996
 1009YOPC   C1B13927   0.795   8.638   5.849 -0.0879 -0.0674  0.1314
 1009YOPC   C2B13928   1.198   8.861   5.824  0.0558 -0.4191  0.1872
 1009YOPC   D3B13929   1.444   8.937   6.197  0.2434 -0.0006 -0.2126
 1009YOPC   C4B13930   1.744   8.816   6.513 -0.0141  0.0585 -0.0113
 1010YOPC   NC313931   6.397  14.899   5.122 -0.0106  0.0838  0.0907
 1010YOPC   PO413932   6.179  14.936   4.839  0.2009 -0.2513 -0.0295
 1010YOPC   GL113933   5.880  15.044   5.223 -0.0213 -0.1070 -0.0308
 1010YOPC   GL213934   5.979  14.834   5.346  0.1741  0.3759  0.3791
 1010YOPC   C1A13935   5.666  15.349   5.568 -0.0016 -0.0905  0.1591
 1010YOPC   D2A13936   5.427  15.551   5.886  0.2576 -0.1892  0.1405
 1010YOPC   C3A13937   5.373  15.376   6.172 -0.2039 -0.2528 -0.0466
 1010YOPC   C4A13938   5.184  15.097   6.491 -0.0675 -0.0921  0.0352
 1010YOPC   C1B13939   5.835  14.711   5.682  0.1314  0.0866  0.0670
 1010YOPC   C2B13940   5.869  14.575   6.024 -0.0309 -0.1923  0.0029
 1010YOPC   D3B13941   5.461  14.416   6.007  0.1629 -0.1835  0.1701
 1010YOPC   C4B13942   5.043  14.179   5.963  0.0403 -0.0599 -0.1700
 1011YOPC   NC313943  17.099  12.979   5.257  0.0875  0.0508 -0.0670
 1011YOPC   PO413944  17.432  13.136   5.579 -0.0287  0.0145  0.1078
 1011YOPC   GL113945  17.408  13.128   6.019  0.2229  0.0741  0.1891
 1011YOPC   GL213946  17.568  12.861   6.064  0.1534  0.2296  0.0213
 1011YOPC   C1A13947  17.608  13.396   6.311 -0.1794  0.1643 -0.1946
 1011YOPC   D2A13948  17.585  13.685   6.477  0.3057 -0.0967 -0.0314
 1011YOPC   C3A13949  17.236  13.675   6.698  0.3364  0.1436  0.0201
 1011YOPC   C4A13950  17.379  13.787   7.078  0.0738 -0.0651  0.1830
 1011YOPC   C1B13951  17.716  12.962   6.534 -0.4626  0.0618  0.1941
 1011YOPC   C2B13952  17.916  12.963   6.866  0.2534  0.1355  0.0909
 1011YOPC   D3B13953  18.060  13.096   7.331  0.1774 -0.1836  0.1421
 1011YOPC   C4B13954  18.403  13.106   7.571 -0.1708  0.3261 -0.4524
 1012YOPC   NC313955  19.002  15.554   5.118  0.2812  0.0193  0.0105
 1012YOPC   PO413956  19.343  15.669   5.246  0.0765  0.2392 -0.2124
 1012YOPC   GL113957  19.184  15.914   5.567  0.4255 -0.0631  0.0001
 1012YOPC   GL213958  18.923  16.252   5.627 -0.2077  0.0605  0.1889
 1012YOPC   C1A13959  19.107  15.906   5.913 -0.0497 -0.0417 -0.3328
 1012YOPC   D2A13960  19.016  15.757   6.358 -0.0137  0.0157 -0.0355
 1012YOPC   C3A13961  18.880  16.139   6.535  0.0227  0.1064 -0.0054
 1012YOPC   C4A13962  18.640  16.227   6.901 -0.3414  0.1445  0.0337
 1012YOPC   C1B13963  18.742  16.276   6.089 -0.1240 -0.0031 -0.7277
 1012YOPC   C2B13964  18.350  16.233   6.418 -0.0271  0.0141 -0.1164
 1012YOPC   D3B13965  18.198  15.870   6.411  0.1016  0.0496 -0.2960
 1012YOPC   C4B13966  18.058  15.464   6.286  0.0798 -0.1228 -0.5226
 1013YOPC   NC313967  15.132   9.196   5.348 -0.2166 -0.1771  0.0961
 1013YOPC   PO413968  15.507   9.016   5.160  0.5175  0.0150  0.1373
 1013YOPC   GL113969  15.503   8.810   5.589  0.0912 -0.1166  0.3103
 1013YOPC   GL213970  15.725   8.751   5.809 -0.3572  0.2369  0.2455
 1013YOPC   C1A13971  15.196   8.566   5.848  0.2216  0.0225 -0.0027
 1013YOPC   D2A13972  14.873   8.393   6.239 -0.0827  0.2457 -0.0151
 1013YOPC   C3A13973  14.806   8.011   6.386  0.0175  0.0801 -0.2242
 1013YOPC   C4A13974  14.426   7.798   6.390 -0.3090 -0.1301 -0.1415
 1013YOPC   C1B13975  15.836   8.874   6.280  0.0771  0.2718  0.1055
 1013YOPC   C2B13976  15.909   8.680   6.765 -0.0390  0.2239  0.1498
 1013YOPC   D3B13977  15.628   8.725   7.168 -0.1769 -0.1382 -0.0232
 1013YOPC   C4B13978  15.227   8.723   7.498 -0.4703  0.3378 -0.2687
 1014YOPC   NC313979   0.105  11.984   4.969 -0.1217  0.0936  0.3030
 1014YOPC   PO413980  -0.087  11.573   4.924 -0.4691  0.0313 -0.3772
 1014YOPC   GL113981   0.314  11.546   5.213 -0.2005 -0.1077 -0.2342
 1014YOPC   GL213982   0.617  11.654   5.347  0.1729 -0.2980  0.0165
 1014YOPC   C1A13983   0.408  11.258   5.635 -0.0226  0.0526 -0.0096
 1014YOPC   D2A13984   0.517  11.100   5.992 -0.2304 -0.1967  0.0879
 1014YOPC   C3A13985   0.608  11.137   6.444 -0.2373 -0.3208  0.2045
 1014YOPC   C4A13986   0.788  11.231   6.767 -0.0250  0.0133  0.0831
 1014YOPC   C1B13987   0.803  11.704   5.629 -0.0312 -0.0229  0.2021
 1014YOPC   C2B13988   0.640  11.718   5.893  0.0461 -0.1417 -0.3518
 1014YOPC   D3B13989   0.689  11.641   6.361  0.1967 -0.1112  0.0308
 1014YOPC   C4B13990   0.385  11.631   6.695 -0.1171  0.1806  0.0332
 1015YOPC   NC313991   3.337  12.003   5.806  0.0968  0.3687 -0.1763
 1015YOPC   PO413992   3.232  11.532   5.619  0.2769  0.1393 -0.1660
 1015YOPC   GL113993   2.847  11.686   5.610  0.3139 -0.0516  0.1353
 1015YOPC   GL213994   2.661  11.492   5.579  0.1500  0.2588  0.1496
 1015YOPC   C1A13995   2.513  11.864   6.004  0.2123 -0.1312  0.0359
 1015YOPC   D2A13996   2.183  11.987   6.346 -0.1359  0.2085  0.1375
 1015YOPC   C3A13997   2.046  11.679   6.724 -0.2223 -0.0471 -0.0284
 1015YOPC   C4A13998   2.103  11.487   7.034  0.1067 -0.1572  0.1925
 1015YOPC   C1B13999   2.302  11.331   5.787 -0.0011 -0.0997 -0.2071
 1015YOPC   C2B14000   1.924  11.162   6.007 -0.3180  0.2126  0.2139
 1015YOPC   D3B14001   1.712  11.247   6.397  0.2812 -0.1760  0.2299
 1015YOPC   C4B14002   1.324  11.278   6.713 -0.2711 -0.1854  0.2264
 1016YOPC   NC314003   4.801  14.913   4.388  0.0960  0.0915  0.3082
 1016YOPC   PO414004   4.738  15.038   4.721  0.1174 -0.1552  0.0130
 1016YOPC   GL114005   4.752  15.025   5.132 -0.3788 -0.1710  0.0021
 1016YOPC   GL214006   4.579  14.741   5.379 -0.1262 -0.1098  0.0434
 1016YOPC   C1A14007   5.072  15.028   5.407 -0.0277 -0.3974  0.0835
 1016YOPC   D2A14008   5.297  14.750   5.595 -0.2703  0.2316 -0.2363
 1016YOPC   C3A14009   5.446  14.972   5.872 -0.3455 -0.2957  0.0882
 1016YOPC   C4A14010   5.730  15.034   6.161 -0.0046  0.2650 -0.1090
 1016YOPC   C1B14011   4.475  14.804   5.904  0.2312 -0.2317 -0.1695
 1016YOPC   C2B14012   4.646  14.818   6.268  0.0986  0.0867 -0.0214
 1016YOPC   D3B14013   4.747  14.390   6.322  0.0456 -0.0355 -0.0075
 1016YOPC   C4B14014   4.969  14.112   6.513  0.2418 -0.2768 -0.0183
 1017YOPC   NC314015   2.426   0.049   4.862  0.1162  0.1923  0.1100
 1017YOPC   PO414016   2.511   0.450   5.059 -0.0108  0.5196  0.0557
 1017YOPC   GL114017   2.828   0.443   5.364  0.3141 -0.1026  0.0326
 1017YOPC   GL214018   3.025   0.690   5.347  0.1237 -0.1934 -0.0476
 1017YOPC   C1A14019   2.992   0.219   5.783 -0.4102 -0.0276  0.0049
 1017YOPC   D2A14020   3.171   0.333   6.201 -0.0447  0.0261 -0.0575
 1017YOPC   C3A14021   3.328   0.795   6.341  0.0280 -0.1771  0.0160
 1017YOPC   C4A14022   3.822   0.799   6.588 -0.1612  0.3063  0.1135
 1017YOPC   C1B14023   2.798   0.687   5.799  0.0526  0.0507  0.0436
 1017YOPC   C2B14024   2.598   0.528   6.159 -0.0970 -0.2403  0.1943
 1017YOPC   D3B14025   2.777   0.567   6.484 -0.1614 -0.1860  0.1911
 1017YOPC   C4B14026   3.009   0.803   6.735  0.2563  0.1870 -0.1620
 1018YOPC   NC314027   8.252   8.870   4.693  0.1606  0.0322 -0.1089
 1018YOPC   PO414028   8.094   8.564   4.881  0.1871 -0.1496 -0.0925
 1018YOPC   GL114029   7.789   8.709   5.225 -0.2195  0.0410  0.1317
 1018YOPC   GL214030   7.459   8.556   5.350 -0.0649 -0.1577  0.0325
 1018YOPC   C1A14031   7.809   8.968   5.657 -0.3774  0.1722 -0.0243
 1018YOPC   D2A14032   8.043   8.919   6.126 -0.2434 -0.2815  0.0157
 1018YOPC   C3A14033   7.836   8.930   6.457 -0.3714  0.1535  0.2202
 1018YOPC   C4A14034   7.647   8.966   6.879 -0.1823 -0.2025 -0.0206
 1018YOPC   C1B14035   7.074   8.567   5.568  0.1458  0.3149 -0.3235
 1018YOPC   C2B14036   6.706   8.685   5.819  0.2789  0.0199 -0.0586
 1018YOPC   D3B14037   6.430   8.446   5.904  0.0752 -0.2280 -0.4115
 1018YOPC   C4B14038   6.342   8.047   5.708 -0.1722 -0.0348  0.0013
 1019YOPC   NC314039  13.566  16.526   5.951  0.3065  0.0853 -0.0967
 1019YOPC   PO414040  13.929  16.299   6.083 -0.4222  0.2282  0.1007
 1019YOPC   GL114041  14.096  16.460   6.474  0.1374  0.2799  0.2187
 1019YOPC   GL214042  14.454  16.361   6.636  0.3444  0.1429 -0.2516
 1019YOPC   C1A14043  14.042  16.725   6.752  0.1471 -0.4137 -0.0514
 1019YOPC   D2A14044  13.921  17.133   6.926 -0.3678 -0.4155  0.1624
 1019YOPC   C3A14045  13.942  17.294   7.396  0.1741 -0.2936 -0.4002
 1019YOPC   C4A14046  14.134  17.454   7.823 -0.3402 -0.0818 -0.0318
 1019YOPC   C1B14047  14.588  16.399   7.095 -0.0881 -0.2739 -0.2681
 1019YOPC   C2B14048  14.314  16.282   7.431 -0.0436  0.0024  0.0294
 1019YOPC   D3B14049  13.929  16.102   7.438  0.1180 -0.0823  0.1201
 1019YOPC   C4B14050  13.639  15.908   7.540  0.0599 -0.5206  0.1709
 1020YOPC   NC314051  16.014  15.414   6.051 -0.0117 -0.2321 -0.0459
 1020YOPC   PO414052  16.295  15.101   6.229  0.1669  0.1207 -0.2849
 1020YOPC   GL114053  16.473  15.319   6.585 -0.0891 -0.1822  0.0599
 1020YOPC   GL214054  16.370  15.123   6.788 -0.2299 -0.2197 -0.1689
 1020YOPC   C1A14055  16.845  15.224   6.860  0.2885  0.0013 -0.2167
 1020YOPC   D2A14056  16.907  15.257   7.200 -0.2271  0.0982  0.1231
 1020YOPC   C3A14057  17.025  15.078   7.617  0.1211 -0.0766 -0.0468
 1020YOPC   C4A14058  17.042  14.994   8.105 -0.3580  0.0359  0.1345
 1020YOPC   C1B14059  16.402  15.219   7.113  0.1538  0.0770  0.3138
 1020YOPC   C2B14060  16.496  15.303   7.551  0.5671  0.2460 -0.1278
 1020YOPC   D3B14061  16.538  15.197   8.086 -0.0714 -0.2965 -0.1266
 1020YOPC   C4B14062  16.552  15.053   8.497 -0.3390 -0.0586 -0.0119
 1021YOPC   NC314063  16.136   7.457   5.498  0.1545  0.2154  0.0207
 1021YOPC   PO414064  16.416   7.897   5.572  0.0043 -0.0463 -0.4402
 1021YOPC   GL114065  16.241   7.980   6.012 -0.1156 -0.3369  0.2605
 1021YOPC   GL214066  16.531   7.885   6.151 -0.1286  0.4142 -0.1712
 1021YOPC   C1A14067  15.777   7.916   6.254  0.0164 -0.1507  0.1634
 1021YOPC   D2A14068  15.684   7.936   6.748  0.2154  0.2504 -0.0454
 1021YOPC   C3A14069  15.714   8.225   7.088 -0.1900 -0.4385  0.0903
 1021YOPC   C4A14070  15.463   8.306   7.468 -0.2606 -0.1623  0.1002
 1021YOPC   C1B14071  16.247   7.748   6.495 -0.0749  0.1285 -0.0608
 1021YOPC   C2B14072  16.089   7.692   6.882  0.0955  0.1755  0.0568
 1021YOPC   D3B14073  16.275   7.921   7.198 -0.0849 -0.1737 -0.1890
 1021YOPC   C4B14074  16.439   8.111   7.645 -0.1025 -0.0186 -0.2001
 1022YOPC   NC314075  14.379  16.870   6.207  0.0436  0.2972 -0.3329
 1022YOPC   PO414076  14.004  16.757   5.892  0.1898  0.2363  0.0072
 1022YOPC   GL114077  13.916  16.952   6.283  0.2376  0.0969  0.2219
 1022YOPC   GL214078  13.632  16.746   6.423 -0.0265 -0.1048  0.2741
 1022YOPC   C1A14079  13.802  17.289   6.478 -0.1195 -0.0879 -0.4550
 1022YOPC   D2A14080  13.411  17.328   6.679  0.0141  0.2734 -0.0811
 1022YOPC   C3A14081  13.197  17.008   6.852 -0.0562  0.0291  0.1278
 1022YOPC   C4A14082  12.752  16.830   6.980 -0.2696  0.2090 -0.3954
 1022YOPC   C1B14083  13.585  16.709   6.896  0.0764 -0.0540  0.0790
 1022YOPC   C2B14084  13.420  16.923   7.269  0.1999  0.0241 -0.0764
 1022YOPC   D3B14085  13.023  17.054   7.339  0.0540 -0.2117 -0.4707
 1022YOPC   C4B14086  12.526  16.888   7.588  0.0118 -0.3893  0.1810
 1023YOPC   NC314087   8.324   8.581   5.311  0.1131  0.0411  0.1439
 1023YOPC   PO414088   8.590   8.198   5.191 -0.2220  0.2297 -0.0676
 1023YOPC   GL114089   8.411   7.996   5.426 -0.0439 -0.1227 -0.0304
 1023YOPC   GL214090   8.560   8.149   5.702  0.2002 -0.1230  0.1175
 1023YOPC   C1A14091   8.519   7.622   5.734  0.1031 -0.0403 -0.0157
 1023YOPC   D2A14092   8.672   7.423   6.083 -0.0509 -0.1250 -0.2414
 1023YOPC   C3A14093   8.856   7.763   6.158  0.0220  0.0344 -0.2833
 1023YOPC   C4A14094   9.165   8.124   6.034  0.0367 -0.1393  0.0910
 1023YOPC   C1B14095   8.302   8.042   5.987 -0.2151 -0.3398 -0.1752
 1023YOPC   C2B14096   7.945   8.184   6.226  0.0164  0.1019 -0.2737
 1023YOPC   D3B14097   7.938   7.871   6.640  0.2003  0.0696  0.2607
 1023YOPC   C4B14098   7.668   7.677   6.876 -0.0232  0.1031 -0.1123
 1024YOPC   NC314099   1.039  18.926   5.282  0.2615 -0.0096 -0.0002
 1024YOPC   PO414100   1.123  18.585   5.384  0.0361 -0.1841 -0.0156
 1024YOPC   GL114101   1.081  18.479   5.832 -0.0145  0.0354  0.0763
 1024YOPC   GL214102   0.992  18.649   5.985  0.0124  0.1784 -0.2491
 1024YOPC   C1A14103   1.280  18.560   6.403  0.0997 -0.2310  0.0033
 1024YOPC   D2A14104   1.305  18.703   6.789  0.0611  0.0839  0.0250
 1024YOPC   C3A14105   1.010  18.942   6.946  0.2557  0.0484  0.1919
 1024YOPC   C4A14106   0.951  19.199   7.308  0.1487  0.0896 -0.0298
 1024YOPC   C1B14107   1.116  18.982   6.295  0.1021  0.0472 -0.3914
 1024YOPC   C2B14108   0.960  19.338   6.628  0.2436 -0.2286  0.0848
 1024YOPC   D3B14109   1.064  19.565   6.925 -0.1340  0.0365 -0.2064
 1024YOPC   C4B14110   1.289  19.675   7.262  0.0021  0.3408  0.0306
 1025YOPC   NC314111  13.424   1.843   5.069 -0.0747  0.1465  0.2107
 1025YOPC   PO414112  13.194   1.632   5.315  0.0041  0.0989 -0.2293
 1025YOPC   GL114113  13.284   1.543   5.815  0.0636 -0.3268 -0.3231
 1025YOPC   GL214114  13.512   1.335   6.020 -0.4209 -0.0439 -0.3176
 1025YOPC   C1A14115  13.042   1.429   6.197  0.3727 -0.1899  0.0812
 1025YOPC   D2A14116  12.931   1.458   6.563  0.3612 -0.1104  0.1963
 1025YOPC   C3A14117  13.024   1.640   7.022 -0.0746 -0.1420  0.1999
 1025YOPC   C4A14118  12.749   1.565   7.313  0.2639 -0.0228  0.2120
 1025YOPC   C1B14119  13.452   1.254   6.413 -0.0422  0.0127  0.0411
 1025YOPC   C2B14120  13.417   1.368   6.799 -0.0110 -0.0767 -0.1455
 1025YOPC   D3B14121  13.588   1.601   7.096 -0.0925  0.2706 -0.0516
 1025YOPC   C4B14122  13.541   1.818   7.439  0.2456  0.0795 -0.1567
 1026YOPC   NC314123   1.161  10.996   4.725  0.1707  0.2346 -0.0699
 1026YOPC   PO414124   1.497  11.165   4.999  0.1979 -0.3485 -0.1326
 1026YOPC   GL114125   1.259  11.287   5.486 -0.1291  0.0075 -0.1075
 1026YOPC   GL214126   1.245  11.734   5.425 -0.2481 -0.0286 -0.2110
 1026YOPC   C1A14127   0.976  11.313   5.905  0.3348  0.0009 -0.0342
 1026YOPC   D2A14128   1.119  11.331   6.271  0.1795  0.1176 -0.0407
 1026YOPC   C3A14129   1.200  11.778   6.284 -0.1255 -0.2046 -0.2261
 1026YOPC   C4A14130   1.331  12.203   6.377 -0.0622 -0.0842  0.2373
 1026YOPC   C1B14131   1.462  11.608   5.901 -0.4419 -0.0944  0.0326
 1026YOPC   C2B14132   1.680  11.748   6.277 -0.2493  0.1584  0.0817
 1026YOPC   D3B14133   1.494  11.806   6.648 -0.1966 -0.3717 -0.1628
 1026YOPC   C4B14134   1.437  12.203   6.910  0.0128  0.2190  0.3612
 1027YOPC   NC314135  13.239  15.214   6.117 -0.2003  0.2572 -0.1708
 1027YOPC   PO414136  13.491  15.587   6.183 -0.0074 -0.1232  0.0281
 1027YOPC   GL114137  13.555  15.827   6.430 -0.0979  0.3004 -0.2568
 1027YOPC   GL214138  13.648  15.665   6.675  0.0057 -0.4734 -0.0975
 1027YOPC   C1A14139  13.675  16.226   6.639 -0.0648  0.3291  0.1557
 1027YOPC   D2A14140  13.952  16.318   6.949 -0.4948  0.1629 -0.3694
 1027YOPC   C3A14141  13.946  16.598   7.327  0.0756 -0.3184  0.2776
 1027YOPC   C4A14142  13.722  16.607   7.791 -0.0650  0.2319  0.1170
 1027YOPC   C1B14143  13.606  15.900   7.044 -0.0200 -0.2970  0.3860
 1027YOPC   C2B14144  13.532  16.291   7.244  0.2202 -0.0353  0.0251
 1027YOPC   D3B14145  13.380  16.300   7.652  0.0129 -0.3083 -0.3977
 1027YOPC   C4B14146  13.147  16.272   7.930 -0.0070 -0.0477  0.2480
 1028YOPC   NC314147  13.733   5.431   5.079  0.0961  0.0429 -0.1007
 1028YOPC   PO414148  13.663   4.973   4.896 -0.1169  0.1035  0.0288
 1028YOPC   GL114149  13.476   4.932   5.379  0.2520  0.3388 -0.1179
 1028YOPC   GL214150  13.544   5.293   5.479 -0.1217  0.0151 -0.0480
 1028YOPC   C1A14151  13.413   4.782   5.763 -0.0707  0.0613  0.0699
 1028YOPC   D2A14152  13.646   4.507   6.013 -0.1187 -0.2719 -0.3451
 1028YOPC   C3A14153  13.596   4.016   5.957  0.1000  0.0971  0.0706
 1028YOPC   C4A14154  13.337   3.692   6.088 -0.0576 -0.0246  0.2603
 1028YOPC   C1B14155  13.619   5.263   5.834 -0.3919  0.1640  0.1246
 1028YOPC   C2B14156  13.627   5.043   6.190  0.1547  0.1303  0.0803
 1028YOPC   D3B14157  13.846   5.330   6.544  0.3092 -0.3431 -0.2633
 1028YOPC   C4B14158  13.742   5.670   6.807 -0.1515 -0.0024 -0.1859
 1029YOPC   NC314159   3.675   3.546   5.024 -0.4100  0.0229 -0.1095
 1029YOPC   PO414160   3.763   3.138   5.156  0.0341  0.2794 -0.0870
 1029YOPC   GL114161   3.932   3.168   5.553 -0.4115 -0.1250 -0.2554
 1029YOPC   GL214162   4.255   3.356   5.656 -0.1061 -0.5611 -0.0053
 1029YOPC   C1A14163   3.907   3.262   6.027 -0.1141 -0.0099 -0.4387
 1029YOPC   D2A14164   3.765   3.257   6.506 -0.0347 -0.0092 -0.0175
 1029YOPC   C3A14165   3.381   3.254   6.595 -0.1031 -0.0379 -0.0717
 1029YOPC   C4A14166   3.181   2.899   6.765 -0.0503 -0.2462 -0.0734
 1029YOPC   C1B14167   4.404   3.401   5.949  0.1958 -0.1718  0.0677
 1029YOPC   C2B14168   4.315   3.233   6.406  0.1271  0.1203 -0.1711
 1029YOPC   D3B14169   4.677   3.072   6.692 -0.1027  0.1237  0.1065
 1029YOPC   C4B14170   5.072   3.235   6.824  0.1606  0.1780 -0.0338
 1030YOPC   NC314171  15.553  18.450   5.716  0.2599  0.1814 -0.2853
 1030YOPC   PO414172  15.502  18.074   5.936  0.1221  0.2190 -0.2355
 1030YOPC   GL114173  15.615  17.926   6.259 -0.1864  0.1057 -0.0243
 1030YOPC   GL214174  15.258  17.652   6.425 -0.0203  0.0330  0.3435
 1030YOPC   C1A14175  15.543  18.034   6.658  0.0620  0.0536 -0.1011
 1030YOPC   D2A14176  15.633  17.862   7.097  0.2998  0.1836 -0.0802
 1030YOPC   C3A14177  15.382  17.825   7.490 -0.1267  0.3090 -0.0932
 1030YOPC   C4A14178  15.537  17.940   7.894  0.0238 -0.3605  0.2787
 1030YOPC   C1B14179  15.393  17.460   6.807  0.1444 -0.0882 -0.0158
 1030YOPC   C2B14180  15.400  17.392   7.279 -0.1442  0.2149 -0.2202
 1030YOPC   D3B14181  15.407  17.336   7.663  0.1747  0.2764 -0.1126
 1030YOPC   C4B14182  15.232  17.293   8.058 -0.1075  0.2673 -0.0263
 1031YOPC   NC314183   1.627  11.628   5.162  0.0003  0.3127 -0.3880
 1031YOPC   PO414184   2.095  11.649   5.126  0.3359  0.0227 -0.1627
 1031YOPC   GL114185   2.206  11.751   5.495  0.2841  0.1540  0.4164
 1031YOPC   GL214186   2.359  12.066   5.523 -0.0169 -0.2784  0.0163
 1031YOPC   C1A14187   2.015  11.757   5.895  0.3384 -0.4445 -0.2979
 1031YOPC   D2A14188   2.213  11.532   6.189 -0.0764 -0.1350  0.1172
 1031YOPC   C3A14189   2.500  11.698   6.500 -0.4062 -0.3418  0.1338
 1031YOPC   C4A14190   2.540  11.776   6.901  0.3777  0.1627 -0.3732
 1031YOPC   C1B14191   2.297  12.412   5.882 -0.1346  0.2850  0.1077
 1031YOPC   C2B14192   2.439  12.390   6.268  0.2682 -0.3306  0.1161
 1031YOPC   D3B14193   2.786  12.205   6.274 -0.2355 -0.1136  0.1296
 1031YOPC   C4B14194   3.157  12.068   6.463 -0.0518  0.1776  0.0263
 1032YOPC   NC314195  15.250  11.548   6.126 -0.3758  0.0923 -0.1450
 1032YOPC   PO414196  15.404  11.998   6.190 -0.0848  0.4527  0.1085
 1032YOPC   GL114197  15.006  12.064   6.394 -0.1793 -0.0439 -0.2737
 1032YOPC   GL214198  14.838  11.720   6.367 -0.0558  0.2978 -0.2149
 1032YOPC   C1A14199  15.016  12.094   6.841  0.0723  0.3167 -0.0205
 1032YOPC   D2A14200  15.280  11.849   7.132 -0.0427 -0.0398  0.0117
 1032YOPC   C3A14201  15.237  12.019   7.430 -0.1450 -0.2730  0.0776
 1032YOPC   C4A14202  15.010  12.101   7.859 -0.1022 -0.0279 -0.0306
 1032YOPC   C1B14203  14.909  11.583   6.804  0.0205  0.2633 -0.1647
 1032YOPC   C2B14204  14.958  11.502   7.325  0.3659  0.1105 -0.3499
 1032YOPC   D3B14205  14.674  11.652   7.740 -0.2130 -0.4837  0.1523
 1032YOPC   C4B14206  14.375  11.610   7.946  0.1849  0.1717 -0.0113
 1033YOPC   NC314207  11.211  10.980   5.993  0.2826  0.1843 -0.1626
 1033YOPC   PO414208  11.004  10.528   5.827  0.3319  0.0778  0.3431
 1033YOPC   GL114209  10.880  10.186   6.128 -0.0700  0.0574 -0.0825
 1033YOPC   GL214210  10.640   9.923   6.096  0.0617  0.0977  0.1059
 1033YOPC   C1A14211  10.797  10.055   6.574  0.0202  0.0472  0.3129
 1033YOPC   D2A14212  10.720   9.645   6.849  0.2084  0.1253  0.0953
 1033YOPC   C3A14213  10.749   9.474   7.109  0.2528  0.0828  0.3873
 1033YOPC   C4A14214  10.574   9.342   7.517  0.4650 -0.0256 -0.2107
 1033YOPC   C1B14215  10.498   9.642   6.313  0.2121 -0.1684  0.2366
 1033YOPC   C2B14216  10.582   9.185   6.484  0.2257  0.2064 -0.2731
 1033YOPC   D3B14217  10.562   9.020   6.892 -0.0460  0.2821  0.0575
 1033YOPC   C4B14218  10.441   8.627   7.018  0.3720  0.0522  0.1970
 1034YOPC   NC314219  11.446   3.419   5.196  0.1517  0.0679 -0.0031
 1034YOPC   PO414220  11.834   3.420   5.312  0.1780  0.1734  0.1715
 1034YOPC   GL114221  11.891   3.558   5.717  0.2821  0.6496 -0.1277
 1034YOPC   GL214222  11.608   3.900   5.921 -0.1660 -0.1397 -0.1008
 1034YOPC   C1A14223  11.609   3.430   6.055 -0.3771  0.2729  0.0057
 1034YOPC   D2A14224  11.063   3.316   5.997  0.0211 -0.1039  0.1171
 1034YOPC   C3A14225  10.864   3.137   6.304 -0.1351  0.0124 -0.1106
 1034YOPC   C4A14226  10.888   2.864   6.699  0.1159 -0.0461 -0.0975
 1034YOPC   C1B14227  11.461   4.036   6.330  0.2206  0.0336 -0.1154
 1034YOPC   C2B14228  11.536   3.976   6.778 -0.0033 -0.1960 -0.0463
 1034YOPC   D3B14229  11.784   4.059   7.153  0.0938  0.0918 -0.0521
 1034YOPC   C4B14230  11.986   3.761   7.562  0.1596 -0.0093 -0.0520
 1035YOPC   NC314231  18.481   1.378   5.343 -0.0634 -0.1622 -0.0420
 1035YOPC   PO414232  18.380   1.675   5.606  0.0358  0.0763 -0.2194
 1035YOPC   GL114233  18.384   1.657   6.022 -0.1099 -0.1617  0.1225
 1035YOPC   GL214234  18.337   1.303   6.235  0.2007 -0.1756  0.1252
 1035YOPC   C1A14235  18.373   1.775   6.472 -0.0085 -0.0927 -0.0584
 1035YOPC   D2A14236  18.309   1.639   6.768 -0.0878  0.0139  0.0162
 1035YOPC   C3A14237  18.506   1.815   7.205  0.1124  0.1167 -0.0748
 1035YOPC   C4A14238  18.475   1.614   7.726 -0.4879  0.3688 -0.0662
 1035YOPC   C1B14239  18.476   1.185   6.734  0.0391 -0.2908 -0.3008
 1035YOPC   C2B14240  18.524   1.032   7.074  0.0826 -0.1336 -0.1578
 1035YOPC   D3B14241  18.341   1.305   7.329  0.1632  0.0921  0.2578
 1035YOPC   C4B14242  18.038   1.660   7.590  0.2778  0.0044 -0.1637
 1036YOPC   NC314243  10.509  13.674   5.675  0.0441 -0.2438  0.0023
 1036YOPC   PO414244  10.225  13.958   5.777  0.1564 -0.2066 -0.0757
 1036YOPC   GL114245  10.264  14.185   6.162  0.2141  0.1241  0.0390
 1036YOPC   GL214246   9.952  14.179   6.233 -0.1908 -0.0583 -0.1204
 1036YOPC   C1A14247  10.324  14.202   6.693  0.2410 -0.0641  0.1701
 1036YOPC   D2A14248  10.596  14.163   7.062  0.3080  0.2128  0.2001
 1036YOPC   C3A14249  10.566  13.967   7.416 -0.0715  0.4902 -0.1448
 1036YOPC   C4A14250  10.477  14.162   7.784 -0.1460  0.2482 -0.2283
 1036YOPC   C1B14251   9.857  14.308   6.634  0.0566 -0.1910  0.0239
 1036YOPC   C2B14252   9.846  14.321   6.997 -0.2226  0.0359  0.0156
 1036YOPC   D3B14253   9.867  14.605   7.259 -0.2464  0.1611 -0.3196
 1036YOPC   C4B14254   9.900  14.529   7.693  0.1481 -0.1427 -0.1765
 1037YOPC   NC314255   7.491   5.528   5.385 -0.3518  0.2055  0.2432
 1037YOPC   PO414256   7.459   5.144   5.508 -0.1544 -0.1722 -0.0913
 1037YOPC   GL114257   7.318   5.029   5.831  0.2462 -0.3719 -0.1273
 1037YOPC   GL214258   7.095   5.192   5.837  0.0038  0.1061  0.3229
 1037YOPC   C1A14259   7.417   4.888   6.234  0.3040  0.0998 -0.0884
 1037YOPC   D2A14260   7.752   4.739   6.449 -0.0127  0.3124  0.0599
 1037YOPC   C3A14261   8.109   4.640   6.088 -0.0548  0.1658 -0.4277
 1037YOPC   C4A14262   8.366   5.067   5.836 -0.0726  0.0115 -0.1179
 1037YOPC   C1B14263   6.980   5.128   6.266  0.0999  0.1438  0.1183
 1037YOPC   C2B14264   7.035   4.978   6.691 -0.1546 -0.1381  0.2980
 1037YOPC   D3B14265   6.779   4.550   6.839  0.2607 -0.3173 -0.1291
 1037YOPC   C4B14266   6.834   4.099   6.891 -0.2446 -0.1546 -0.2164
 1038YOPC   NC314267   8.443  13.134   5.778 -0.1345 -0.3662 -0.1101
 1038YOPC   PO414268   8.737  13.028   5.698 -0.1434 -0.1533  0.3212
 1038YOPC   GL114269   8.756  13.253   6.162 -0.1279  0.0641 -0.1510
 1038YOPC   GL214270   8.610  13.531   6.220 -0.1887 -0.0345  0.0386
 1038YOPC   C1A14271   9.022  13.128   6.541 -0.0826 -0.1213  0.0087
 1038YOPC   D2A14272   9.091  12.746   6.940  0.1828 -0.0051 -0.3409
 1038YOPC   C3A14273   9.312  12.500   7.059 -0.2632 -0.1360  0.3325
 1038YOPC   C4A14274   9.520  12.136   7.366  0.2204  0.1624 -0.1460
 1038YOPC   C1B14275   8.523  13.297   6.591  0.3368  0.0977  0.2477
 1038YOPC   C2B14276   8.243  13.151   6.876 -0.5309  0.0442 -0.2566
 1038YOPC   D3B14277   8.317  13.015   7.277  0.1539 -0.2036  0.4549
 1038YOPC   C4B14278   8.301  12.844   7.742 -0.0079 -0.2689 -0.3394
 1039YOPC   NC314279   2.139   2.631   5.173  0.1984  0.1423  0.0333
 1039YOPC   PO414280   2.415   2.862   5.390 -0.0416  0.1759  0.1362
 1039YOPC   GL114281   2.495   3.022   5.820  0.2265  0.3078 -0.1132
 1039YOPC   GL214282   2.443   3.297   5.812  0.1912  0.3173  0.0066
 1039YOPC   C1A14283   2.447   3.137   6.299  0.3146  0.2619  0.0065
 1039YOPC   D2A14284   2.594   3.061   6.671  0.2292 -0.1892  0.1613
 1039YOPC   C3A14285   2.878   3.387   6.683  0.2955  0.3569  0.0768
 1039YOPC   C4A14286   3.085   3.541   6.971 -0.5420 -0.1513 -0.1809
 1039YOPC   C1B14287   2.117   3.441   6.000  0.1048 -0.0733  0.0384
 1039YOPC   C2B14288   1.962   3.158   6.302  0.0317  0.1504 -0.1350
 1039YOPC   D3B14289   2.082   3.024   6.660  0.0634 -0.1505 -0.0169
 1039YOPC   C4B14290   1.932   2.728   6.978 -0.0840 -0.0442 -0.0499
 1040YOPC   NC314291   3.865   0.377   4.858 -0.0881 -0.2890  0.1511
 1040YOPC   PO414292   4.285   0.402   4.963 -0.2615  0.0899  0.0711
 1040YOPC   GL114293   4.291   0.584   5.389  0.1083  0.0656  0.1096
 1040YOPC   GL214294   4.613   0.709   5.568 -0.1107 -0.1816 -0.0406
 1040YOPC   C1A14295   4.020   0.402   5.743 -0.0431 -0.2258 -0.2703
 1040YOPC   D2A14296   4.094   0.218   6.054  0.1511  0.1190  0.0934
 1040YOPC   C3A14297   4.485   0.179   5.963  0.1519  0.1968  0.1897
 1040YOPC   C4A14298   4.927   0.112   6.048 -0.1440 -0.0917  0.1913
 1040YOPC   C1B14299   4.699   0.590   6.044 -0.0000 -0.0760  0.1184
 1040YOPC   C2B14300   4.751   0.403   6.378  0.1799  0.0160 -0.0854
 1040YOPC   D3B14301   4.670   0.304   6.793 -0.1758 -0.0450  0.0558
 1040YOPC   C4B14302   4.220   0.367   6.885 -0.0577  0.4253 -0.2319
 1041YOPC   NC314303  15.580   9.285   5.597 -0.2833  0.1963 -0.0693
 1041YOPC   PO414304  15.291   9.521   5.757  0.0613 -0.4619  0.5307
 1041YOPC   GL114305  15.123   9.530   6.123 -0.1550 -0.0984 -0.0990
 1041YOPC   GL214306  15.218   9.772   6.373  0.3656 -0.1748  0.2322
 1041YOPC   C1A14307  14.930   9.380   6.513  0.0289 -0.0638 -0.0193
 1041YOPC   D2A14308  14.987   9.406   6.845 -0.1148 -0.3145 -0.0395
 1041YOPC   C3A14309  14.758   9.461   7.256  0.1325  0.0152 -0.2829
 1041YOPC   C4A14310  14.419   9.538   7.470  0.0229  0.1242 -0.1714
 1041YOPC   C1B14311  15.411   9.350   6.473  0.1540  0.0386 -0.0471
 1041YOPC   C2B14312  15.736   9.148   6.719  0.0346  0.0416  0.0588
 1041YOPC   D3B14313  16.123   9.108   6.942  0.6197 -0.0556  0.1207
 1041YOPC   C4B14314  16.464   9.310   7.186 -0.3164 -0.1770 -0.3131
 1042YOPC   NC314315   4.979   3.493   4.721 -0.0394 -0.0649  0.0311
 1042YOPC   PO414316   5.220   3.085   4.833 -0.2804 -0.1956  0.0262
 1042YOPC   GL114317   5.038   3.125   5.338  0.0047 -0.1113 -0.0582
 1042YOPC   GL214318   4.697   3.007   5.431 -0.0825 -0.1977  0.0251
 1042YOPC   C1A14319   4.945   3.300   5.732 -0.1822 -0.0444  0.0512
 1042YOPC   D2A14320   4.846   3.713   5.918  0.0648 -0.2009 -0.0517
 1042YOPC   C3A14321   4.542   3.729   6.263  0.2182 -0.2422  0.1168
 1042YOPC   C4A14322   4.591   3.583   6.712  0.1206 -0.0173  0.1824
 1042YOPC   C1B14323   4.797   2.812   5.802 -0.2701  0.3002  0.0229
 1042YOPC   C2B14324   5.162   2.948   5.987 -0.2837  0.0511 -0.0643
 1042YOPC   D3B14325   5.107   2.823   6.495  0.1089 -0.0645  0.0719
 1042YOPC   C4B14326   5.151   2.327   6.601 -0.2203 -0.1455 -0.1187
 1043YOPC   NC314327   7.397  12.545   5.982 -0.4202 -0.1628  0.1943
 1043YOPC   PO414328   7.822  12.365   5.832 -0.1279 -0.1070 -0.0592
 1043YOPC   GL114329   7.934  12.521   6.229  0.0326  0.0196  0.1192
 1043YOPC   GL214330   7.771  12.776   6.215  0.1402  0.3649  0.1565
 1043YOPC   C1A14331   7.776  12.374   6.618 -0.0783 -0.3435  0.1290
 1043YOPC   D2A14332   7.662  12.257   6.998  0.1590 -0.2401 -0.2279
 1043YOPC   C3A14333   7.363  12.522   7.350  0.4159  0.0677 -0.1147
 1043YOPC   C4A14334   7.376  12.864   7.653 -0.2464 -0.0878  0.0001
 1043YOPC   C1B14335   7.840  12.895   6.645 -0.0910 -0.0418 -0.1127
 1043YOPC   C2B14336   8.038  12.672   6.983 -0.0247  0.2631  0.1192
 1043YOPC   D3B14337   8.421  12.529   7.276 -0.3563 -0.1742  0.0496
 1043YOPC   C4B14338   8.766  12.736   7.419 -0.2107 -0.1254  0.2626
 1044YOPC   NC314339  11.642   2.922   5.211  0.1270  0.4345 -0.1567
 1044YOPC   PO414340  11.152   2.904   5.351 -0.0802  0.0346 -0.2502
 1044YOPC   GL114341  10.993   2.777   5.762 -0.0206  0.0862  0.1728
 1044YOPC   GL214342  10.757   2.572   5.863 -0.0234  0.1824  0.2420
 1044YOPC   C1A14343  11.192   2.833   6.046  0.0093  0.0003 -0.0791
 1044YOPC   D2A14344  11.415   3.010   6.337  0.1234  0.1401  0.1506
 1044YOPC   C3A14345  11.309   3.332   6.492  0.0279 -0.0489 -0.0693
 1044YOPC   C4A14346  11.162   3.696   6.772  0.3014  0.1953  0.3900
 1044YOPC   C1B14347  10.806   2.593   6.290  0.1103 -0.0397 -0.1467
 1044YOPC   C2B14348  10.922   2.394   6.724 -0.0045  0.0344  0.4097
 1044YOPC   D3B14349  10.747   2.585   7.059  0.2533  0.2167 -0.0122
 1044YOPC   C4B14350  10.692   2.781   7.558 -0.0422 -0.0668  0.0057
 1045YOPC   NC314351  13.293  16.865   5.210  0.0515  0.0190  0.0430
 1045YOPC   PO414352  13.277  16.884   5.739  0.2101  0.1175 -0.3417
 1045YOPC   GL114353  13.275  16.995   6.182  0.0230  0.2777  0.0105
 1045YOPC   GL214354  13.089  17.217   6.379 -0.1369  0.4663  0.2520
 1045YOPC   C1A14355  13.056  16.689   6.523  0.1732 -0.2880  0.3471
 1045YOPC   D2A14356  13.219  16.455   6.843 -0.0945  0.1717  0.2353
 1045YOPC   C3A14357  13.129  16.549   7.287 -0.0268 -0.3392  0.2264
 1045YOPC   C4A14358  12.886  16.442   7.526 -0.1177  0.0357  0.2151
 1045YOPC   C1B14359  12.697  17.126   6.472  0.0946  0.1317 -0.2935
 1045YOPC   C2B14360  12.434  17.218   6.683 -0.0168  0.1381 -0.1770
 1045YOPC   D3B14361  12.457  17.234   7.153  0.1147  0.0974  0.2197
 1045YOPC   C4B14362  12.637  17.365   7.548 -0.0668  0.0218  0.0107
 1046YOPC   NC314363   4.047  17.589   5.060 -0.1760  0.0428  0.0405
 1046YOPC   PO414364   3.757  17.338   5.182  0.0039  0.1193 -0.2128
 1046YOPC   GL114365   3.707  17.538   5.566 -0.0357 -0.1358  0.0743
 1046YOPC   GL214366   3.791  17.908   5.593 -0.1194 -0.0449  0.0279
 1046YOPC   C1A14367   3.861  17.606   5.945  0.0231 -0.0895 -0.1906
 1046YOPC   D2A14368   4.120  17.471   6.357 -0.0079  0.2261  0.0277
 1046YOPC   C3A14369   4.076  17.344   6.733 -0.1846 -0.1841  0.0045
 1046YOPC   C4A14370   4.087  17.515   7.165 -0.1698 -0.0833  0.0375
 1046YOPC   C1B14371   3.842  18.115   5.946  0.2381 -0.1947  0.1626
 1046YOPC   C2B14372   3.947  18.362   6.320  0.3799 -0.1076 -0.0417
 1046YOPC   D3B14373   4.024  18.287   6.749 -0.0320  0.2904  0.0581
 1046YOPC   C4B14374   4.367  18.477   6.958  0.1893  0.1310 -0.0670
 1047YOPC   NC314375   1.376  16.109   5.425 -0.0935 -0.0382  0.1474
 1047YOPC   PO414376   0.984  15.991   5.448 -0.0574  0.1826  0.4321
 1047YOPC   GL114377   1.154  16.175   5.852 -0.0545 -0.1569  0.2240
 1047YOPC   GL214378   1.075  16.437   5.844 -0.1453  0.2683 -0.1409
 1047YOPC   C1A14379   1.603  16.343   6.071 -0.1878  0.0792 -0.1300
 1047YOPC   D2A14380   1.873  16.574   6.138  0.1533 -0.1250  0.1024
 1047YOPC   C3A14381   1.977  16.705   6.519  0.4532 -0.1518 -0.1388
 1047YOPC   C4A14382   1.845  16.648   6.887 -0.0966 -0.0408 -0.0874
 1047YOPC   C1B14383   1.133  16.226   6.314 -0.1360 -0.0561 -0.0355
 1047YOPC   C2B14384   1.123  16.157   6.784  0.0212  0.0132  0.1718
 1047YOPC   D3B14385   0.627  15.931   7.058 -0.1002  0.1529 -0.0992
 1047YOPC   C4B14386   0.469  16.107   7.448  0.1493 -0.0626  0.1874
 1048YOPC   NC314387   5.516  19.054   5.034 -0.0130  0.1398 -0.2555
 1048YOPC   PO414388   5.906  18.938   5.297  0.1169  0.0498  0.0177
 1048YOPC   GL114389   6.141  18.992   5.675 -0.2310 -0.3352  0.0601
 1048YOPC   GL214390   6.029  19.292   5.878 -0.3319 -0.0167 -0.4630
 1048YOPC   C1A14391   6.404  19.017   6.122 -0.1098  0.2896  0.2187
 1048YOPC   D2A14392   6.358  19.254   6.490 -0.1587 -0.0664 -0.0901
 1048YOPC   C3A14393   5.924  19.189   6.412  0.1513 -0.1763 -0.2525
 1048YOPC   C4A14394   5.609  18.874   6.106 -0.0124 -0.2270 -0.5794
 1048YOPC   C1B14395   6.136  19.624   6.124 -0.2089 -0.1609  0.1085
 1048YOPC   C2B14396   6.383  20.024   6.192  0.0263  0.1039  0.2218
 1048YOPC   D3B14397   6.427  20.266   6.676 -0.0621  0.0876 -0.3957
 1048YOPC   C4B14398   6.562  20.261   7.073 -0.2983 -0.0395  0.0736
 1049YOPC   NC314399   5.486   0.943   5.373  0.0392 -0.0354 -0.4267
 1049YOPC   PO414400   5.211   1.326   5.322 -0.1379 -0.1651  0.0628
 1049YOPC   GL114401   5.066   1.380   5.731 -0.1135  0.2344 -0.0141
 1049YOPC   GL214402   5.057   1.072   5.760  0.0636 -0.0084  0.1730
 1049YOPC   C1A14403   5.014   1.519   6.019 -0.1379  0.0845  0.0222
 1049YOPC   D2A14404   4.618   1.884   6.212 -0.1160 -0.0511 -0.1557
 1049YOPC   C3A14405   4.654   2.119   6.590  0.1675 -0.0965  0.5061
 1049YOPC   C4A14406   4.654   2.557   6.734 -0.0892 -0.0734  0.2278
 1049YOPC   C1B14407   4.725   1.088   5.964  0.0066  0.4137  0.0840
 1049YOPC   C2B14408   4.466   1.439   6.196 -0.2488 -0.1976 -0.1682
 1049YOPC   D3B14409   4.647   1.652   6.624  0.0444 -0.3689 -0.3203
 1049YOPC   C4B14410   4.508   1.741   7.002  0.4616  0.0026  0.0088
 1050YOPC   NC314411   7.572  13.723   5.848  0.1088 -0.2087  0.0849
 1050YOPC   PO414412   7.864  13.346   5.690  0.1577  0.1773 -0.1871
 1050YOPC   GL114413   7.775  13.285   6.117 -0.2139 -0.5772  0.0204
 1050YOPC   GL214414   7.951  13.376   6.384  0.0115  0.3407  0.0944
 1050YOPC   C1A14415   7.461  13.310   6.528 -0.0974 -0.0654  0.0049
 1050YOPC   D2A14416   7.283  13.279   6.955  0.4183 -0.4297 -0.1709
 1050YOPC   C3A14417   7.062  13.049   7.318  0.2117  0.1322  0.3267
 1050YOPC   C4A14418   6.892  12.954   7.749  0.2625  0.0712 -0.1088
 1050YOPC   C1B14419   7.883  13.466   6.754 -0.0598 -0.0247 -0.1717
 1050YOPC   C2B14420   7.686  13.601   7.146  0.1863 -0.0186 -0.2423
 1050YOPC   D3B14421   7.351  13.540   7.338  0.3856 -0.2289 -0.0814
 1050YOPC   C4B14422   7.054  13.438   7.636 -0.0781  0.1588 -0.2624
 1051YOPC   NC314423  16.099  14.600   6.154  0.0486 -0.0828  0.1394
 1051YOPC   PO414424  16.501  14.690   5.948 -0.1175 -0.1628  0.2527
 1051YOPC   GL114425  16.503  14.652   6.398  0.0739 -0.3028 -0.2930
 1051YOPC   GL214426  16.439  14.378   6.508  0.3182  0.2586  0.1185
 1051YOPC   C1A14427  16.720  14.739   6.766  0.2752 -0.3254 -0.2688
 1051YOPC   D2A14428  16.875  14.794   7.196 -0.1213 -0.2189 -0.0633
 1051YOPC   C3A14429  16.797  14.499   7.473  0.0533  0.0078  0.2943
 1051YOPC   C4A14430  16.467  14.358   7.792 -0.1936 -0.0349  0.2296
 1051YOPC   C1B14431  16.192  14.166   6.685 -0.0058  0.2028  0.0472
 1051YOPC   C2B14432  16.381  13.794   6.734 -0.2901  0.2139  0.0445
 1051YOPC   D3B14433  16.165  13.612   7.055 -0.0309 -0.0117  0.0355
 1051YOPC   C4B14434  16.065  13.673   7.368  0.0646  0.0648 -0.1810
 1052YOPC   NC314435  13.947  11.622   5.591  0.0208 -0.1381  0.1296
 1052YOPC   PO414436  14.130  11.395   5.866 -0.5288 -0.1403  0.0295
 1052YOPC   GL114437  13.975  11.129   6.196 -0.2099  0.2460  0.1057
 1052YOPC   GL214438  13.973  10.809   6.092 -0.0851  0.0407 -0.2915
 1052YOPC   C1A14439  14.015  11.140   6.624  0.0251  0.1259 -0.0255
 1052YOPC   D2A14440  13.978  11.426   7.042  0.3228 -0.1388  0.1102
 1052YOPC   C3A14441  14.362  11.637   7.312 -0.0972 -0.4077  0.2222
 1052YOPC   C4A14442  14.729  11.992   7.344 -0.0715 -0.1456  0.2949
 1052YOPC   C1B14443  14.070  10.583   6.491 -0.0236 -0.2750 -0.1752
 1052YOPC   C2B14444  14.410  10.758   6.776  0.0580  0.0663  0.1297
 1052YOPC   D3B14445  14.679  10.383   7.074  0.0387  0.0820 -0.1321
 1052YOPC   C4B14446  15.118  10.319   7.192 -0.1482  0.1944 -0.1528
 1053YOPC   NC314447  13.205   1.055   5.801  0.0282  0.0508 -0.0819
 1053YOPC   PO414448  13.393   0.779   5.599 -0.1836  0.0490  0.1609
 1053YOPC   GL114449  13.112   0.558   6.023 -0.2211 -0.1487 -0.1235
 1053YOPC   GL214450  13.208   0.857   6.269  0.1122  0.0817  0.2034
 1053YOPC   C1A14451  12.837   0.546   6.455  0.0538 -0.0725 -0.0989
 1053YOPC   D2A14452  12.574   0.625   6.840  0.2339 -0.0340  0.1184
 1053YOPC   C3A14453  12.124   0.735   6.902 -0.2486  0.2009  0.0811
 1053YOPC   C4A14454  11.886   1.040   6.901  0.0294 -0.0958 -0.0541
 1053YOPC   C1B14455  13.084   0.951   6.705 -0.0608 -0.3493 -0.0933
 1053YOPC   C2B14456  12.898   1.165   7.029  0.2098 -0.1232  0.2275
 1053YOPC   D3B14457  12.966   1.028   7.418 -0.0971  0.2659  0.4027
 1053YOPC   C4B14458  13.178   1.146   7.823 -0.3107  0.2406 -0.0511
 1054YOPC   NC314459  17.782  15.830   5.433 -0.4430  0.1379 -0.1110
 1054YOPC   PO414460  18.068  15.534   5.505  0.0608  0.2442 -0.0103
 1054YOPC   GL114461  18.315  15.446   5.803 -0.0871 -0.0480  0.1316
 1054YOPC   GL214462  18.672  15.613   5.792 -0.1911 -0.1512 -0.0927
 1054YOPC   C1A14463  18.527  15.406   6.176 -0.1173 -0.2340 -0.1282
 1054YOPC   D2A14464  18.502  15.487   6.617 -0.2518  0.1469  0.1422
 1054YOPC   C3A14465  18.102  15.432   6.943  0.0314 -0.2683  0.1727
 1054YOPC   C4A14466  17.736  15.544   7.139 -0.1432  0.3796 -0.0751
 1054YOPC   C1B14467  18.470  15.892   6.008  0.1078 -0.4134 -0.3058
 1054YOPC   C2B14468  18.074  16.134   5.941 -0.0804  0.1766  0.0481
 1054YOPC   D3B14469  17.763  15.854   6.117 -0.1742  0.2172 -0.2567
 1054YOPC   C4B14470  17.377  16.074   6.225  0.2818 -0.1023 -0.1501
 1055YOPC   NC314471   8.964   1.134   5.848  0.3887 -0.1293 -0.0106
 1055YOPC   PO414472   9.124   0.687   6.001 -0.6729  0.1614 -0.4231
 1055YOPC   GL114473   9.232   0.573   6.389  0.1983  0.0773 -0.0470
 1055YOPC   GL214474   8.942   0.776   6.499 -0.3533 -0.2812  0.0303
 1055YOPC   C1A14475   9.231   0.585   6.898  0.0203 -0.2477  0.0572
 1055YOPC   D2A14476   8.916   0.643   7.249 -0.5279 -0.0841 -0.0338
 1055YOPC   C3A14477   8.875   1.068   7.505  0.2180 -0.1838 -0.4481
 1055YOPC   C4A14478   9.226   1.192   7.751 -0.0831 -0.1422 -0.2934
 1055YOPC   C1B14479   8.731   0.806   6.878 -0.1225  0.0999 -0.0357
 1055YOPC   C2B14480   8.505   0.961   7.161 -0.3616  0.0471 -0.1840
 1055YOPC   D3B14481   8.457   0.633   7.416 -0.3138  0.3140 -0.0422
 1055YOPC   C4B14482   8.823   0.553   7.790  0.1139  0.1617  0.0224
 1056YOPC   NC314483   5.305  12.916   4.897  0.2559  0.0768  0.1172
 1056YOPC   PO414484   5.313  13.295   5.133  0.0830 -0.3488  0.0918
 1056YOPC   GL114485   5.269  13.274   5.649 -0.1070 -0.3888  0.4036
 1056YOPC   GL214486   5.308  13.502   5.846 -0.0127  0.1503  0.0346
 1056YOPC   C1A14487   5.158  12.882   5.970 -0.0573  0.3965 -0.1574
 1056YOPC   D2A14488   5.144  12.524   6.266  0.0496  0.0928 -0.2154
 1056YOPC   C3A14489   4.985  12.540   6.639  0.2184 -0.2906 -0.0459
 1056YOPC   C4A14490   4.849  12.807   6.958  0.2350  0.0396  0.1194
 1056YOPC   C1B14491   5.124  13.317   6.222  0.1623 -0.2344  0.3543
 1056YOPC   C2B14492   5.158  13.052   6.570 -0.1265 -0.0157 -0.0389
 1056YOPC   D3B14493   5.243  13.133   7.060 -0.1375 -0.0204 -0.0871
 1056YOPC   C4B14494   5.508  12.878   7.372  0.0413 -0.1010 -0.0955
 1057YOPC   NC314495   7.221   0.007   5.535  0.2614 -0.0674 -0.0141
 1057YOPC   PO414496   6.815  -0.055   5.367  0.1513 -0.2759  0.2567
 1057YOPC   GL114497   6.853  -0.175   5.831  0.1537  0.2208  0.3348
 1057YOPC   GL214498   6.838   0.162   6.079  0.0356 -0.3018  0.0651
 1057YOPC   C1A14499   6.601  -0.597   5.998  0.0941 -0.2880 -0.2217
 1057YOPC   D2A14500   6.539  -0.825   6.312  0.1777  0.0113 -0.2167
 1057YOPC   C3A14501   6.439  -0.829   6.776 -0.0642  0.1523 -0.2016
 1057YOPC   C4A14502   6.447  -0.935   7.229 -0.2154 -0.1888 -0.1855
 1057YOPC   C1B14503   6.676   0.455   6.345  0.0853 -0.0479  0.0468
 1057YOPC   C2B14504   6.378   0.564   6.613  0.3445 -0.0595  0.1521
 1057YOPC   D3B14505   6.071   0.357   6.773  0.0993  0.5545 -0.1885
 1057YOPC   C4B14506   5.993  -0.024   6.896 -0.0955  0.2260  0.1285
 1058YOPC   NC314507  17.760   7.875   4.908  0.0035 -0.1429  0.1936
 1058YOPC   PO414508  17.846   8.217   5.266 -0.1003 -0.1740 -0.1640
 1058YOPC   GL114509  17.926   8.134   5.641  0.4601 -0.0217 -0.0865
 1058YOPC   GL214510  17.746   8.095   5.946 -0.3016  0.2782  0.3959
 1058YOPC   C1A14511  18.007   7.675   5.786 -0.4561  0.1506  0.3000
 1058YOPC   D2A14512  17.817   7.389   6.037  0.0386  0.3670  0.1710
 1058YOPC   C3A14513  17.602   7.435   6.342  0.2394  0.0523  0.2131
 1058YOPC   C4A14514  17.444   7.253   6.697 -0.0361  0.0785 -0.0451
 1058YOPC   C1B14515  17.732   7.923   6.276 -0.3928  0.0572  0.0097
 1058YOPC   C2B14516  18.021   7.593   6.490 -0.2639  0.1467 -0.0871
 1058YOPC   D3B14517  18.205   7.715   6.801  0.0360 -0.0276 -0.0205
 1058YOPC   C4B14518  18.399   7.694   7.258  0.2346  0.0258  0.0292
 1059YOPC   NC314519  16.790  17.498   5.958 -0.0585  0.1842  0.1647
 1059YOPC   PO414520  16.933  17.891   5.674  0.0354  0.0291  0.1913
 1059YOPC   GL114521  16.899  18.023   6.069 -0.2908 -0.0309  0.4147
 1059YOPC   GL214522  16.633  17.854   6.282 -0.1973 -0.1198  0.0630
 1059YOPC   C1A14523  17.011  18.165   6.459  0.1841 -0.2690  0.0408
 1059YOPC   D2A14524  17.086  18.349   6.830  0.1586  0.0261 -0.1063
 1059YOPC   C3A14525  16.808  18.421   7.267 -0.1161 -0.0577 -0.2114
 1059YOPC   C4A14526  16.743  18.328   7.721  0.1921 -0.3153  0.1463
 1059YOPC   C1B14527  16.522  17.670   6.669  0.3234 -0.0523  0.1834
 1059YOPC   C2B14528  16.646  17.935   7.074  0.1491 -0.1033  0.0384
 1059YOPC   D3B14529  16.736  17.839   7.530 -0.0709 -0.2964 -0.2091
 1059YOPC   C4B14530  16.886  17.716   7.904 -0.0797 -0.2252  0.3077
 1060YOPC   NC314531   4.843   7.402   4.878  0.0228  0.0256  0.1200
 1060YOPC   PO414532   4.512   7.377   5.104  0.4284 -0.0867  0.1631
 1060YOPC   GL114533   4.404   7.105   5.465 -0.0053 -0.2529  0.0509
 1060YOPC   GL214534   4.388   6.782   5.403  0.3301 -0.1980 -0.5168
 1060YOPC   C1A14535   4.301   7.145   5.854  0.2436 -0.2499  0.0508
 1060YOPC   D2A14536   4.113   7.322   6.247 -0.2866 -0.5290  0.3268
 1060YOPC   C3A14537   3.952   7.574   6.522  0.0131 -0.1519 -0.0675
 1060YOPC   C4A14538   3.800   7.595   6.970  0.2311  0.4411 -0.1799
 1060YOPC   C1B14539   4.173   6.561   5.780 -0.0050  0.1943 -0.1157
 1060YOPC   C2B14540   4.202   6.375   6.188  0.0422 -0.0079 -0.1951
 1060YOPC   D3B14541   4.492   6.326   6.557 -0.0342  0.0332  0.1896
 1060YOPC   C4B14542   4.725   6.524   6.772 -0.3857  0.3074 -0.0051
 1061YOPC   NC314543   9.659   6.887   4.903  0.3159  0.0538 -0.0084
 1061YOPC   PO414544   9.245   6.831   4.785 -0.1843 -0.1545 -0.2053
 1061YOPC   GL114545   9.223   6.632   5.175 -0.1794 -0.0771  0.2824
 1061YOPC   GL214546   9.596   6.548   5.240 -0.1972 -0.1551  0.0003
 1061YOPC   C1A14547   9.182   6.236   5.368 -0.1498 -0.0690 -0.1660
 1061YOPC   D2A14548   9.511   6.011   5.470 -0.1309  0.2383  0.0530
 1061YOPC   C3A14549   9.805   6.272   5.803  0.2265  0.0744 -0.0504
 1061YOPC   C4A14550   9.966   6.335   6.192 -0.0594 -0.5653  0.0981
 1061YOPC   C1B14551   9.478   6.594   5.678 -0.2615  0.1332  0.1367
 1061YOPC   C2B14552   9.464   6.897   6.055 -0.1311  0.0581 -0.2618
 1061YOPC   D3B14553   9.683   6.701   6.463 -0.1694  0.0920 -0.1106
 1061YOPC   C4B14554   9.817   6.300   6.673 -0.0779 -0.0895  0.1557
 1062YOPC   NC314555   4.770  10.433   5.194 -0.1440 -0.1060  0.1025
 1062YOPC   PO414556   4.425  10.616   4.965  0.0635 -0.0770 -0.0225
 1062YOPC   GL114557   4.480  10.803   5.433 -0.0117 -0.2877 -0.1840
 1062YOPC   GL214558   4.676  11.014   5.575 -0.0364  0.0578 -0.1683
 1062YOPC   C1A14559   4.133  10.946   5.772 -0.2089  0.0444  0.2557
 1062YOPC   D2A14560   4.245  10.643   6.212  0.1287 -0.0432 -0.0112
 1062YOPC   C3A14561   3.976  10.774   6.652  0.2905 -0.1248  0.0531
 1062YOPC   C4A14562   3.769  10.732   7.083  0.0516  0.0467 -0.0946
 1062YOPC   C1B14563   4.677  10.964   5.962  0.1935  0.0818 -0.0784
 1062YOPC   C2B14564   4.604  10.865   6.404  0.2745  0.4481 -0.2396
 1062YOPC   D3B14565   4.416  10.608   6.805 -0.0210 -0.2510 -0.1452
 1062YOPC   C4B14566   4.151  10.354   7.002 -0.0026  0.1205  0.0660
 1063YOPC   NC314567   1.525   6.886   5.240  0.0895  0.3597  0.0612
 1063YOPC   PO414568   1.526   6.476   5.115  0.3004 -0.1003  0.2513
 1063YOPC   GL114569   1.825   6.457   5.526 -0.2187  0.0090  0.1443
 1063YOPC   GL214570   1.938   6.795   5.549  0.1328  0.0641 -0.0865
 1063YOPC   C1A14571   1.613   6.552   5.836 -0.1352  0.0581 -0.1622
 1063YOPC   D2A14572   1.245   6.683   5.954  0.0950 -0.3148 -0.1160
 1063YOPC   C3A14573   1.220   6.795   6.351  0.1080 -0.1869 -0.1323
 1063YOPC   C4A14574   1.332   7.020   6.723 -0.1042 -0.1616 -0.0222
 1063YOPC   C1B14575   2.283   7.000   5.899 -0.3767  0.1627  0.0916
 1063YOPC   C2B14576   2.501   6.849   6.215  0.0990  0.2978 -0.0947
 1063YOPC   D3B14577   2.440   7.160   6.536  0.3965  0.1298  0.1962
 1063YOPC   C4B14578   2.109   7.360   6.691 -0.1421 -0.5150  0.1102
 1064YOPC   NC314579  17.843   8.996   5.611  0.0192  0.2413 -0.2324
 1064YOPC   PO414580  18.204   9.044   5.437 -0.1273 -0.0844 -0.0453
 1064YOPC   GL114581  18.426   8.973   5.870 -0.0071  0.1740  0.2595
 1064YOPC   GL214582  18.615   9.254   5.882  0.2955 -0.0935  0.0203
 1064YOPC   C1A14583  18.494   8.862   6.212 -0.1115  0.2144 -0.3195
 1064YOPC   D2A14584  18.417   8.816   6.594 -0.1125  0.2517  0.0311
 1064YOPC   C3A14585  18.501   8.682   7.084 -0.0887  0.3626  0.0368
 1064YOPC   C4A14586  18.425   8.394   7.471 -0.0684 -0.0285 -0.1222
 1064YOPC   C1B14587  18.730   9.293   6.305  0.0199  0.0501  0.2385
 1064YOPC   C2B14588  18.869   9.043   6.649 -0.0111  0.1799  0.2498
 1064YOPC   D3B14589  18.721   9.180   6.939  0.0475 -0.0327 -0.5328
 1064YOPC   C4B14590  18.616   9.561   7.266  0.0075  0.0085 -0.0684
 1065YOPC   NC314591  14.103  11.797   6.124 -0.1692  0.0829  0.1525
 1065YOPC   PO414592  14.488  11.861   6.032  0.0581 -0.2127  0.1244
 1065YOPC   GL114593  14.506  12.102   6.455  0.3569 -0.2229  0.0304
 1065YOPC   GL214594  14.081  12.023   6.562  0.2290 -0.0022  0.0394
 1065YOPC   C1A14595  14.446  11.815   6.803  0.1237  0.0846  0.3832
 1065YOPC   D2A14596  14.412  11.410   6.760  0.0105 -0.0876 -0.5413
 1065YOPC   C3A14597  14.589  11.131   7.078  0.3402 -0.2763  0.1795
 1065YOPC   C4A14598  14.642  11.144   7.513 -0.2886 -0.2449 -0.4046
 1065YOPC   C1B14599  14.045  11.966   7.046 -0.0011  0.0541 -0.0225
 1065YOPC   C2B14600  13.818  11.711   7.467  0.0433 -0.2033  0.0814
 1065YOPC   D3B14601  14.042  11.334   7.603  0.0101 -0.2941 -0.0051
 1065YOPC   C4B14602  14.015  10.859   7.755  0.0396  0.4879 -0.1240
 1066YOPC   NC314603   0.498   2.277   5.277  0.1325 -0.0974 -0.1320
 1066YOPC   PO414604   0.332   2.509   5.062 -0.1195 -0.2930  0.1070
 1066YOPC   GL114605   0.184   2.636   5.465 -0.2384  0.0449  0.1102
 1066YOPC   GL214606   0.312   2.396   5.751 -0.1168 -0.0806  0.3106
 1066YOPC   C1A14607   0.035   2.878   5.872 -0.0759 -0.1913  0.0950
 1066YOPC   D2A14608  -0.037   3.063   6.242  0.2436 -0.1131  0.3646
 1066YOPC   C3A14609   0.046   2.849   6.556 -0.2015 -0.0797 -0.1083
 1066YOPC   C4A14610   0.147   2.624   6.991  0.1936 -0.2115  0.3054
 1066YOPC   C1B14611   0.196   2.441   6.184  0.1616 -0.0656  0.1267
 1066YOPC   C2B14612  -0.015   2.321   6.566  0.2099 -0.1648 -0.0811
 1066YOPC   D3B14613   0.220   2.076   6.910 -0.1562 -0.0254 -0.0057
 1066YOPC   C4B14614   0.524   1.871   7.126  0.2321 -0.3936 -0.3765
 1067YOPC   NC314615  16.691  11.920   5.565  0.2124  0.3474 -0.0546
 1067YOPC   PO414616  16.998  11.730   5.776  0.1004 -0.2281 -0.1845
 1067YOPC   GL114617  16.672  11.595   6.130 -0.1327  0.2793  0.1468
 1067YOPC   GL214618  16.737  11.806   6.398  0.1222 -0.2693  0.3463
 1067YOPC   C1A14619  16.357  11.356   6.413 -0.1156 -0.3046  0.1350
 1067YOPC   D2A14620  15.957  11.378   6.758 -0.0322 -0.4781  0.0321
 1067YOPC   C3A14621  15.965  10.869   6.880 -0.0465 -0.2914 -0.1191
 1067YOPC   C4A14622  16.111  10.496   7.228  0.3043 -0.3867  0.1088
 1067YOPC   C1B14623  16.757  11.573   6.789 -0.1738  0.0093 -0.1641
 1067YOPC   C2B14624  16.941  11.430   7.246 -0.1160  0.0421  0.2915
 1067YOPC   D3B14625  17.188  11.628   7.435  0.1677 -0.1828  0.1164
 1067YOPC   C4B14626  17.536  11.468   7.696 -0.0509  0.2339 -0.0802
 1068YOPC   NC314627  11.638  15.417   5.605 -0.2892  0.0524 -0.0622
 1068YOPC   PO414628  11.241  15.551   5.479  0.0035  0.0019 -0.2646
 1068YOPC   GL114629  11.159  15.669   5.915  0.0129  0.1644 -0.1001
 1068YOPC   GL214630  11.371  15.511   6.080 -0.1549 -0.2246  0.2573
 1068YOPC   C1A14631  11.081  15.724   6.399  0.1153 -0.1737  0.1481
 1068YOPC   D2A14632  11.188  15.706   6.886  0.3269 -0.1101  0.1737
 1068YOPC   C3A14633  11.380  16.114   7.191 -0.0726  0.0954  0.0087
 1068YOPC   C4A14634  11.434  16.378   7.555  0.4427 -0.2054 -0.1136
 1068YOPC   C1B14635  11.416  15.409   6.588  0.0152  0.3237 -0.0041
 1068YOPC   C2B14636  11.609  15.348   6.923 -0.4287  0.2450 -0.0994
 1068YOPC   D3B14637  11.556  15.596   7.242 -0.0117 -0.0256  0.1708
 1068YOPC   C4B14638  11.417  15.664   7.737  0.0731 -0.0402 -0.1628
 1069YOPC   NC314639  12.165  13.548   6.049  0.2163 -0.1563  0.0028
 1069YOPC   PO414640  11.754  13.372   6.111 -0.4547 -0.0144 -0.2949
 1069YOPC   GL114641  11.737  13.594   6.508 -0.2269 -0.0227 -0.1483
 1069YOPC   GL214642  11.434  13.720   6.626 -0.0830 -0.0575  0.0228
 1069YOPC   C1A14643  11.700  13.481   6.952 -0.0701 -0.1007 -0.1405
 1069YOPC   D2A14644  11.598  13.678   7.392  0.0035 -0.0445  0.2631
 1069YOPC   C3A14645  11.284  13.474   7.625  0.1740  0.0025  0.3115
 1069YOPC   C4A14646  10.970  13.325   7.911 -0.0244 -0.0400  0.0252
 1069YOPC   C1B14647  11.270  13.754   7.039 -0.4431  0.2674 -0.1803
 1069YOPC   C2B14648  10.980  13.719   7.301 -0.1445 -0.0466 -0.2861
 1069YOPC   D3B14649  10.839  13.355   7.328  0.1290 -0.2701  0.3964
 1069YOPC   C4B14650  10.780  12.981   7.140  0.1916 -0.2746  0.0692
 1070YOPC   NC314651  15.167   5.022   5.420 -0.0020  0.2331 -0.1017
 1070YOPC   PO414652  14.832   4.599   5.446 -0.1485 -0.5281  0.1024
 1070YOPC   GL114653  14.804   4.679   5.778 -0.0609  0.2697 -0.4800
 1070YOPC   GL214654  15.164   4.486   5.841 -0.3789 -0.0155  0.0029
 1070YOPC   C1A14655  14.854   4.722   6.273 -0.2558  0.1003 -0.1627
 1070YOPC   D2A14656  14.919   4.296   6.563  0.1082 -0.1273  0.1002
 1070YOPC   C3A14657  15.211   4.019   6.419  0.3926 -0.0037  0.0717
 1070YOPC   C4A14658  15.588   4.063   6.137 -0.2718  0.3333 -0.1490
 1070YOPC   C1B14659  14.903   4.174   5.923 -0.0951  0.1330 -0.0411
 1070YOPC   C2B14660  14.566   3.860   6.125 -0.2865 -0.1165  0.1342
 1070YOPC   D3B14661  14.301   3.676   6.390 -0.0523  0.1683  0.1224
 1070YOPC   C4B14662  14.339   3.355   6.702  0.0826 -0.2288 -0.1363
 1071YOPC   NC314663  10.816   4.209   4.912 -0.0025  0.0920  0.0067
 1071YOPC   PO414664  10.650   4.353   5.193  0.3338  0.1576 -0.1124
 1071YOPC   GL114665  10.558   4.346   5.626 -0.0039  0.0924  0.0097
 1071YOPC   GL214666  10.604   4.614   5.666 -0.0335 -0.1363  0.1170
 1071YOPC   C1A14667  10.252   4.188   5.934 -0.0784  0.1576 -0.1191
 1071YOPC   D2A14668  10.317   4.155   6.341 -0.1396 -0.1530 -0.1630
 1071YOPC   C3A14669  10.413   3.862   6.696  0.1024  0.2518 -0.1513
 1071YOPC   C4A14670  10.328   3.624   7.149  0.2690 -0.1716 -0.1263
 1071YOPC   C1B14671  10.518   4.577   6.122 -0.1492  0.2429  0.1115
 1071YOPC   C2B14672  10.555   4.582   6.592  0.0909  0.0484  0.0876
 1071YOPC   D3B14673  10.511   4.914   7.002  0.0030 -0.4519  0.0421
 1071YOPC   C4B14674  10.486   5.119   7.220  0.1690 -0.0221 -0.1627
 1072YOPC   NC314675   6.393  12.769   5.610  0.0316  0.0257  0.1947
 1072YOPC   PO414676   5.880  12.678   5.478  0.0046 -0.3245 -0.0839
 1072YOPC   GL114677   5.936  12.924   5.764  0.0365 -0.0565  0.0258
 1072YOPC   GL214678   6.053  12.796   5.967  0.1175 -0.3124 -0.1672
 1072YOPC   C1A14679   5.683  13.221   5.987  0.0230 -0.1289 -0.1296
 1072YOPC   D2A14680   5.570  13.376   6.388 -0.4071 -0.2540  0.0047
 1072YOPC   C3A14681   5.674  13.184   6.718  0.0262  0.0164  0.1134
 1072YOPC   C4A14682   5.724  13.174   7.109  0.1156 -0.2721  0.0816
 1072YOPC   C1B14683   5.921  12.889   6.296 -0.0489 -0.0505 -0.0083
 1072YOPC   C2B14684   5.581  12.679   6.464 -0.0944  0.1248  0.1435
 1072YOPC   D3B14685   5.375  12.695   6.860 -0.1910 -0.3574  0.0095
 1072YOPC   C4B14686   5.303  12.451   7.182 -0.0891 -0.1656 -0.2596
 1073YOPC   NC314687   7.115  11.971   5.276 -0.1576  0.1080 -0.0509
 1073YOPC   PO414688   6.954  12.342   5.497  0.1479  0.1100  0.4038
 1073YOPC   GL114689   6.775  12.410   5.913 -0.0779  0.1272  0.1575
 1073YOPC   GL214690   6.586  12.567   6.025 -0.1397  0.2768 -0.3634
 1073YOPC   C1A14691   6.815  12.173   6.338  0.0631  0.3403  0.2254
 1073YOPC   D2A14692   6.567  11.959   6.692 -0.0477  0.0118  0.1627
 1073YOPC   C3A14693   6.283  11.560   6.603 -0.4182  0.0488  0.0494
 1073YOPC   C4A14694   6.284  11.278   6.216 -0.2721 -0.0085  0.2264
 1073YOPC   C1B14695   6.758  12.656   6.374  0.0786  0.2646 -0.1419
 1073YOPC   C2B14696   6.809  12.951   6.735  0.3194  0.1539  0.3450
 1073YOPC   D3B14697   6.617  13.115   7.022 -0.1556  0.0225  0.2538
 1073YOPC   C4B14698   6.212  13.303   7.138  0.3710  0.1209 -0.1483
 1074YOPC   NC314699   4.599  19.109   4.904 -0.0028  0.0944  0.3534
 1074YOPC   PO414700   4.712  18.828   5.244 -0.0842  0.1260 -0.1606
 1074YOPC   GL114701   4.504  18.648   5.544  0.2759 -0.0604 -0.1730
 1074YOPC   GL214702   4.250  18.420   5.610 -0.0118 -0.0698 -0.1968
 1074YOPC   C1A14703   4.157  18.949   5.693 -0.1890 -0.2555 -0.0022
 1074YOPC   D2A14704   3.611  19.117   5.721  0.2145  0.1144 -0.0307
 1074YOPC   C3A14705   3.461  19.557   5.772 -0.0350 -0.0400 -0.0111
 1074YOPC   C4A14706   3.310  19.905   5.847 -0.0418 -0.0213 -0.2298
 1074YOPC   C1B14707   4.406  18.313   6.068 -0.0422 -0.1894  0.0029
 1074YOPC   C2B14708   4.467  18.302   6.507 -0.3417  0.1558  0.0952
 1074YOPC   D3B14709   4.692  18.631   6.652 -0.0117  0.1977 -0.1992
 1074YOPC   C4B14710   4.875  18.974   6.504 -0.1419 -0.1317  0.2834
 1075YOPC   NC314711  10.298  11.198   5.933 -0.5930 -0.2035  0.1943
 1075YOPC   PO414712  10.705  10.947   5.944 -0.3145  0.0295 -0.0988
 1075YOPC   GL114713  10.734  10.926   6.355  0.0328  0.2955  0.2924
 1075YOPC   GL214714  10.721  10.587   6.415 -0.3193  0.2298 -0.1852
 1075YOPC   C1A14715  10.975  10.884   6.812  0.2346 -0.1763  0.0281
 1075YOPC   D2A14716  11.278  10.885   7.051 -0.2083  0.0740 -0.3989
 1075YOPC   C3A14717  11.545  10.577   7.240 -0.3080 -0.1610  0.1939
 1075YOPC   C4A14718  11.293  10.301   7.526 -0.1069  0.1930  0.0868
 1075YOPC   C1B14719  10.567  10.555   6.781  0.3440  0.0238 -0.0787
 1075YOPC   C2B14720  10.347  10.857   7.099 -0.1663  0.0796  0.3788
 1075YOPC   D3B14721  10.568  11.041   7.328 -0.0585 -0.4137  0.1133
 1075YOPC   C4B14722  10.625  10.891   7.803  0.0937  0.0742 -0.3274
 1076YOPC   NC314723  10.954  13.273   5.693 -0.0256 -0.1778 -0.4944
 1076YOPC   PO414724  11.249  13.132   5.895  0.1323  0.1152 -0.0450
 1076YOPC   GL114725  11.317  13.188   6.373 -0.1263 -0.0414  0.2473
 1076YOPC   GL214726  11.650  13.015   6.491 -0.0895  0.1567  0.0385
 1076YOPC   C1A14727  11.277  13.239   6.805 -0.0695 -0.0389  0.0523
 1076YOPC   D2A14728  11.385  13.144   7.241  0.2055  0.3793 -0.0442
 1076YOPC   C3A14729  11.224  12.879   7.525  0.1779  0.2271 -0.1843
 1076YOPC   C4A14730  11.172  12.779   7.920  0.0964 -0.0116  0.0955
 1076YOPC   C1B14731  11.441  12.752   6.832  0.1313  0.1084  0.1274
 1076YOPC   C2B14732  11.379  12.527   7.108 -0.1869 -0.3891 -0.5847
 1076YOPC   D3B14733  11.405  12.153   7.036  0.1680 -0.2970  0.5432
 1076YOPC   C4B14734  11.139  11.825   7.144  0.0882  0.1288 -0.1583
 1077YOPC   NC314735   5.240   2.261   4.966 -0.0151  0.1970 -0.0029
 1077YOPC   PO414736   5.263   1.802   5.053  0.3133 -0.0967 -0.0577
 1077YOPC   GL114737   5.349   1.830   5.486 -0.0949  0.2827 -0.1861
 1077YOPC   GL214738   5.188   2.193   5.727 -0.4271  0.4599  0.2212
 1077YOPC   C1A14739   5.571   1.845   5.863  0.1328 -0.1031 -0.2905
 1077YOPC   D2A14740   5.630   1.761   6.269  0.1040 -0.0525 -0.1222
 1077YOPC   C3A14741   5.550   2.024   6.683  0.1288 -0.3775  0.0118
 1077YOPC   C4A14742   5.635   2.294   6.840 -0.0659  0.0678 -0.1338
 1077YOPC   C1B14743   5.153   1.978   6.189 -0.2753  0.2614  0.2873
 1077YOPC   C2B14744   5.163   1.752   6.466  0.1688 -0.0879  0.5324
 1077YOPC   D3B14745   4.987   1.903   6.876 -0.0032 -0.0511 -0.3176
 1077YOPC   C4B14746   4.949   1.822   7.284 -0.0885  0.0023 -0.2432
 1078YOPC   NC314747   4.643   9.583   5.154  0.2034 -0.0858 -0.1315
 1078YOPC   PO414748   4.617   9.165   5.422 -0.0463  0.0070  0.1114
 1078YOPC   GL114749   4.681   9.401   5.788 -0.1084  0.0809 -0.1303
 1078YOPC   GL214750   4.626   9.168   5.969 -0.0405  0.0482  0.2493
 1078YOPC   C1A14751   4.814   9.647   6.076  0.2717 -0.1430 -0.1767
 1078YOPC   D2A14752   4.817   9.771   6.473 -0.0100 -0.2807 -0.1177
 1078YOPC   C3A14753   5.036   9.889   6.758 -0.0578 -0.2321 -0.0425
 1078YOPC   C4A14754   5.241  10.005   7.049  0.1878 -0.1851  0.2087
 1078YOPC   C1B14755   4.921   9.253   6.351 -0.2673 -0.1171  0.0922
 1078YOPC   C2B14756   5.169   9.327   6.659  0.1983  0.0640  0.2789
 1078YOPC   D3B14757   5.036   9.462   7.029  0.1734  0.0130 -0.3474
 1078YOPC   C4B14758   4.850   9.741   7.299  0.0074  0.1640 -0.3857
 1079YOPC   NC314759   7.233   7.738   4.789 -0.0987 -0.1610 -0.2099
 1079YOPC   PO414760   6.862   7.893   5.149  0.2250  0.3079 -0.0267
 1079YOPC   GL114761   7.170   7.771   5.470  0.1577  0.1983 -0.3573
 1079YOPC   GL214762   7.008   8.029   5.585  0.2538  0.0872 -0.2884
 1079YOPC   C1A14763   7.180   7.728   6.053  0.1980  0.1293  0.4877
 1079YOPC   D2A14764   7.012   7.831   6.263 -0.4739  0.1189  0.1937
 1079YOPC   C3A14765   7.052   7.615   6.630  0.1838  0.0804  0.1691
 1079YOPC   C4A14766   7.323   7.296   6.909 -0.0243 -0.1092 -0.0757
 1079YOPC   C1B14767   6.860   8.164   5.892 -0.0521  0.0442  0.0008
 1079YOPC   C2B14768   6.670   8.127   6.233  0.2029 -0.1518 -0.1666
 1079YOPC   D3B14769   6.351   8.090   6.304  0.0399  0.2204  0.1168
 1079YOPC   C4B14770   5.973   7.837   6.106 -0.2730 -0.2732  0.4155
 1080YOPC   NC314771   0.690  17.785   5.559  0.0597  0.2883 -0.1558
 1080YOPC   PO414772   0.258  17.717   5.772  0.0100  0.4688 -0.2344
 1080YOPC   GL114773   0.105  18.082   6.090 -0.0608  0.0353 -0.0108
 1080YOPC   GL214774   0.304  18.104   6.351  0.2547  0.0176  0.1234
 1080YOPC   C1A14775  -0.087  18.462   6.317  0.2239 -0.0003 -0.1345
 1080YOPC   D2A14776   0.025  18.578   6.723  0.2411 -0.0267 -0.2433
 1080YOPC   C3A14777  -0.039  18.533   7.033 -0.0742 -0.2391 -0.1298
 1080YOPC   C4A14778  -0.360  18.629   7.428  0.1453 -0.0352 -0.0993
 1080YOPC   C1B14779   0.376  18.208   6.741  0.2999 -0.1438  0.2151
 1080YOPC   C2B14780   0.448  18.342   7.131 -0.1343  0.2023  0.0160
 1080YOPC   D3B14781   0.532  17.941   7.447  0.0472 -0.0421  0.2019
 1080YOPC   C4B14782   0.817  17.624   7.449  0.1001 -0.1984  0.0378
 1081YOPC   NC314783   6.781   6.506   4.852  0.2021  0.0786 -0.0956
 1081YOPC   PO414784   6.752   6.097   5.024  0.0788  0.0721  0.0052
 1081YOPC   GL114785   6.409   6.195   5.392 -0.0379  0.1194  0.0612
 1081YOPC   GL214786   6.175   5.930   5.536  0.3042 -0.2255 -0.0335
 1081YOPC   C1A14787   6.272   6.421   5.794  0.0957  0.0612  0.0087
 1081YOPC   D2A14788   6.269   6.506   6.373 -0.2957  0.1261 -0.1818
 1081YOPC   C3A14789   6.037   6.338   6.626  0.1828 -0.0533  0.1950
 1081YOPC   C4A14790   5.832   6.509   6.952  0.2329 -0.0136 -0.2083
 1081YOPC   C1B14791   5.889   5.636   5.857  0.0257 -0.0488  0.2089
 1081YOPC   C2B14792   6.054   5.358   6.119  0.1717  0.2558 -0.1830
 1081YOPC   D3B14793   6.455   5.332   6.353  0.0427  0.0326  0.1719
 1081YOPC   C4B14794   6.588   5.044   6.549  0.0104  0.0417  0.1556
 1082YOPC   NC314795  13.336  12.094   5.754  0.0851 -0.0197  0.3543
 1082YOPC   PO414796  13.216  12.405   6.182 -0.1301 -0.1999  0.1804
 1082YOPC   GL114797  13.099  12.266   6.554 -0.0880  0.1799  0.0945
 1082YOPC   GL214798  12.842  12.499   6.687  0.3354 -0.1846 -0.0207
 1082YOPC   C1A14799  13.013  12.168   7.070  0.0762 -0.1277  0.3839
 1082YOPC   D2A14800  12.796  12.147   7.467  0.1725 -0.1306 -0.2049
 1082YOPC   C3A14801  12.817  11.741   7.679 -0.0533  0.4041 -0.2169
 1082YOPC   C4A14802  13.002  11.286   7.643 -0.2283  0.0559 -0.2571
 1082YOPC   C1B14803  12.980  12.879   6.608 -0.0767  0.2569  0.2224
 1082YOPC   C2B14804  13.129  13.141   6.840 -0.0598  0.0417 -0.0662
 1082YOPC   D3B14805  13.113  13.675   6.794 -0.1804  0.2243 -0.1520
 1082YOPC   C4B14806  12.722  13.909   6.970 -0.3946  0.3351 -0.2512
 1083YOPC   NC314807   1.827  13.384   5.098  0.0341 -0.1867  0.2333
 1083YOPC   PO414808   1.657  12.999   5.126  0.0534 -0.0233  0.1394
 1083YOPC   GL114809   1.722  13.226   5.573 -0.0637  0.0169  0.1911
 1083YOPC   GL214810   1.421  13.114   5.840  0.2807 -0.0360 -0.0739
 1083YOPC   C1A14811   1.940  13.085   5.879 -0.2214  0.1350 -0.1289
 1083YOPC   D2A14812   1.759  13.000   6.267 -0.2223  0.0753 -0.0630
 1083YOPC   C3A14813   1.714  13.187   6.745 -0.1857 -0.1881  0.1074
 1083YOPC   C4A14814   2.059  13.309   6.810  0.0368 -0.2140 -0.2399
 1083YOPC   C1B14815   1.354  13.427   6.125 -0.2019 -0.2364 -0.0874
 1083YOPC   C2B14816   1.484  13.829   6.316  0.4248 -0.0491 -0.0017
 1083YOPC   D3B14817   1.925  13.789   6.550 -0.0544 -0.2566  0.2278
 1083YOPC   C4B14818   2.361  13.745   6.734  0.0038 -0.0580  0.2423
 1084YOPC   NC314819  12.580   6.626   5.221 -0.0331  0.0782  0.2370
 1084YOPC   PO414820  12.878   7.005   5.335 -0.0192 -0.1474 -0.2312
 1084YOPC   GL114821  12.657   6.985   5.709 -0.0223 -0.0497 -0.0439
 1084YOPC   GL214822  12.395   7.224   5.716  0.3313  0.3188  0.0711
 1084YOPC   C1A14823  12.737   6.807   6.158 -0.2348  0.0392 -0.3034
 1084YOPC   D2A14824  12.751   6.622   6.568 -0.1081  0.0720 -0.1118
 1084YOPC   C3A14825  12.711   6.370   6.977  0.0560 -0.3143  0.1488
 1084YOPC   C4A14826  12.482   6.033   6.675 -0.2257 -0.1677 -0.1725
 1084YOPC   C1B14827  12.410   7.292   6.186  0.0172  0.2102 -0.0103
 1084YOPC   C2B14828  12.765   7.300   6.412  0.0703  0.1992 -0.0994
 1084YOPC   D3B14829  12.740   7.544   6.710  0.2952  0.1383  0.2282
 1084YOPC   C4B14830  12.761   7.471   7.148 -0.1577 -0.0597  0.3257
 1085YOPC   NC314831   4.271   4.454   4.362 -0.1762  0.0947 -0.0868
 1085YOPC   PO414832   4.487   4.295   4.745  0.3121 -0.0177 -0.4410
 1085YOPC   GL114833   4.451   4.371   5.263 -0.0275 -0.3536  0.0509
 1085YOPC   GL214834   4.253   4.363   5.567 -0.0031  0.0743  0.2927
 1085YOPC   C1A14835   4.671   4.249   5.758  0.1208 -0.2699 -0.0463
 1085YOPC   D2A14836   4.670   4.367   6.090 -0.1716  0.2365 -0.5209
 1085YOPC   C3A14837   4.652   4.122   6.545 -0.2890 -0.1156 -0.0216
 1085YOPC   C4A14838   4.666   4.062   6.908  0.0308  0.2817  0.1338
 1085YOPC   C1B14839   4.247   4.587   5.961 -0.0399  0.2211 -0.2460
 1085YOPC   C2B14840   4.253   4.688   6.435 -0.1357 -0.1682  0.1083
 1085YOPC   D3B14841   4.435   4.492   6.757 -0.1975  0.1253 -0.2877
 1085YOPC   C4B14842   4.727   4.451   7.155  0.2116 -0.3410  0.3340
 1086YOPC   NC314843   0.772  18.006   4.859  0.0349  0.1689  0.1282
 1086YOPC   PO414844   1.116  17.861   5.261  0.0824  0.0608 -0.0315
 1086YOPC   GL114845   1.160  18.054   5.607 -0.1347  0.4969  0.0086
 1086YOPC   GL214846   1.383  18.000   5.667 -0.3530 -0.2109  0.1633
 1086YOPC   C1A14847   1.132  18.103   6.084 -0.0536 -0.0184  0.1502
 1086YOPC   D2A14848   0.847  18.376   6.387 -0.0637 -0.0919 -0.3284
 1086YOPC   C3A14849   0.828  18.415   6.818 -0.3037 -0.0568  0.2701
 1086YOPC   C4A14850   0.993  18.419   7.134 -0.2084  0.1567  0.4807
 1086YOPC   C1B14851   1.616  18.184   5.967  0.1755 -0.4867 -0.0008
 1086YOPC   C2B14852   1.547  18.090   6.366 -0.1422 -0.1754  0.0291
 1086YOPC   D3B14853   1.657  18.388   6.748  0.0148  0.0725  0.4583
 1086YOPC   C4B14854   1.928  18.378   7.042  0.2245  0.2761  0.1091
 1087YOPC   NC314855   2.175  17.694   5.247 -0.0542 -0.0705 -0.2150
 1087YOPC   PO414856   2.300  17.337   5.373  0.0682 -0.0692 -0.0552
 1087YOPC   GL114857   2.024  17.284   5.746  0.0458  0.0363  0.2132
 1087YOPC   GL214858   1.890  16.921   5.826  0.2771  0.3082 -0.1663
 1087YOPC   C1A14859   2.023  17.325   6.173  0.3999  0.2764  0.2178
 1087YOPC   D2A14860   1.937  17.240   6.660 -0.0474  0.1655 -0.0982
 1087YOPC   C3A14861   2.356  17.116   6.921  0.0743  0.3160 -0.4169
 1087YOPC   C4A14862   2.656  17.324   6.878 -0.1669 -0.0260 -0.0587
 1087YOPC   C1B14863   1.567  16.927   6.285 -0.1386 -0.1929 -0.2266
 1087YOPC   C2B14864   1.393  17.040   6.715  0.1620 -0.2244  0.1801
 1087YOPC   D3B14865   1.029  16.970   6.760  0.1502  0.0496 -0.1237
 1087YOPC   C4B14866   0.687  17.040   7.030  0.0883 -0.2328  0.0021
 1088YOPC   NC314867  13.133  11.095   5.318 -0.2563 -0.1968  0.1330
 1088YOPC   PO414868  13.126  11.055   5.764 -0.0070  0.1485 -0.1986
 1088YOPC   GL114869  12.803  11.001   6.042  0.1115 -0.2028 -0.3443
 1088YOPC   GL214870  12.692  10.706   6.088 -0.0547  0.2176  0.1350
 1088YOPC   C1A14871  12.643  10.938   6.528  0.0875  0.1181  0.0737
 1088YOPC   D2A14872  12.558  10.693   6.920  0.1934  0.1974 -0.0210
 1088YOPC   C3A14873  12.557  11.028   7.281 -0.1282  0.3819 -0.0160
 1088YOPC   C4A14874  12.584  11.065   7.807  0.3063 -0.0959 -0.0313
 1088YOPC   C1B14875  12.959  10.522   6.410  0.3735 -0.1137  0.2335
 1088YOPC   C2B14876  13.148  10.290   6.680 -0.4023 -0.2672 -0.0187
 1088YOPC   D3B14877  13.436  10.377   7.073  0.1755  0.1926  0.2634
 1088YOPC   C4B14878  13.372  10.263   7.468  0.4008  0.1283 -0.3498
 1089YOPC   NC314879   4.956  17.374   4.922  0.0022 -0.2057  0.1614
 1089YOPC   PO414880   5.134  17.186   5.193 -0.0825  0.3447  0.0862
 1089YOPC   GL114881   5.117  17.308   5.627 -0.0191  0.0144 -0.0405
 1089YOPC   GL214882   4.842  17.289   5.644 -0.0061  0.3668 -0.4042
 1089YOPC   C1A14883   5.232  17.544   5.947 -0.1012 -0.0823  0.0251
 1089YOPC   D2A14884   5.127  17.727   6.355  0.1078  0.0245 -0.2096
 1089YOPC   C3A14885   4.903  17.934   6.614 -0.1037  0.1309 -0.0189
 1089YOPC   C4A14886   4.835  18.182   6.889 -0.1096  0.0899  0.0042
 1089YOPC   C1B14887   4.564  16.959   5.670  0.2306  0.0367 -0.1421
 1089YOPC   C2B14888   4.216  16.622   5.805  0.1330 -0.2014 -0.0003
 1089YOPC   D3B14889   3.699  16.654   5.835  0.1137 -0.0112 -0.1526
 1089YOPC   C4B14890   3.288  16.590   5.761 -0.0438  0.2033  0.3541
 1090YOPC   NC314891  10.736   7.512   4.664  0.0395 -0.0498 -0.1942
 1090YOPC   PO414892  11.089   7.141   4.712 -0.1537  0.5066 -0.1768
 1090YOPC   GL114893  10.975   6.958   5.102 -0.0572  0.0414  0.3402
 1090YOPC   GL214894  11.119   7.239   5.362 -0.0609 -0.0960  0.2453
 1090YOPC   C1A14895  10.634   6.797   5.313 -0.1432 -0.2443  0.0711
 1090YOPC   D2A14896  10.476   6.531   5.554  0.1575  0.1958  0.2663
 1090YOPC   C3A14897  10.331   6.584   5.903 -0.5654  0.2553  0.0433
 1090YOPC   C4A14898  10.330   6.789   6.376 -0.0110  0.2638 -0.1608
 1090YOPC   C1B14899  10.914   7.086   5.637 -0.3238 -0.0133 -0.0834
 1090YOPC   C2B14900  10.655   6.933   5.942 -0.0455  0.1002 -0.0490
 1090YOPC   D3B14901  10.404   7.245   6.199 -0.3182  0.2114  0.3144
 1090YOPC   C4B14902  10.357   7.274   6.652 -0.1161 -0.2768  0.2474
 1091YOPC   NC314903   6.449   1.022   5.405 -0.3013  0.0238 -0.3148
 1091YOPC   PO414904   5.954   1.000   5.361 -0.0850  0.2047  0.0612
 1091YOPC   GL114905   5.973   1.199   5.646 -0.1776  0.0946 -0.2806
 1091YOPC   GL214906   5.737   1.354   5.609 -0.0368 -0.1512  0.0334
 1091YOPC   C1A14907   5.964   1.327   6.125  0.0355  0.1448  0.1921
 1091YOPC   D2A14908   6.025   1.445   6.547 -0.2738 -0.0174  0.0452
 1091YOPC   C3A14909   5.705   1.428   6.793 -0.1734 -0.1706 -0.2470
 1091YOPC   C4A14910   5.384   1.647   6.969  0.1012 -0.1537 -0.0302
 1091YOPC   C1B14911   5.479   1.357   6.004 -0.4337  0.0247  0.1852
 1091YOPC   C2B14912   5.412   1.328   6.445  0.0213  0.0183  0.1559
 1091YOPC   D3B14913   4.957   1.156   6.421  0.3391  0.0851 -0.1032
 1091YOPC   C4B14914   4.551   1.025   6.490  0.1193 -0.4687  0.2291
 1092YOPC   NC314915   3.483   5.980   4.759  0.2399  0.0137 -0.0354
 1092YOPC   PO414916   3.568   6.191   5.169 -0.4981  0.0671 -0.3011
 1092YOPC   GL114917   3.473   5.817   5.491  0.1331 -0.1887 -0.0365
 1092YOPC   GL214918   3.182   5.718   5.496 -0.2786  0.3751 -0.0466
 1092YOPC   C1A14919   3.471   5.812   5.970  0.1629 -0.0856  0.0748
 1092YOPC   D2A14920   3.313   5.378   6.203  0.0105 -0.1903  0.2473
 1092YOPC   C3A14921   3.277   5.405   6.630 -0.2073 -0.2095 -0.0810
 1092YOPC   C4A14922   2.966   5.212   6.887 -0.0582 -0.1750  0.1104
 1092YOPC   C1B14923   2.697   5.495   5.555  0.0926  0.0108 -0.1759
 1092YOPC   C2B14924   2.587   5.191   5.454  0.0951 -0.1546  0.1866
 1092YOPC   D3B14925   2.115   4.958   5.328  0.2437 -0.2485 -0.0745
 1092YOPC   C4B14926   1.712   4.887   5.453  0.0565 -0.0406  0.0670
 1093YOPC   NC314927   4.171  18.619   5.119 -0.3050  0.2150 -0.2903
 1093YOPC   PO414928   3.907  18.236   5.200  0.0704  0.4068  0.3785
 1093YOPC   GL114929   3.735  18.426   5.566  0.1237  0.0000  0.0262
 1093YOPC   GL214930   3.471  18.349   5.718 -0.4645 -0.0030  0.0870
 1093YOPC   C1A14931   3.818  18.667   5.935 -0.0144  0.0139 -0.2781
 1093YOPC   D2A14932   4.127  18.811   6.226  0.1338  0.0958 -0.0788
 1093YOPC   C3A14933   4.597  18.790   6.167  0.2933  0.0379 -0.1776
 1093YOPC   C4A14934   5.002  18.738   6.012 -0.0330 -0.1003  0.0196
 1093YOPC   C1B14935   3.438  18.424   6.225  0.2796 -0.0530  0.1417
 1093YOPC   C2B14936   3.333  18.471   6.590  0.1856 -0.0329 -0.4052
 1093YOPC   D3B14937   3.224  18.655   6.921 -0.2414  0.0168  0.2413
 1093YOPC   C4B14938   3.148  18.677   7.328 -0.2804 -0.0653  0.3032
 1094YOPC   NC314939  15.668  12.484   6.175 -0.1860  0.0618  0.0264
 1094YOPC   PO414940  15.252  12.490   6.373  0.1372 -0.1049  0.1610
 1094YOPC   GL114941  15.523  12.230   6.663  0.1521 -0.1761  0.3965
 1094YOPC   GL214942  15.457  11.899   6.706  0.0156  0.1855  0.1466
 1094YOPC   C1A14943  15.443  12.363   7.034  0.1142 -0.2393  0.0768
 1094YOPC   D2A14944  15.534  12.438   7.496  0.0519  0.0023  0.2593
 1094YOPC   C3A14945  15.476  12.171   7.878 -0.0818 -0.4285  0.2041
 1094YOPC   C4A14946  15.323  11.752   7.907 -0.0795  0.4176  0.0471
 1094YOPC   C1B14947  15.720  11.740   7.037  0.1746 -0.1385 -0.0711
 1094YOPC   C2B14948  15.674  11.777   7.497 -0.0896  0.1865  0.0379
 1094YOPC   D3B14949  15.934  11.944   7.804  0.0035 -0.1431 -0.1172
 1094YOPC   C4B14950  15.890  12.356   8.117 -0.1365  0.1942  0.1709
 1095YOPC   NC314951   9.432  18.258   5.851  0.6846 -0.2061  0.1952
 1095YOPC   PO414952   9.828  18.119   5.744 -0.3073  0.0800 -0.0690
 1095YOPC   GL114953   9.812  17.993   6.179  0.2294  0.1255  0.0804
 1095YOPC   GL214954   9.523  17.973   6.297  0.2060 -0.1940  0.2070
 1095YOPC   C1A14955   9.947  18.217   6.449 -0.0677 -0.2885  0.0580
 1095YOPC   D2A14956  10.387  18.214   6.632 -0.1653 -0.1713  0.0371
 1095YOPC   C3A14957  10.411  18.215   7.083  0.1879 -0.0987 -0.0167
 1095YOPC   C4A14958   9.939  18.291   7.200  0.0545  0.0871  0.1727
 1095YOPC   C1B14959   9.541  17.700   6.562  0.4523 -0.2913 -0.0794
 1095YOPC   C2B14960   9.662  17.350   6.705  0.1124 -0.1443  0.1747
 1095YOPC   D3B14961   9.904  17.317   7.189  0.0207  0.2009 -0.1661
 1095YOPC   C4B14962   9.979  17.454   7.649 -0.1182  0.1913 -0.1564
 1096YOPC   NC314963   9.835  14.953   5.623 -0.0575 -0.0983  0.0127
 1096YOPC   PO414964  10.018  14.631   5.432  0.0529 -0.2259  0.3260
 1096YOPC   GL114965   9.915  14.461   5.789 -0.0113  0.1286  0.5070
 1096YOPC   GL214966  10.135  14.660   5.946 -0.1294  0.2331 -0.0950
 1096YOPC   C1A14967   9.717  14.590   6.247 -0.3065 -0.1532 -0.0214
 1096YOPC   D2A14968   9.538  14.663   6.724 -0.0889  0.2840  0.2545
 1096YOPC   C3A14969   9.342  14.578   7.067  0.1267 -0.0115 -0.2836
 1096YOPC   C4A14970   9.261  14.766   7.486  0.1078 -0.3787 -0.2534
 1096YOPC   C1B14971  10.211  14.644   6.385  0.2894 -0.3194 -0.3835
 1096YOPC   C2B14972  10.128  14.734   6.822 -0.3012 -0.1122 -0.1682
 1096YOPC   D3B14973  10.362  14.578   7.156  0.0793 -0.2759 -0.0909
 1096YOPC   C4B14974  10.747  14.405   7.471 -0.3080 -0.0011  0.1527
 1097YOPC   NC314975   0.233  16.457   5.598 -0.3861  0.1685 -0.0084
 1097YOPC   PO414976   0.613  16.516   5.496 -0.2530 -0.1579 -0.0917
 1097YOPC   GL114977   0.621  16.212   5.865 -0.2362 -0.1294 -0.0237
 1097YOPC   GL214978   0.344  16.113   5.919 -0.2934  0.0057 -0.1299
 1097YOPC   C1A14979   0.632  15.965   6.278 -0.2630  0.1996 -0.1702
 1097YOPC   D2A14980   0.919  15.703   6.619 -0.0348 -0.1143 -0.0317
 1097YOPC   C3A14981   0.754  15.489   6.870 -0.0956 -0.0592 -0.1871
 1097YOPC   C4A14982   0.684  15.180   7.052  0.1491 -0.0532 -0.1889
 1097YOPC   C1B14983   0.179  16.190   6.257  0.1704 -0.2883 -0.0277
 1097YOPC   C2B14984   0.313  16.190   6.658 -0.3254  0.0550 -0.2056
 1097YOPC   D3B14985   0.089  16.090   7.099  0.1361  0.0994 -0.1996
 1097YOPC   C4B14986  -0.057  16.322   7.357  0.0586 -0.0988 -0.0865
 1098YOPC   NC314987  13.327   8.002   5.003 -0.1652 -0.1403 -0.3217
 1098YOPC   PO414988  13.048   7.817   5.180 -0.3179  0.1496  0.3117
 1098YOPC   GL114989  13.137   8.005   5.517 -0.1422  0.0573  0.2176
 1098YOPC   GL214990  12.807   8.181   5.603 -0.2954  0.5251  0.0170
 1098YOPC   C1A14991  13.210   7.862   5.913  0.1842 -0.1599  0.0642
 1098YOPC   D2A14992  13.071   7.694   6.207  0.1391  0.0139  0.1358
 1098YOPC   C3A14993  13.258   7.426   6.424  0.0489  0.2135  0.2491
 1098YOPC   C4A14994  13.513   7.158   6.662 -0.1125 -0.0848 -0.3970
 1098YOPC   C1B14995  12.459   7.981   5.796  0.1471 -0.3706  0.0826
 1098YOPC   C2B14996  12.107   7.763   6.050  0.0418  0.0666  0.0759
 1098YOPC   D3B14997  11.933   7.607   5.792  0.1841 -0.0577  0.1807
 1098YOPC   C4B14998  11.958   7.172   5.879  0.2158 -0.0295 -0.4404
 1099YOPC   NC314999  12.422   7.101   5.223  0.1998  0.1495 -0.1282
 1099YOPC   PO415000  12.121   6.935   4.974  0.1188 -0.2100 -0.0851
 1099YOPC   GL115001  12.002   6.859   5.436 -0.5039 -0.1762  0.0391
 1099YOPC   GL215002  12.209   6.682   5.598  0.0608  0.0863 -0.1314
 1099YOPC   C1A15003  11.789   6.698   5.799  0.2192 -0.0864  0.1705
 1099YOPC   D2A15004  11.780   6.766   6.183 -0.2366 -0.0006 -0.1283
 1099YOPC   C3A15005  11.567   7.113   6.416  0.2251  0.2359 -0.1629
 1099YOPC   C4A15006  11.281   7.167   6.778  0.1728  0.0245  0.3486
 1099YOPC   C1B15007  12.269   6.746   6.053 -0.0279 -0.1619  0.0586
 1099YOPC   C2B15008  12.195   6.939   6.432 -0.0973  0.0552  0.2470
 1099YOPC   D3B15009  12.413   7.146   6.730  0.0503  0.2482  0.0090
 1099YOPC   C4B15010  12.201   7.392   7.157 -0.0555 -0.0730  0.0730
 1100YOPC   NC315011  13.340   7.082   5.320 -0.0452  0.0316 -0.0827
 1100YOPC   PO415012  13.485   7.465   5.345  0.1670 -0.0882 -0.2167
 1100YOPC   GL115013  13.338   7.387   5.694  0.1204 -0.3569 -0.1083
 1100YOPC   GL215014  13.020   7.473   5.595 -0.1666 -0.2166  0.0114
 1100YOPC   C1A15015  13.060   7.180   5.996 -0.2324  0.3328  0.0200
 1100YOPC   D2A15016  13.109   6.962   6.419 -0.0703 -0.0311  0.1058
 1100YOPC   C3A15017  12.968   7.045   6.742  0.0841 -0.2790  0.0482
 1100YOPC   C4A15018  12.840   6.889   7.105  0.0531 -0.1387 -0.0873
 1100YOPC   C1B15019  12.722   7.568   5.943  0.4896 -0.1736  0.1602
 1100YOPC   C2B15020  12.547   7.904   6.284  0.0358 -0.1315 -0.1246
 1100YOPC   D3B15021  12.214   7.818   6.586  0.1640 -0.0712 -0.0881
 1100YOPC   C4B15022  11.994   7.464   6.442  0.0194  0.3392  0.0347
 1101YOPC   NC315023   0.749   2.724   5.222  0.1282  0.1000 -0.1384
 1101YOPC   PO415024   1.149   3.024   5.284 -0.0642 -0.2404 -0.0984
 1101YOPC   GL115025   1.374   3.246   5.654 -0.1986  0.0912  0.3155
 1101YOPC   GL215026   1.322   2.930   5.799  0.3470 -0.4377  0.2127
 1101YOPC   C1A15027   1.429   3.251   6.143  0.0462  0.0191 -0.0058
 1101YOPC   D2A15028   1.510   3.301   6.570  0.1360  0.1187  0.2226
 1101YOPC   C3A15029   1.364   3.593   6.868  0.2258  0.0787 -0.0825
 1101YOPC   C4A15030   1.084   3.932   6.765 -0.0592  0.0572 -0.1999
 1101YOPC   C1B15031   1.622   2.727   6.120  0.1281 -0.0868  0.2714
 1101YOPC   C2B15032   1.627   2.870   6.489  0.0745 -0.0655 -0.0808
 1101YOPC   D3B15033   1.469   2.772   6.789 -0.4447  0.0716  0.1528
 1101YOPC   C4B15034   1.490   2.528   7.184 -0.1004  0.2330  0.3658
 1102YOPC   NC315035  16.086  18.257   5.587 -0.1065 -0.0016 -0.2830
 1102YOPC   PO415036  15.985  18.287   5.953  0.1516  0.0789 -0.0034
 1102YOPC   GL115037  16.043  18.182   6.453  0.1911 -0.1257 -0.0456
 1102YOPC   GL215038  16.126  17.840   6.439  0.1159  0.0159 -0.1381
 1102YOPC   C1A15039  16.045  18.121   6.825  0.3174  0.6431 -0.0652
 1102YOPC   D2A15040  16.191  17.759   7.236 -0.2584  0.4936  0.0875
 1102YOPC   C3A15041  16.298  17.450   7.060 -0.2545  0.3167  0.0291
 1102YOPC   C4A15042  16.835  17.368   6.871  0.2437 -0.1972  0.0831
 1102YOPC   C1B15043  15.863  17.579   6.744 -0.0729 -0.5488 -0.1195
 1102YOPC   C2B15044  15.760  17.187   6.988  0.1114  0.0111  0.1333
 1102YOPC   D3B15045  16.058  16.924   7.241  0.2470  0.1053 -0.2353
 1102YOPC   C4B15046  16.222  17.158   7.492 -0.2079  0.0700 -0.2759
 1103YOPC   NC315047   3.518   3.949   4.751 -0.3803 -0.2384 -0.0474
 1103YOPC   PO415048   3.670   4.080   5.097 -0.3112 -0.0791 -0.3251
 1103YOPC   GL115049   3.672   4.327   5.424 -0.0984 -0.1446  0.1952
 1103YOPC   GL215050   3.327   4.385   5.478 -0.0536  0.0049  0.3649
 1103YOPC   C1A15051   3.821   4.571   5.734 -0.0096  0.0876 -0.6323
 1103YOPC   D2A15052   3.838   4.846   6.164  0.0784 -0.0104 -0.4395
 1103YOPC   C3A15053   3.701   4.545   6.427 -0.1106  0.2628  0.1519
 1103YOPC   C4A15054   3.578   4.102   6.406  0.1821 -0.1116  0.1351
 1103YOPC   C1B15055   3.493   4.146   5.823 -0.0074 -0.2052 -0.2211
 1103YOPC   C2B15056   3.655   3.767   6.059 -0.1440 -0.1086 -0.1376
 1103YOPC   D3B15057   3.964   3.694   6.389  0.2194  0.0930 -0.3253
 1103YOPC   C4B15058   4.094   3.616   6.715 -0.0807  0.2046 -0.0301
 1104YOPC   NC315059  12.522  17.259   5.274  0.1569 -0.2104  0.3123
 1104YOPC   PO415060  12.407  17.485   5.727 -0.1347 -0.3273 -0.2283
 1104YOPC   GL115061  12.250  17.363   6.122 -0.0665 -0.0089 -0.0648
 1104YOPC   GL215062  12.397  17.015   6.110  0.0005  0.0801 -0.2856
 1104YOPC   C1A15063  11.868  17.504   6.463 -0.0985 -0.2174  0.0670
 1104YOPC   D2A15064  11.791  17.500   6.872  0.3247  0.3421  0.2024
 1104YOPC   C3A15065  12.006  17.537   7.313 -0.0279  0.2171  0.1786
 1104YOPC   C4A15066  12.227  17.514   7.769 -0.0901 -0.1263 -0.2319
 1104YOPC   C1B15067  12.440  16.676   6.385 -0.2196  0.1704  0.1564
 1104YOPC   C2B15068  12.309  16.413   6.593 -0.1121  0.1250  0.1493
 1104YOPC   D3B15069  11.922  16.198   6.626  0.2033 -0.0464  0.2066
 1104YOPC   C4B15070  11.672  15.871   6.780  0.0341 -0.0246  0.1684
 1105YOPC   NC315071  18.380  14.288   5.363 -0.1744 -0.2369 -0.2187
 1105YOPC   PO415072  18.639  14.643   5.259 -0.0286  0.0636  0.1428
 1105YOPC   GL115073  19.042  14.620   5.423  0.0702  0.1233 -0.0378
 1105YOPC   GL215074  19.445  14.638   5.354 -0.1464 -0.0426 -0.3750
 1105YOPC   C1A15075  19.074  14.895   5.855 -0.0798 -0.1171  0.0360
 1105YOPC   D2A15076  19.055  15.254   6.106  0.0148 -0.4761  0.2734
 1105YOPC   C3A15077  18.957  15.162   6.457  0.0348  0.0981  0.2198
 1105YOPC   C4A15078  18.636  15.018   6.451 -0.2250 -0.0753 -0.2400
 1105YOPC   C1B15079  19.593  14.743   5.757 -0.1023 -0.3826  0.1157
 1105YOPC   C2B15080  19.814  14.945   6.160  0.2855  0.4070  0.1397
 1105YOPC   D3B15081  20.120  14.773   6.452 -0.0988 -0.3748  0.2268
 1105YOPC   C4B15082  20.520  14.572   6.618 -0.3866  0.1065 -0.2164
 1106YOPC   NC315083   3.875  12.726   5.344 -0.2099  0.2391  0.1114
 1106YOPC   PO415084   3.542  12.473   5.520 -0.3176 -0.2223  0.4115
 1106YOPC   GL115085   3.176  12.452   5.677  0.0106  0.5176  0.2944
 1106YOPC   GL215086   3.182  12.421   6.054  0.1888  0.0190 -0.1692
 1106YOPC   C1A15087   2.752  12.478   5.750  0.0988 -0.1348 -0.1519
 1106YOPC   D2A15088   2.784  12.784   5.961 -0.1987  0.0407  0.0435
 1106YOPC   C3A15089   2.869  12.678   6.404 -0.0440  0.0626 -0.2232
 1106YOPC   C4A15090   3.140  12.586   6.599 -0.2058  0.2869 -0.0250
 1106YOPC   C1B15091   3.269  12.862   6.107 -0.0269 -0.0904  0.0223
 1106YOPC   C2B15092   3.398  13.222   6.309 -0.1103  0.1439  0.2323
 1106YOPC   D3B15093   3.313  13.359   6.558  0.0849 -0.0980  0.0571
 1106YOPC   C4B15094   3.013  13.567   6.855  0.1433  0.2775  0.0942
 1107YOPC   NC315095  18.336  11.594   5.483  0.0286  0.2370 -0.1187
 1107YOPC   PO415096  18.494  12.025   5.599  0.3012  0.2153  0.3399
 1107YOPC   GL115097  18.481  12.034   6.003  0.1523  0.4466  0.0616
 1107YOPC   GL215098  18.139  12.006   6.078 -0.3786 -0.1500 -0.2386
 1107YOPC   C1A15099  18.508  12.195   6.292  0.1026 -0.0371 -0.1687
 1107YOPC   D2A15100  18.294  12.021   6.524  0.0116 -0.3011 -0.0141
 1107YOPC   C3A15101  18.342  12.053   6.996  0.2218  0.1071  0.2546
 1107YOPC   C4A15102  18.456  11.821   7.421 -0.5098 -0.1618  0.1952
 1107YOPC   C1B15103  17.810  12.057   6.351 -0.0262  0.0633  0.1369
 1107YOPC   C2B15104  17.647  12.018   6.769 -0.0457  0.3574 -0.1512
 1107YOPC   D3B15105  17.330  11.787   6.949 -0.0622 -0.1001 -0.0934
 1107YOPC   C4B15106  17.415  11.322   7.082  0.0953 -0.0112 -0.1748
 1108YOPC   NC315107  14.399   6.391   5.580  0.4853 -0.4254  0.0487
 1108YOPC   PO415108  13.957   6.358   5.568 -0.0610 -0.3448 -0.0965
 1108YOPC   GL115109  13.668   6.395   5.887  0.0251 -0.1543  0.0624
 1108YOPC   GL215110  13.864   6.660   6.034  0.1381 -0.1356  0.4275
 1108YOPC   C1A15111  13.677   6.153   6.208 -0.3323 -0.3590  0.0232
 1108YOPC   D2A15112  13.651   6.189   6.666  0.0045 -0.2406 -0.0598
 1108YOPC   C3A15113  13.847   6.020   7.151  0.0318 -0.1493 -0.2821
 1108YOPC   C4A15114  14.102   5.859   7.419 -0.0239  0.1320 -0.1398
 1108YOPC   C1B15115  14.065   6.889   6.159 -0.0669  0.1779 -0.3101
 1108YOPC   C2B15116  14.411   7.068   6.237 -0.2703  0.1582  0.1844
 1108YOPC   D3B15117  14.764   7.042   6.312  0.1693  0.2027 -0.0249
 1108YOPC   C4B15118  15.158   7.440   6.160  0.3362  0.0500  0.3484
 1109YOPC   NC315119  14.168   5.916   5.563 -0.4010 -0.0179 -0.0214
 1109YOPC   PO415120  14.581   5.967   5.691  0.2373 -0.2785  0.3954
 1109YOPC   GL115121  14.438   6.104   5.995 -0.1581  0.2212 -0.0018
 1109YOPC   GL215122  14.195   6.288   6.030 -0.0077 -0.0199 -0.3314
 1109YOPC   C1A15123  14.391   6.097   6.405 -0.2024  0.2179 -0.0712
 1109YOPC   D2A15124  14.264   6.115   6.749  0.0046 -0.2022 -0.0510
 1109YOPC   C3A15125  14.579   5.910   6.995  0.1250 -0.1977 -0.2291
 1109YOPC   C4A15126  14.547   5.573   7.363  0.0509 -0.4162 -0.1470
 1109YOPC   C1B15127  14.038   6.417   6.395 -0.0407  0.0528  0.0638
 1109YOPC   C2B15128  13.949   6.596   6.825  0.2227 -0.1033  0.4112
 1109YOPC   D3B15129  13.575   6.470   7.130 -0.3669  0.1168 -0.1204
 1109YOPC   C4B15130  13.165   6.391   7.266 -0.2057  0.0127  0.2300
 1110YOPC   NC315131  18.266   6.283   5.381  0.2126 -0.0434  0.1091
 1110YOPC   PO415132  18.095   5.918   5.511  0.1632 -0.0797 -0.1675
 1110YOPC   GL115133  18.077   6.214   5.862 -0.0681  0.2132  0.1317
 1110YOPC   GL215134  18.091   6.044   6.067  0.0922 -0.1247  0.0342
 1110YOPC   C1A15135  17.899   6.437   6.304  0.0098 -0.0513  0.0202
 1110YOPC   D2A15136  18.086   6.088   6.620 -0.1081  0.2475  0.0972
 1110YOPC   C3A15137  17.972   6.133   7.109  0.0211 -0.0804  0.2822
 1110YOPC   C4A15138  17.897   6.249   7.586 -0.0398  0.3140  0.1867
 1110YOPC   C1B15139  18.392   6.325   6.305 -0.3133 -0.2712  0.1504
 1110YOPC   C2B15140  18.863   6.262   6.348  0.6199  0.1660  0.0262
 1110YOPC   D3B15141  19.108   5.999   6.492 -0.0065  0.0735 -0.0695
 1110YOPC   C4B15142  19.182   5.534   6.475  0.2542 -0.0510  0.0795
 1111YOPC   NC315143   9.352   5.565   5.176  0.0516  0.2782  0.0504
 1111YOPC   PO415144   9.674   5.210   5.138  0.2633  0.0168 -0.1037
 1111YOPC   GL115145   9.600   4.930   5.474 -0.0769 -0.1725  0.2594
 1111YOPC   GL215146   9.497   5.266   5.603  0.2679 -0.2458  0.1519
 1111YOPC   C1A15147   9.510   4.679   5.829 -0.1395 -0.1314 -0.3372
 1111YOPC   D2A15148   9.409   4.633   6.227  0.1299 -0.3341 -0.0678
 1111YOPC   C3A15149   9.130   4.952   6.377 -0.1827 -0.0788 -0.1885
 1111YOPC   C4A15150   8.868   5.103   6.621  0.0097  0.2283 -0.1376
 1111YOPC   C1B15151   9.493   5.095   6.085  0.0925 -0.0302  0.0861
 1111YOPC   C2B15152   9.612   5.112   6.532 -0.1419  0.0230  0.1732
 1111YOPC   D3B15153   9.643   5.434   6.925  0.1951 -0.0574  0.3165
 1111YOPC   C4B15154   9.940   5.600   7.260  0.1157  0.1304  0.2956
 1112YOPC   NC315155   6.048  10.945   5.607  0.1982  0.0737  0.1804
 1112YOPC   PO415156   5.810  10.636   5.666 -0.3475  0.0858 -0.1798
 1112YOPC   GL115157   5.517  10.880   5.846  0.0191 -0.3216 -0.1205
 1112YOPC   GL215158   5.120  10.931   5.743 -0.0920 -0.0471  0.2447
 1112YOPC   C1A15159   5.302  11.046   6.215  0.3367  0.1295 -0.1939
 1112YOPC   D2A15160   5.160  10.946   6.549 -0.1395  0.1087 -0.2431
 1112YOPC   C3A15161   5.340  10.614   6.873  0.0352  0.0468 -0.0415
 1112YOPC   C4A15162   5.275  10.542   7.339  0.1800 -0.0688 -0.2858
 1112YOPC   C1B15163   5.041  10.655   6.129  0.2230 -0.3896  0.1686
 1112YOPC   C2B15164   5.015  10.381   6.535  0.4203 -0.0698  0.0608
 1112YOPC   D3B15165   4.841  10.276   7.015 -0.0261  0.0888 -0.3495
 1112YOPC   C4B15166   4.573  10.538   7.297 -0.0231  0.1244  0.0552
 1113YOPC   NC315167   1.264   9.258   4.612 -0.2004  0.2660  0.1577
 1113YOPC   PO415168   1.358   8.933   4.986  0.0384  0.1240  0.2758
 1113YOPC   GL115169   1.480   8.953   5.367 -0.3230  0.0549  0.3201
 1113YOPC   GL215170   1.811   8.885   5.240 -0.1794 -0.5173  0.0688
 1113YOPC   C1A15171   1.648   9.093   5.692 -0.1678 -0.2115 -0.2407
 1113YOPC   D2A15172   1.535   9.385   5.964  0.1080  0.1148 -0.0905
 1113YOPC   C3A15173   1.750   9.310   6.381 -0.0511 -0.2500  0.1463
 1113YOPC   C4A15174   2.072   9.256   6.695 -0.1510  0.2207  0.2117
 1113YOPC   C1B15175   2.003   8.763   5.630 -0.1908  0.0765  0.0619
 1113YOPC   C2B15176   1.895   8.998   6.088 -0.4226 -0.0909  0.2065
 1113YOPC   D3B15177   2.246   9.001   6.324  0.2830 -0.0724  0.3244
 1113YOPC   C4B15178   2.594   9.055   6.636  0.0626 -0.0438  0.1387
 1114YOPC   NC315179  12.898  14.511   5.816  0.1389 -0.2363 -0.1155
 1114YOPC   PO415180  12.808  14.844   6.058  0.0478  0.1203 -0.1144
 1114YOPC   GL115181  12.961  14.887   6.400 -0.0396 -0.0826  0.1475
 1114YOPC   GL215182  13.009  14.472   6.335 -0.3109  0.1155 -0.2325
 1114YOPC   C1A15183  12.846  15.017   6.861 -0.0584 -0.0657 -0.0584
 1114YOPC   D2A15184  12.926  14.823   7.182  0.1080  0.0286  0.1030
 1114YOPC   C3A15185  12.626  14.659   7.542  0.0702  0.1753  0.1814
 1114YOPC   C4A15186  12.365  14.694   7.810  0.0022  0.3597 -0.1890
 1114YOPC   C1B15187  12.877  14.287   6.705 -0.0646 -0.0439 -0.0676
 1114YOPC   C2B15188  12.709  14.409   7.003  0.0936 -0.2069 -0.0318
 1114YOPC   D3B15189  12.601  14.197   7.409 -0.0117  0.1980 -0.0798
 1114YOPC   C4B15190  12.847  13.891   7.541  0.1432 -0.1681  0.2345
 1115YOPC   NC315191  16.798   2.911   5.826 -0.0355  0.0408 -0.4345
 1115YOPC   PO415192  16.294   2.789   5.688  0.0726 -0.0934 -0.3641
 1115YOPC   GL115193  16.028   2.732   6.078  0.1852  0.0754  0.2410
 1115YOPC   GL215194  15.741   2.778   6.254 -0.1099 -0.0788  0.1429
 1115YOPC   C1A15195  16.182   2.936   6.474 -0.1975  0.2975  0.1939
 1115YOPC   D2A15196  16.393   3.150   6.776  0.0898  0.0589  0.0679
 1115YOPC   C3A15197  16.341   3.428   7.184 -0.1819  0.0764 -0.0704
 1115YOPC   C4A15198  16.365   3.846   7.420 -0.0634  0.0562 -0.1432
 1115YOPC   C1B15199  15.438   3.071   6.370  0.3119  0.1763  0.0540
 1115YOPC   C2B15200  15.218   2.898   6.722 -0.0363 -0.2474 -0.1577
 1115YOPC   D3B15201  15.273   2.924   7.209  0.0921  0.3554 -0.0079
 1115YOPC   C4B15202  15.543   2.986   7.532  0.0753 -0.0262 -0.0101
 1116YOPC   NC315203   8.179   7.590   5.144  0.0162  0.0165  0.0136
 1116YOPC   PO415204   8.367   7.237   4.978 -0.0884  0.0086 -0.2913
 1116YOPC   GL115205   8.253   7.219   5.419 -0.4009 -0.0287  0.0177
 1116YOPC   GL215206   8.570   7.089   5.517 -0.0050 -0.0511 -0.2028
 1116YOPC   C1A15207   8.156   7.355   5.803  0.2311  0.0797  0.2534
 1116YOPC   D2A15208   8.089   7.635   6.156 -0.0578  0.4932 -0.0642
 1116YOPC   C3A15209   8.393   7.762   6.383  0.0894 -0.0597  0.1446
 1116YOPC   C4A15210   8.709   7.593   6.591  0.0707  0.1751  0.0296
 1116YOPC   C1B15211   8.340   6.827   5.659 -0.0340  0.1157  0.1175
 1116YOPC   C2B15212   8.201   6.874   5.976 -0.2398 -0.0518 -0.0449
 1116YOPC   D3B15213   8.380   7.074   6.291  0.1741 -0.1192  0.0533
 1116YOPC   C4B15214   8.528   7.124   6.645 -0.1545 -0.0395 -0.0813
 1117YOPC   NC315215  12.229   4.610   5.065  0.3240 -0.2380 -0.0627
 1117YOPC   PO415216  12.225   5.046   5.218 -0.0192 -0.0431  0.0072
 1117YOPC   GL115217  12.396   5.174   5.580 -0.0238 -0.3055  0.3236
 1117YOPC   GL215218  12.249   5.373   5.669  0.0937 -0.1661  0.0268
 1117YOPC   C1A15219  12.668   5.182   5.985  0.2296  0.2178 -0.0656
 1117YOPC   D2A15220  12.757   5.350   6.314  0.3102  0.0054 -0.1816
 1117YOPC   C3A15221  12.996   5.094   6.603 -0.0805  0.1791  0.0831
 1117YOPC   C4A15222  13.426   4.944   6.673  0.5563 -0.3645  0.1827
 1117YOPC   C1B15223  11.975   5.193   5.896 -0.0675 -0.1772 -0.0883
 1117YOPC   C2B15224  11.626   4.841   5.906  0.1980 -0.1761  0.3341
 1117YOPC   D3B15225  11.455   4.719   6.288  0.2881 -0.3457  0.1013
 1117YOPC   C4B15226  11.583   4.944   6.728  0.0790 -0.4930  0.2513
 1118YOPC   NC315227   2.129   9.447   4.719 -0.2969  0.2568 -0.0430
 1118YOPC   PO415228   2.212   9.099   4.951 -0.2370  0.1710 -0.0697
 1118YOPC   GL115229   2.105   9.366   5.289  0.0967 -0.2231  0.3729
 1118YOPC   GL215230   2.125   9.250   5.479 -0.0721  0.0744  0.1147
 1118YOPC   C1A15231   1.725   9.586   5.532 -0.5606 -0.1303 -0.2323
 1118YOPC   D2A15232   1.916   9.800   6.014 -0.1725  0.3016  0.2956
 1118YOPC   C3A15233   1.978   9.779   6.433 -0.0252 -0.1908 -0.0985
 1118YOPC   C4A15234   2.015   9.686   6.874  0.3408 -0.2082  0.0873
 1118YOPC   C1B15235   2.378   9.081   5.765  0.0999 -0.2603 -0.1760
 1118YOPC   C2B15236   2.732   9.158   6.056 -0.3516 -0.2096 -0.2053
 1118YOPC   D3B15237   2.978   9.308   6.359 -0.0589  0.1793 -0.0320
 1118YOPC   C4B15238   3.015   9.374   6.797 -0.1502  0.1142  0.1828
 1119YOPC   NC315239  18.527  12.946   5.026 -0.2328  0.0129  0.0517
 1119YOPC   PO415240  18.521  12.977   5.504 -0.1257 -0.0708 -0.1959
 1119YOPC   GL115241  18.737  13.194   5.788 -0.0052 -0.0037  0.1168
 1119YOPC   GL215242  18.993  13.098   5.996  0.6399  0.3402  0.1867
 1119YOPC   C1A15243  18.673  13.507   6.135  0.0375 -0.1523 -0.0964
 1119YOPC   D2A15244  19.013  13.570   6.325 -0.0883  0.0638 -0.0288
 1119YOPC   C3A15245  19.164  13.546   6.834 -0.2283 -0.1290 -0.0603
 1119YOPC   C4A15246  19.290  13.949   6.915 -0.2837 -0.2668  0.0364
 1119YOPC   C1B15247  18.844  13.087   6.435  0.1223  0.0102 -0.0161
 1119YOPC   C2B15248  18.869  13.122   6.887  0.2129 -0.2564 -0.1728
 1119YOPC   D3B15249  19.275  13.072   7.039  0.1535  0.2875 -0.1834
 1119YOPC   C4B15250  19.724  13.026   7.215 -0.3653  0.2336  0.1691
 1120YOPC   NC315251   4.959   1.554   4.761 -0.1989 -0.3763  0.2896
 1120YOPC   PO415252   4.681   1.446   4.992  0.1008 -0.0417  0.1973
 1120YOPC   GL115253   4.509   1.692   5.331  0.0527  0.1219  0.0811
 1120YOPC   GL215254   4.558   1.555   5.703 -0.1996 -0.0329  0.0089
 1120YOPC   C1A15255   4.285   1.974   5.517 -0.4056  0.0716  0.0584
 1120YOPC   D2A15256   4.019   2.240   5.667  0.0345  0.1524 -0.0306
 1120YOPC   C3A15257   3.874   2.365   6.049 -0.0136  0.1911  0.0779
 1120YOPC   C4A15258   3.820   2.390   6.490  0.1633  0.3140 -0.1738
 1120YOPC   C1B15259   4.789   1.873   5.693  0.4092  0.3983  0.0101
 1120YOPC   C2B15260   4.717   2.322   5.657 -0.0546  0.1323 -0.1386
 1120YOPC   D3B15261   4.452   2.319   5.939  0.2176  0.1562  0.1924
 1120YOPC   C4B15262   4.376   2.434   6.308  0.0116  0.0686  0.0208
 1121YOPC   NC315263   1.591   1.009   5.358 -0.2347 -0.0667 -0.0365
 1121YOPC   PO415264   2.076   0.830   5.321  0.1204 -0.1432 -0.5012
 1121YOPC   GL115265   2.215   0.594   5.608  0.2401  0.1821 -0.2602
 1121YOPC   GL215266   2.130   0.541   6.014  0.2713 -0.1440 -0.1860
 1121YOPC   C1A15267   2.464   0.275   5.751 -0.1344  0.0627 -0.1250
 1121YOPC   D2A15268   2.695   0.027   6.123 -0.0506  0.1351 -0.2834
 1121YOPC   C3A15269   2.836   0.077   6.467  0.2059  0.0215  0.4871
 1121YOPC   C4A15270   2.671   0.277   6.827 -0.0832  0.0186  0.2276
 1121YOPC   C1B15271   2.270   0.409   6.496  0.2346 -0.0716 -0.0496
 1121YOPC   C2B15272   2.099   0.377   6.905 -0.0678  0.1654 -0.2541
 1121YOPC   D3B15273   1.637   0.520   6.873  0.0404 -0.2778 -0.1445
 1121YOPC   C4B15274   1.306   0.736   6.705 -0.1753  0.2190 -0.0015
 1122YOPC   NC315275   3.878  10.409   5.109  0.1269 -0.2992  0.1344
 1122YOPC   PO415276   3.609  10.719   5.198  0.2001  0.1881  0.2649
 1122YOPC   GL115277   3.489  10.720   5.664 -0.0057 -0.2097  0.1447
 1122YOPC   GL215278   3.703  10.721   5.836  0.2798 -0.2082  0.0444
 1122YOPC   C1A15279   3.213  10.666   6.033 -0.0321  0.1094  0.0762
 1122YOPC   D2A15280   2.908  10.915   6.287 -0.1431  0.0026  0.1636
 1122YOPC   C3A15281   2.793  11.293   6.068 -0.0337 -0.1714  0.1964
 1122YOPC   C4A15282   2.932  11.646   6.260  0.0338 -0.0372 -0.4122
 1122YOPC   C1B15283   3.836  10.976   6.117  0.1752 -0.0208 -0.0081
 1122YOPC   C2B15284   3.774  11.188   6.390 -0.0376  0.2798  0.1272
 1122YOPC   D3B15285   3.784  11.179   6.825  0.4835 -0.0822 -0.0543
 1122YOPC   C4B15286   3.650  11.203   7.244 -0.1967  0.0638  0.3195
 1123YOPC   NC315287  14.622   1.575   5.428 -0.3551 -0.2733 -0.0183
 1123YOPC   PO415288  14.291   1.376   5.736 -0.1220  0.0425 -0.2588
 1123YOPC   GL115289  14.257   1.179   6.150 -0.2004 -0.0770 -0.1473
 1123YOPC   GL215290  13.959   1.287   6.296 -0.2050 -0.0768 -0.2067
 1123YOPC   C1A15291  14.229   1.014   6.567  0.0646  0.2943 -0.1306
 1123YOPC   D2A15292  14.163   0.751   7.012  0.0284  0.4225 -0.3356
 1123YOPC   C3A15293  13.958   0.797   7.379 -0.0296  0.0803  0.3597
 1123YOPC   C4A15294  13.647   0.634   7.709  0.1579 -0.2604 -0.0520
 1123YOPC   C1B15295  13.977   1.472   6.665  0.1184 -0.0224  0.1957
 1123YOPC   C2B15296  13.996   1.258   7.020 -0.2687 -0.1299 -0.0453
 1123YOPC   D3B15297  13.982   1.436   7.329 -0.0003  0.0858 -0.0964
 1123YOPC   C4B15298  13.930   1.543   7.710  0.1317  0.1427  0.2412
 1124YOPC   NC315299  14.509  10.087   5.695  0.0820 -0.1690 -0.0910
 1124YOPC   PO415300  14.358   9.663   5.736  0.2885  0.2596 -0.1023
 1124YOPC   GL115301  14.566   9.730   6.157  0.2118 -0.1222 -0.0419
 1124YOPC   GL215302  14.341   9.992   6.209 -0.2424 -0.0471 -0.1014
 1124YOPC   C1A15303  14.473   9.401   6.347  0.1926  0.2745 -0.0315
 1124YOPC   D2A15304  14.431   9.422   6.841  0.0584  0.1179  0.1989
 1124YOPC   C3A15305  14.351   9.826   7.038  0.3205 -0.0817  0.1764
 1124YOPC   C4A15306  14.342  10.038   7.388  0.0942 -0.0181  0.1648
 1124YOPC   C1B15307  13.973  10.125   6.339 -0.0605  0.1105 -0.3764
 1124YOPC   C2B15308  13.696  10.326   6.660 -0.2717 -0.1449 -0.0145
 1124YOPC   D3B15309  13.884  10.682   6.956 -0.1643  0.2173  0.2153
 1124YOPC   C4B15310  13.758  10.997   7.378 -0.1104  0.1656 -0.0678
 1125YOPC   NC315311   8.770  15.738   5.439  0.1187 -0.2281 -0.0451
 1125YOPC   PO415312   8.505  15.479   5.423  0.1559  0.0959  0.0723
 1125YOPC   GL115313   8.824  15.462   5.859 -0.1779  0.0603  0.1554
 1125YOPC   GL215314   8.580  15.544   6.113 -0.1175 -0.1363  0.0265
 1125YOPC   C1A15315   9.167  15.317   6.013  0.0236  0.1951 -0.2066
 1125YOPC   D2A15316   9.530  15.027   6.021  0.3600  0.1278 -0.1662
 1125YOPC   C3A15317   9.906  15.092   6.344  0.2191  0.0170  0.0869
 1125YOPC   C4A15318   9.962  15.183   6.848 -0.0674 -0.1278  0.2998
 1125YOPC   C1B15319   8.459  15.266   6.544 -0.2081 -0.0420  0.0558
 1125YOPC   C2B15320   8.333  15.162   7.024  0.3884  0.2142  0.1911
 1125YOPC   D3B15321   8.222  14.806   7.316  0.0103  0.3105 -0.2304
 1125YOPC   C4B15322   8.426  14.511   7.581 -0.4429 -0.0649  0.1726
 1126YOPC   NC315323   3.516  14.148   4.788  0.1567  0.0875  0.0397
 1126YOPC   PO415324   3.496  13.837   5.211 -0.0535  0.3956  0.4819
 1126YOPC   GL115325   3.638  13.752   5.521  0.0781 -0.0072 -0.1911
 1126YOPC   GL215326   3.621  13.427   5.825 -0.1017 -0.2686  0.0305
 1126YOPC   C1A15327   3.927  13.863   5.846 -0.1518  0.1475  0.3707
 1126YOPC   D2A15328   3.948  13.731   6.256  0.1710 -0.3017  0.2461
 1126YOPC   C3A15329   3.793  13.478   6.496 -0.2192 -0.0793 -0.0344
 1126YOPC   C4A15330   3.862  13.274   6.937  0.0105 -0.1537 -0.0381
 1126YOPC   C1B15331   3.477  13.715   6.157  0.2356 -0.3543  0.0421
 1126YOPC   C2B15332   3.474  13.801   6.607  0.4988 -0.1746  0.0342
 1126YOPC   D3B15333   3.488  13.599   6.937  0.1546 -0.0697  0.3018
 1126YOPC   C4B15334   3.346  13.175   7.128  0.1793  0.0301  0.0949
 1127YOPC   NC315335  18.932   5.332   4.846 -0.4864  0.2611  0.0679
 1127YOPC   PO415336  19.035   5.371   5.272 -0.1081 -0.1399 -0.2710
 1127YOPC   GL115337  19.189   5.568   5.679 -0.1730  0.0595  0.0233
 1127YOPC   GL215338  18.993   5.759   5.743  0.0506 -0.0954  0.0225
 1127YOPC   C1A15339  19.372   5.820   6.084 -0.2756 -0.3534  0.3022
 1127YOPC   D2A15340  19.592   5.863   6.450  0.1333  0.2346  0.1098
 1127YOPC   C3A15341  19.548   5.713   6.893 -0.0422  0.0324 -0.2191
 1127YOPC   C4A15342  19.597   5.624   7.314 -0.0761  0.3992  0.1919
 1127YOPC   C1B15343  18.832   5.607   6.037  0.4010  0.5357 -0.1732
 1127YOPC   C2B15344  18.827   5.218   6.202  0.0900 -0.1687 -0.0496
 1127YOPC   D3B15345  18.835   5.221   6.509  0.0668  0.1094  0.3637
 1127YOPC   C4B15346  18.622   5.518   6.842 -0.0739  0.4303  0.1865
 1128YOPC   NC315347   3.548   7.135   5.156 -0.0272 -0.2210  0.3564
 1128YOPC   PO415348   3.342   6.992   5.454  0.0337 -0.3869 -0.1543
 1128YOPC   GL115349   3.195   6.762   5.895  0.0315  0.3757  0.0132
 1128YOPC   GL215350   2.937   6.649   5.817 -0.0589  0.4606 -0.2705
 1128YOPC   C1A15351   3.278   6.781   6.283 -0.1635 -0.1446 -0.0118
 1128YOPC   D2A15352   3.252   6.908   6.758 -0.4613  0.1218  0.1079
 1128YOPC   C3A15353   3.587   7.184   6.960 -0.0208  0.1353  0.0919
 1128YOPC   C4A15354   4.069   7.198   6.860 -0.0087  0.2138  0.1551
 1128YOPC   C1B15355   2.844   6.485   6.260  0.0195 -0.0922  0.1196
 1128YOPC   C2B15356   2.471   6.481   6.567  0.1301  0.3069 -0.0929
 1128YOPC   D3B15357   2.450   6.662   7.042  0.2127 -0.2829  0.0880
 1128YOPC   C4B15358   2.306   7.082   7.117  0.1619 -0.0405  0.0239
 1129YOPC   NC315359   2.340   4.650   4.791 -0.1857  0.1826  0.0986
 1129YOPC   PO415360   2.618   4.380   5.004  0.4116 -0.0851  0.2839
 1129YOPC   GL115361   2.814   4.384   5.381  0.0954  0.0338  0.3727
 1129YOPC   GL215362   2.755   4.093   5.518 -0.1598 -0.3372  0.0148
 1129YOPC   C1A15363   2.949   4.490   5.780  0.1512  0.0659  0.0187
 1129YOPC   D2A15364   2.872   4.568   6.204 -0.0741 -0.1593 -0.0630
 1129YOPC   C3A15365   3.235   4.454   6.505  0.3881  0.0420  0.2734
 1129YOPC   C4A15366   3.231   4.247   6.966  0.0154 -0.0890 -0.3318
 1129YOPC   C1B15367   2.537   4.280   5.962 -0.2275  0.0347 -0.3529
 1129YOPC   C2B15368   2.313   4.517   6.324 -0.4170  0.1308  0.2292
 1129YOPC   D3B15369   2.359   4.509   6.754 -0.0888  0.1634 -0.1847
 1129YOPC   C4B15370   2.198   4.668   7.075  0.3269 -0.1391 -0.3537
 1130YOPC   NC315371   5.500  13.564   4.800  0.0903 -0.0128 -0.0658
 1130YOPC   PO415372   5.193  13.805   4.817  0.0716  0.2652 -0.0240
 1130YOPC   GL115373   5.121  13.971   5.288  0.0629 -0.2317  0.0592
 1130YOPC   GL215374   4.999  13.759   5.477 -0.0515 -0.3354 -0.1915
 1130YOPC   C1A15375   4.726  14.157   5.522  0.1744 -0.2209  0.2045
 1130YOPC   D2A15376   4.625  14.325   5.877  0.0284 -0.2214  0.1889
 1130YOPC   C3A15377   4.270  14.199   6.083  0.2700  0.3185  0.1234
 1130YOPC   C4A15378   3.848  14.242   6.134  0.2916 -0.2502 -0.0534
 1130YOPC   C1B15379   4.794  13.791   5.880 -0.0335 -0.1803  0.0053
 1130YOPC   C2B15380   4.449  13.757   6.298 -0.1730 -0.1300  0.1328
 1130YOPC   D3B15381   4.405  14.059   6.650  0.1042  0.1542  0.2722
 1130YOPC   C4B15382   4.424  14.540   6.681  0.0206 -0.0785  0.0329
 1131YOPC   NC315383  13.581   9.066   5.412  0.0141  0.2679  0.2036
 1131YOPC   PO415384  13.674   8.789   5.679 -0.1013 -0.0277 -0.0622
 1131YOPC   GL115385  13.382   8.805   6.062  0.2099  0.2529  0.1987
 1131YOPC   GL215386  13.519   9.017   6.313 -0.2373  0.3634  0.1519
 1131YOPC   C1A15387  13.277   8.589   6.463  0.0206  0.0021  0.0561
 1131YOPC   D2A15388  13.100   8.361   6.798 -0.2491  0.3273  0.2069
 1131YOPC   C3A15389  13.157   7.833   6.764 -0.0412 -0.1612 -0.1130
 1131YOPC   C4A15390  13.522   7.666   6.781 -0.2857 -0.1044 -0.0091
 1131YOPC   C1B15391  13.668   8.737   6.694 -0.1441 -0.0186 -0.0874
 1131YOPC   C2B15392  13.892   8.732   7.130 -0.3544 -0.2885 -0.0013
 1131YOPC   D3B15393  14.108   9.084   7.296  0.0025 -0.2596 -0.3293
 1131YOPC   C4B15394  14.556   8.972   7.379 -0.0869  0.2349  0.2143
 1132YOPC   NC315395  17.281  10.700   5.526 -0.0193 -0.0040  0.0136
 1132YOPC   PO415396  17.756  10.671   5.519  0.1684 -0.0368  0.2822
 1132YOPC   GL115397  17.808  10.875   5.927 -0.2781  0.1459  0.2189
 1132YOPC   GL215398  17.554  11.061   5.937 -0.1045 -0.1550 -0.0752
 1132YOPC   C1A15399  17.858  11.076   6.325  0.1687  0.0935  0.0354
 1132YOPC   D2A15400  18.055  11.072   6.724 -0.0304  0.1482 -0.0334
 1132YOPC   C3A15401  17.895  11.097   7.129 -0.0296 -0.2150 -0.0302
 1132YOPC   C4A15402  17.644  10.701   7.248  0.0181  0.1564 -0.1620
 1132YOPC   C1B15403  17.389  10.831   6.283  0.3581 -0.0515  0.1217
 1132YOPC   C2B15404  17.245  10.443   6.469 -0.1017 -0.0595  0.3339
 1132YOPC   D3B15405  17.410  10.380   6.887  0.0972 -0.0999  0.0898
 1132YOPC   C4B15406  17.752  10.209   7.102  0.0644  0.2016 -0.0887
 1133YOPC   NC315407  13.205   2.141   5.593 -0.1277 -0.5600 -0.3164
 1133YOPC   PO415408  13.592   1.914   5.600  0.0978 -0.1175 -0.2000
 1133YOPC   GL115409  13.604   2.098   6.043  0.0347 -0.0702  0.1819
 1133YOPC   GL215410  13.549   1.762   6.251 -0.0322 -0.0651 -0.1091
 1133YOPC   C1A15411  13.436   2.310   6.455  0.0801  0.1401  0.0435
 1133YOPC   D2A15412  13.374   2.187   6.978 -0.1653  0.0372  0.3801
 1133YOPC   C3A15413  13.535   2.304   7.270 -0.0866 -0.0748 -0.1053
 1133YOPC   C4A15414  13.389   2.289   7.680 -0.1273 -0.2163 -0.0299
 1133YOPC   C1B15415  13.602   1.856   6.668  0.2824  0.0268 -0.0853
 1133YOPC   C2B15416  13.894   1.977   7.063  0.2065  0.1136  0.0007
 1133YOPC   D3B15417  14.236   1.834   7.121  0.0870  0.1271 -0.0033
 1133YOPC   C4B15418  14.627   2.018   7.025 -0.1762  0.1355  0.0211
 1134YOPC   NC315419   4.839   8.289   5.197 -0.1334  0.1008  0.0940
 1134YOPC   PO415420   5.167   8.358   5.401  0.1219  0.0224 -0.2607
 1134YOPC   GL115421   5.234   8.160   5.697 -0.0575 -0.0796 -0.3783
 1134YOPC   GL215422   4.837   8.141   5.723  0.1822 -0.0246 -0.1140
 1134YOPC   C1A15423   5.437   7.786   5.950 -0.1923  0.0415  0.2061
 1134YOPC   D2A15424   5.629   7.548   6.315  0.2084 -0.1865 -0.1059
 1134YOPC   C3A15425   5.853   7.912   6.587  0.1227  0.1379  0.1562
 1134YOPC   C4A15426   6.150   8.065   6.931  0.1552 -0.2947  0.2510
 1134YOPC   C1B15427   4.943   7.874   6.093  0.0387 -0.3419  0.1560
 1134YOPC   C2B15428   4.995   7.898   6.562  0.2051 -0.0407 -0.4551
 1134YOPC   D3B15429   5.417   7.729   6.839 -0.0014  0.1274 -0.0749
 1134YOPC   C4B15430   5.756   7.384   6.782  0.0774  0.0506  0.2018
 1135YOPC   NC315431  15.060   6.070   5.604  0.1705  0.0163 -0.1326
 1135YOPC   PO415432  14.933   6.444   5.622  0.0142 -0.1596  0.0721
 1135YOPC   GL115433  14.996   6.319   6.032  0.0914 -0.0296 -0.0342
 1135YOPC   GL215434  15.274   6.460   6.192  0.4864  0.1757  0.3126
 1135YOPC   C1A15435  14.890   6.085   6.372  0.0138 -0.0671 -0.0894
 1135YOPC   D2A15436  14.986   5.719   6.653 -0.1749 -0.2651  0.1037
 1135YOPC   C3A15437  14.864   5.521   6.776 -0.2110 -0.1746 -0.1015
 1135YOPC   C4A15438  14.629   5.178   6.970  0.1446 -0.2623 -0.2469
 1135YOPC   C1B15439  15.164   6.445   6.614 -0.0192 -0.2362 -0.1956
 1135YOPC   C2B15440  14.914   6.266   6.893  0.0098  0.1226 -0.0057
 1135YOPC   D3B15441  14.775   6.364   7.279  0.4637  0.0287 -0.0111
 1135YOPC   C4B15442  14.880   6.482   7.656  0.3222  0.0983  0.1304
 1136YOPC   NC315443   0.862   1.757   5.465  0.0874  0.1989 -0.0313
 1136YOPC   PO415444   0.979   2.130   5.650 -0.1282 -0.0716  0.0660
 1136YOPC   GL115445   0.849   2.054   5.942  0.0748  0.1199 -0.2662
 1136YOPC   GL215446   0.620   2.099   6.080 -0.0444  0.1135 -0.0260
 1136YOPC   C1A15447   1.103   2.070   6.332  0.2562 -0.0153  0.0467
 1136YOPC   D2A15448   1.110   2.380   6.668  0.4527  0.0038 -0.2724
 1136YOPC   C3A15449   1.095   2.225   7.143  0.1577 -0.1278 -0.1977
 1136YOPC   C4A15450   1.051   1.866   7.272 -0.0126  0.1255  0.0199
 1136YOPC   C1B15451   0.691   2.404   6.390  0.4781 -0.1066 -0.1219
 1136YOPC   C2B15452   0.450   2.467   6.618  0.0042 -0.2714 -0.1387
 1136YOPC   D3B15453   0.633   2.474   7.073  0.2994  0.0868  0.0843
 1136YOPC   C4B15454   0.686   2.221   7.569 -0.0668  0.1030 -0.2006
 1137YOPC   NC315455   9.028   2.963   5.643 -0.3500  0.2128  0.0329
 1137YOPC   PO415456   8.659   2.609   5.536  0.1640  0.0729  0.1434
 1137YOPC   GL115457   8.824   2.537   5.991 -0.3170 -0.0438 -0.0562
 1137YOPC   GL215458   8.958   2.841   6.165  0.0074 -0.0050 -0.1138
 1137YOPC   C1A15459   8.560   2.763   6.395 -0.2099 -0.2718  0.0433
 1137YOPC   D2A15460   8.362   2.888   6.769 -0.1170  0.1391 -0.1080
 1137YOPC   C3A15461   8.169   2.695   7.149 -0.1125 -0.0029 -0.0031
 1137YOPC   C4A15462   7.791   2.603   7.276  0.1729 -0.2500  0.0294
 1137YOPC   C1B15463   9.337   2.833   6.490 -0.1076  0.0010 -0.0767
 1137YOPC   C2B15464   9.491   2.698   6.899 -0.1509 -0.1319  0.3059
 1137YOPC   D3B15465   9.606   2.973   7.205 -0.2420  0.0895 -0.1189
 1137YOPC   C4B15466   9.717   2.873   7.657  0.0065  0.2695 -0.1606
 1138YOPC   NC315467   8.203  11.726   5.750 -0.0063  0.2766  0.1762
 1138YOPC   PO415468   8.063  11.272   5.582  0.0142  0.2181  0.3364
 1138YOPC   GL115469   7.931  11.174   5.967 -0.2559 -0.0242  0.2335
 1138YOPC   GL215470   7.889  11.442   6.131 -0.2460 -0.2432  0.3893
 1138YOPC   C1A15471   7.882  10.854   6.208 -0.0922  0.0965 -0.2818
 1138YOPC   D2A15472   7.954  10.859   6.630 -0.2794  0.0800  0.1266
 1138YOPC   C3A15473   8.317  11.050   6.877 -0.1016  0.0726  0.3142
 1138YOPC   C4A15474   8.690  11.353   6.814  0.0589  0.0024  0.0430
 1138YOPC   C1B15475   7.856  11.320   6.558  0.3030  0.0206  0.2947
 1138YOPC   C2B15476   7.798  11.144   6.938 -0.1455 -0.2572 -0.0761
 1138YOPC   D3B15477   7.719  11.257   7.404 -0.0120 -0.0951  0.1570
 1138YOPC   C4B15478   7.881  11.226   7.759  0.2877  0.1307 -0.2285
 1139YOPC   NC315479   3.684   9.857   5.312  0.1526  0.3071  0.0637
 1139YOPC   PO415480   3.379   9.887   5.530  0.0198 -0.1151 -0.1247
 1139YOPC   GL115481   3.201   9.820   5.844 -0.3442 -0.1742 -0.0686
 1139YOPC   GL215482   2.946   9.539   5.826 -0.0466  0.1669  0.0906
 1139YOPC   C1A15483   3.378   9.570   6.215  0.2391  0.1858  0.4106
 1139YOPC   D2A15484   3.549   9.000   6.397  0.2139 -0.0704 -0.1323
 1139YOPC   C3A15485   3.378   8.975   6.786  0.1325  0.0739 -0.1976
 1139YOPC   C4A15486   3.359   8.916   7.235 -0.3045 -0.1260 -0.4864
 1139YOPC   C1B15487   2.948   9.820   6.281 -0.1363 -0.2099  0.1847
 1139YOPC   C2B15488   2.807   9.958   6.766  0.2983  0.0990  0.1389
 1139YOPC   D3B15489   2.982   9.865   7.107 -0.0637  0.1599 -0.1272
 1139YOPC   C4B15490   3.159  10.181   7.343  0.2874 -0.0791 -0.0934
 1140YOPC   NC315491  18.130   5.408   5.464 -0.0456 -0.1271 -0.2004
 1140YOPC   PO415492  17.852   5.038   5.581  0.3252  0.1124 -0.1216
 1140YOPC   GL115493  18.125   4.978   5.937 -0.1071  0.2374  0.0158
 1140YOPC   GL215494  18.169   5.246   6.137  0.3367  0.2240  0.0728
 1140YOPC   C1A15495  18.191   4.824   6.343 -0.2132 -0.1375  0.0211
 1140YOPC   D2A15496  18.404   5.054   6.616 -0.0425 -0.0996  0.0041
 1140YOPC   C3A15497  18.177   5.253   6.928 -0.1638 -0.0521 -0.0517
 1140YOPC   C4A15498  17.868   5.246   6.569 -0.0401 -0.1115  0.1582
 1140YOPC   C1B15499  18.360   5.488   6.355 -0.0671 -0.2302 -0.1320
 1140YOPC   C2B15500  18.483   5.821   6.350  0.0357  0.4511 -0.1559
 1140YOPC   D3B15501  18.566   5.993   6.734  0.0110  0.0681 -0.0197
 1140YOPC   C4B15502  18.986   6.310   6.876 -0.0109  0.0533 -0.1054
 1141YOPC   NC315503   0.295  13.567   5.403  0.1822 -0.1222  0.0728
 1141YOPC   PO415504   0.045  13.222   5.490 -0.0112 -0.0191 -0.0205
 1141YOPC   GL115505   0.167  13.474   5.905  0.1445 -0.1081  0.1527
 1141YOPC   GL215506   0.060  13.881   5.945 -0.0444 -0.1283 -0.0420
 1141YOPC   C1A15507   0.445  13.619   6.281  0.2179  0.1637  0.0111
 1141YOPC   D2A15508   0.632  13.493   6.819 -0.1901  0.4527 -0.0556
 1141YOPC   C3A15509   0.465  13.544   7.123  0.0163  0.0318  0.1670
 1141YOPC   C4A15510   0.686  13.863   7.482  0.2760  0.3914  0.0755
 1141YOPC   C1B15511   0.138  14.051   6.403 -0.0463  0.3146  0.1070
 1141YOPC   C2B15512   0.167  14.345   6.647  0.0893 -0.2799  0.2005
 1141YOPC   D3B15513   0.017  14.499   6.939 -0.1619 -0.0838 -0.2755
 1141YOPC   C4B15514   0.070  14.691   7.295  0.3127 -0.2599  0.1243
 1142YOPC   NC315515  10.454  18.923   5.745 -0.3192  0.0276 -0.2956
 1142YOPC   PO415516  10.677  19.369   5.746 -0.1962  0.0524  0.1154
 1142YOPC   GL115517  10.673  19.667   6.070  0.3102  0.0103  0.1226
 1142YOPC   GL215518  10.712  19.991   6.143 -0.0819  0.2249  0.2759
 1142YOPC   C1A15519  10.374  19.626   6.365  0.2303 -0.0838  0.3810
 1142YOPC   D2A15520  10.284  19.670   6.735 -0.0635 -0.2205 -0.2892
 1142YOPC   C3A15521  10.472  19.522   7.034  0.1936  0.1790 -0.2996
 1142YOPC   C4A15522  10.702  19.448   7.314 -0.1183  0.0423 -0.1609
 1142YOPC   C1B15523  10.533  20.122   6.432 -0.3341  0.0952 -0.1978
 1142YOPC   C2B15524  10.543  20.061   6.842  0.2645 -0.0246 -0.0401
 1142YOPC   D3B15525  10.268  19.950   7.189 -0.1698  0.2152  0.3391
 1142YOPC   C4B15526  10.329  19.780   7.608 -0.1680  0.0277  0.1445
 1143YOPC   NC315527  18.248   3.724   5.521 -0.0302 -0.1507  0.1710
 1143YOPC   PO415528  18.134   3.429   5.840 -0.1168 -0.1407  0.1478
 1143YOPC   GL115529  18.367   3.258   6.243  0.0651  0.0974  0.0694
 1143YOPC   GL215530  18.276   3.352   6.474  0.2689  0.0619 -0.3421
 1143YOPC   C1A15531  18.649   3.074   6.514  0.1918  0.2568 -0.0350
 1143YOPC   D2A15532  18.929   3.111   6.820 -0.2355 -0.2215  0.0558
 1143YOPC   C3A15533  18.674   2.988   7.251 -0.0204  0.2206 -0.0408
 1143YOPC   C4A15534  18.823   2.884   7.638 -0.0297 -0.0153 -0.1637
 1143YOPC   C1B15535  18.186   3.054   6.746 -0.2212  0.1023 -0.0593
 1143YOPC   C2B15536  18.067   3.338   7.035  0.0376  0.1252 -0.2681
 1143YOPC   D3B15537  18.241   3.257   7.438 -0.1898 -0.0209 -0.2525
 1143YOPC   C4B15538  18.448   3.256   7.823 -0.0869  0.2699 -0.2463
 1144ERGO   ROH15539   2.394   6.535   5.641  0.1518 -0.1141  0.0486
 1144ERGO    R115540   2.206   6.439   5.830  0.0849 -0.0006  0.0404
 1144ERGO    R215541   2.260   6.427   6.101  0.0317  0.0532  0.0528
 1144ERGO    R315542   2.031   6.573   6.119  0.0767  0.1355 -0.0264
 1144ERGO    R415543   2.039   6.418   6.367 -0.1359  0.0275 -0.0852
 1144ERGO    R515544   1.875   6.426   6.225 -0.0469  0.1517 -0.1831
 1144ERGO    C115545   1.696   6.548   6.539 -0.1912  0.0897 -0.2399
 1144ERGO    C215546   1.582   6.521   6.763 -0.0508 -0.5279 -0.2240
 1145ERGO   ROH15547   0.339  18.566   5.967  0.3055 -0.0262 -0.1050
 1145ERGO    R115548   0.426  18.634   6.228  0.2600  0.0059 -0.0981
 1145ERGO    R215549   0.636  18.807   6.275  0.1558  0.1273 -0.0805
 1145ERGO    R315550   0.452  18.936   6.428  0.0757  0.0070 -0.0739
 1145ERGO    R415551   0.681  18.894   6.606  0.0656  0.0523 -0.0479
 1145ERGO    R515552   0.475  18.836   6.645  0.0823 -0.0458 -0.0982
 1145ERGO    C115553   0.535  19.066   6.943 -0.0621 -0.1043 -0.0229
 1145ERGO    C215554   0.461  19.248   7.280 -0.3583  0.1309  0.2578
 1146ERGO   ROH15555  15.029   9.015   5.854 -0.0078  0.1349  0.1273
 1146ERGO    R115556  14.857   9.050   6.076 -0.0734  0.0226  0.0956
 1146ERGO    R215557  14.671   8.860   6.152 -0.0026 -0.0800  0.0306
 1146ERGO    R315558  14.795   8.880   6.392 -0.0587 -0.0522  0.0568
 1146ERGO    R415559  14.520   8.804   6.458 -0.0801  0.0234  0.0115
 1146ERGO    R515560  14.630   8.975   6.537 -0.0670  0.0134 -0.0022
 1146ERGO    C115561  14.549   8.791   6.862 -0.1778  0.1098  0.0248
 1146ERGO    C215562  14.353   8.689   6.956  0.0901  0.2101 -0.2866
 1147ERGO   ROH15563  14.506   0.166   6.263 -0.0401 -0.0347 -0.1961
 1147ERGO    R115564  14.766   0.126   6.369 -0.1152  0.0021  0.0067
 1147ERGO    R215565  14.995   0.197   6.231 -0.0097 -0.2229  0.0636
 1147ERGO    R315566  15.050   0.336   6.458 -0.1054  0.0161 -0.0562
 1147ERGO    R415567  15.301   0.336   6.308 -0.0709 -0.0506 -0.0009
 1147ERGO    R515568  15.274   0.272   6.514 -0.0970  0.1400  0.0576
 1147ERGO    C115569  15.531   0.549   6.566 -0.1961  0.2741 -0.1508
 1147ERGO    C215570  15.738   0.523   6.820  0.1732 -0.4439  0.3101
 1148ERGO   ROH15571  14.482   3.931   6.710  0.0375  0.0333 -0.1325
 1148ERGO    R115572  14.525   4.092   6.939 -0.0530 -0.0118 -0.0829
 1148ERGO    R215573  14.354   4.092   7.155 -0.0523 -0.1776 -0.0791
 1148ERGO    R315574  14.582   4.038   7.294 -0.0180 -0.0912 -0.1013
 1148ERGO    R415575  14.418   4.197   7.478 -0.0205 -0.0928 -0.1125
 1148ERGO    R515576  14.624   4.238   7.419 -0.0430 -0.0571 -0.1523
 1148ERGO    C115577  14.669   4.208   7.797  0.0303  0.0376 -0.1528
 1148ERGO    C215578  14.567   3.992   8.118 -0.0149 -0.0465 -0.3697
 1149ERGO   ROH15579  18.433   8.198   5.836 -0.1878 -0.0875 -0.0019
 1149ERGO    R115580  18.248   8.181   6.050 -0.1328 -0.0125  0.0531
 1149ERGO    R215581  18.326   8.137   6.311 -0.0709 -0.0217  0.0377
 1149ERGO    R315582  18.182   8.363   6.358  0.0191  0.0310  0.0589
 1149ERGO    R415583  18.258   8.266   6.624 -0.0603 -0.0378  0.0463
 1149ERGO    R515584  18.056   8.313   6.556 -0.0270  0.0581  0.0315
 1149ERGO    C115585  18.082   8.553   6.851  0.0305  0.0024  0.0712
 1149ERGO    C215586  18.096   8.678   7.279 -0.2298  0.3454  0.2158
 1150ERGO   ROH15587  13.649   7.818   5.690 -0.2726 -0.0489  0.0320
 1150ERGO    R115588  13.694   7.799   5.969 -0.2360 -0.0864  0.0241
 1150ERGO    R215589  13.643   7.568   6.113 -0.0984 -0.1473 -0.0208
 1150ERGO    R315590  13.902   7.598   6.190 -0.1065 -0.0243 -0.0409
 1150ERGO    R415591  13.792   7.401   6.376 -0.0688  0.1165  0.1332
 1150ERGO    R515592  13.895   7.585   6.429 -0.1085  0.1862 -0.0282
 1150ERGO    C115593  14.121   7.332   6.602 -0.0592  0.3856  0.2039
 1150ERGO    C215594  14.164   7.034   6.767 -0.0774  0.1230 -0.4119
 1151ERGO   ROH15595  12.715   5.566   5.627  0.1993  0.1191  0.1621
 1151ERGO    R115596  12.619   5.658   5.877  0.1343  0.0987  0.1450
 1151ERGO    R215597  12.390   5.810   5.900  0.1020  0.0589  0.1027
 1151ERGO    R315598  12.317   5.616   6.076  0.1023  0.0428  0.0846
 1151ERGO    R415599  12.236   5.866   6.205  0.1409  0.0316  0.1272
 1151ERGO    R515600  12.362   5.710   6.291  0.1347  0.0085  0.0922
 1151ERGO    C115601  12.079   5.716   6.547  0.1640  0.0006  0.1245
 1151ERGO    C215602  11.823   5.784   6.738 -0.0749 -0.2128 -0.0936
 1152ERGO   ROH15603   3.629   8.492   5.590 -0.1374  0.0656 -0.0870
 1152ERGO    R115604   3.502   8.497   5.842 -0.0974  0.0003 -0.0652
 1152ERGO    R215605   3.537   8.298   6.030 -0.0221 -0.0195 -0.0995
 1152ERGO    R315606   3.607   8.506   6.191 -0.0426 -0.0271 -0.0809
 1152ERGO    R415607   3.480   8.311   6.371 -0.0899 -0.0238 -0.1107
 1152ERGO    R515608   3.426   8.522   6.349 -0.0732 -0.0204 -0.1168
 1152ERGO    C115609   3.512   8.514   6.720 -0.1485 -0.0334 -0.0996
 1152ERGO    C215610   3.726   8.504   7.030 -0.1541 -0.1372 -0.3417
 1153ERGO   ROH15611   1.583   3.693   5.666  0.2116  0.1239 -0.0944
 1153ERGO    R115612   1.509   3.689   5.940 -0.2728  0.2407 -0.2139
 1153ERGO    R215613   1.694   3.665   6.144 -0.6656 -0.3312  0.1066
 1153ERGO    R315614   1.575   3.892   6.234 -0.2098 -0.0163 -0.0483
 1153ERGO    R415615   1.700   3.773   6.472 -0.4424 -0.0995  0.0296
 1153ERGO    R515616   1.491   3.833   6.451 -0.3288  0.3088 -0.0018
 1153ERGO    C115617   1.592   4.049   6.748  0.1155  0.3311 -0.1607
 1153ERGO    C215618   1.573   4.150   6.997 -0.0982  0.1023 -0.1953
 1154ERGO   ROH15619   2.152   1.654   6.024  0.1407 -0.0621  0.2120
 1154ERGO    R115620   2.029   1.428   6.142  0.1112 -0.1099  0.0890
 1154ERGO    R215621   1.995   1.404   6.415  0.1830 -0.2898  0.0764
 1154ERGO    R315622   1.735   1.364   6.346  0.1500 -0.1747  0.1290
 1154ERGO    R415623   1.747   1.301   6.633  0.1827 -0.1319  0.1519
 1154ERGO    R515624   1.668   1.173   6.475  0.0882 -0.1264  0.1814
 1154ERGO    C115625   1.359   1.205   6.696  0.1516  0.0680  0.2454
 1154ERGO    C215626   1.166   1.256   6.850 -0.0112 -0.1038  0.0723
 1155ERGO   ROH15627  17.268   6.799   6.248  0.0107 -0.0744  0.1865
 1155ERGO    R115628  17.291   6.716   6.518  0.0430 -0.0040  0.2057
 1155ERGO    R215629  17.484   6.537   6.602  0.0115 -0.0319  0.2171
 1155ERGO    R315630  17.544   6.734   6.779  0.1012  0.0025  0.1496
 1155ERGO    R415631  17.716   6.509   6.856 -0.0692 -0.0848  0.2855
 1155ERGO    R515632  17.579   6.618   6.986 -0.0283  0.0632  0.2071
 1155ERGO    C115633  17.908   6.677   7.171 -0.0321 -0.0834  0.2620
 1155ERGO    C215634  18.288   6.887   7.147 -0.0616 -0.0414 -0.0616
 1156ERGO   ROH15635  14.520   2.571   6.198  0.2197 -0.1945 -0.1896
 1156ERGO    R115636  14.604   2.519   6.464  0.3236 -0.2277 -0.2289
 1156ERGO    R215637  14.869   2.527   6.540  0.3101  0.3364 -0.2089
 1156ERGO    R315638  14.776   2.701   6.728 -0.1231 -0.0342 -0.0583
 1156ERGO    R415639  14.926   2.500   6.880  0.4304  0.2103 -0.2378
 1156ERGO    R515640  14.719   2.562   6.915  0.2548 -0.3423 -0.1545
 1156ERGO    C115641  14.872   2.648   7.254  0.0937 -0.2109 -0.1132
 1156ERGO    C215642  14.815   2.596   7.573  0.0282 -0.1750 -0.2322
 1157ERGO   ROH15643   2.889  14.952   6.082  0.0269 -0.2327  0.1021
 1157ERGO    R115644   2.782  15.046   6.327 -0.0422 -0.0216 -0.0058
 1157ERGO    R215645   2.542  15.183   6.342 -0.0791 -0.0581 -0.1834
 1157ERGO    R315646   2.480  14.990   6.522 -0.0677  0.0964 -0.0122
 1157ERGO    R415647   2.244  15.166   6.515 -0.1409 -0.0156 -0.2855
 1157ERGO    R515648   2.357  15.106   6.693 -0.1879  0.2133 -0.1788
 1157ERGO    C115649   2.011  14.974   6.786 -0.1662  0.1543 -0.1843
 1157ERGO    C215650   1.665  14.877   6.894  0.2979 -0.0948 -0.3770
 1158ERGO   ROH15651   5.399  16.429   5.499 -0.2612  0.4152 -0.2716
 1158ERGO    R115652   5.483  16.428   5.770 -0.3067  0.1694 -0.2573
 1158ERGO    R215653   5.600  16.647   5.890 -0.1846  0.0076 -0.0839
 1158ERGO    R315654   5.402  16.612   6.073 -0.2362  0.0086 -0.1379
 1158ERGO    R415655   5.584  16.805   6.197 -0.2109 -0.0690 -0.0447
 1158ERGO    R515656   5.514  16.618   6.284 -0.2794 -0.0773 -0.1098
 1158ERGO    C115657   5.388  16.864   6.547 -0.2745 -0.1129 -0.0726
 1158ERGO    C215658   5.165  16.933   6.870 -0.1009  0.2276  0.1499
 1159ERGO   ROH15659  12.188   2.324   6.117 -0.3197 -0.0522 -0.1519
 1159ERGO    R115660  11.998   2.191   6.279 -0.0661 -0.2048  0.0256
 1159ERGO    R215661  12.066   2.065   6.515  0.1906  0.2094  0.1775
 1159ERGO    R315662  11.872   2.224   6.619 -0.0993 -0.0157 -0.0017
 1159ERGO    R415663  11.909   2.013   6.819  0.2803  0.2451  0.2313
 1159ERGO    R515664  11.721   2.072   6.726  0.1651 -0.1834  0.1552
 1159ERGO    C115665  11.635   2.133   7.093  0.0604  0.0545  0.0943
 1159ERGO    C215666  11.569   1.963   7.478 -0.0291 -0.2908  0.0289
 1160ERGO   ROH15667  15.687   6.531   9.545 -0.2374 -0.1687 -0.0358
 1160ERGO    R115668  15.713   6.426   9.283 -0.4618 -0.1727 -0.0559
 1160ERGO    R215669  15.510   6.441   9.096 -0.3999  0.3891 -0.0796
 1160ERGO    R315670  15.703   6.556   8.943 -0.0767 -0.0595 -0.0310
 1160ERGO    R415671  15.497   6.470   8.752 -0.4679  0.7724 -0.0511
 1160ERGO    R515672  15.710   6.421   8.745 -0.5962  0.0926 -0.1773
 1160ERGO    C115673  15.671   6.594   8.408 -0.2040  0.5745  0.0113
 1160ERGO    C215674  15.736   6.598   8.107 -0.0469 -0.2763  0.0202
 1161ERGO   ROH15675   3.857   6.078   5.636 -0.1297  0.1403 -0.0151
 1161ERGO    R115676   3.856   6.180   5.900 -0.0363 -0.0510  0.0620
 1161ERGO    R215677   3.727   6.414   5.969  0.1533  0.0091  0.2396
 1161ERGO    R315678   3.606   6.256   6.153  0.0326 -0.0340  0.1240
 1161ERGO    R415679   3.672   6.502   6.299  0.0800 -0.1357  0.2660
 1161ERGO    R515680   3.726   6.298   6.356 -0.0187 -0.1822  0.1839
 1161ERGO    C115681   3.527   6.404   6.664 -0.0760 -0.2605  0.1729
 1161ERGO    C215682   3.392   6.437   6.846  0.2590  0.1360  0.3681
 1162ERGO   ROH15683  13.565   2.636   6.127 -0.2013 -0.0382 -0.0368
 1162ERGO    R115684  13.529   2.829   6.331 -0.1139 -0.0842  0.0228
 1162ERGO    R215685  13.314   2.825   6.503 -0.0878 -0.0711  0.0586
 1162ERGO    R315686  13.507   2.828   6.694 -0.0542 -0.1794  0.0261
 1162ERGO    R415687  13.255   2.862   6.842 -0.0138 -0.1144  0.0759
 1162ERGO    R515688  13.431   2.991   6.853  0.0348 -0.1826  0.0707
 1162ERGO    C115689  13.403   2.886   7.219  0.0608 -0.2413  0.0555
 1162ERGO    C215690  13.252   2.764   7.480  0.2188  0.0966 -0.2052
 1163ERGO   ROH15691  10.725   1.438   5.913  0.1316  0.0290 -0.1362
 1163ERGO    R115692  10.758   1.376   6.187  0.2151  0.0969 -0.1301
 1163ERGO    R215693  10.884   1.548   6.364  0.0646  0.2484 -0.1587
 1163ERGO    R315694  10.653   1.519   6.505  0.0982  0.0388 -0.1449
 1163ERGO    R415695  10.861   1.548   6.709  0.0534  0.3379 -0.1593
 1163ERGO    R515696  10.715   1.387   6.694  0.2371  0.1751 -0.1015
 1163ERGO    C115697  10.631   1.520   7.042  0.0784  0.1933 -0.1467
 1163ERGO    C215698  10.323   1.622   7.282  0.0072  0.1538 -0.0890
 1164ERGO   ROH15699   9.352  14.433   5.950  0.0327 -0.0876 -0.0476
 1164ERGO    R115700   9.264  14.306   6.187 -0.0684  0.0453 -0.0134
 1164ERGO    R215701   9.395  14.088   6.298 -0.2390 -0.0271  0.0455
 1164ERGO    R315702   9.399  14.244   6.520 -0.1187  0.0299  0.0047
 1164ERGO    R415703   9.405  13.971   6.622 -0.2321  0.0511  0.0740
 1164ERGO    R515704   9.264  14.127   6.678 -0.1461  0.1357  0.0621
 1164ERGO    C115705   9.414  14.050   7.020 -0.1152  0.1501  0.0523
 1164ERGO    C215706   9.618  13.919   7.188  0.2763 -0.4921  0.2933
 1165ERGO   ROH15707  17.992  18.364   5.784 -0.0297 -0.1805  0.0881
 1165ERGO    R115708  18.083  18.387   6.050  0.0463 -0.1786  0.0618
 1165ERGO    R215709  18.328  18.289   6.133  0.1330 -0.0470 -0.0409
 1165ERGO    R315710  18.364  18.544   6.221  0.0096 -0.0422 -0.0009
 1165ERGO    R415711  18.547  18.382   6.383  0.1540  0.0298 -0.0870
 1165ERGO    R515712  18.396  18.521   6.457  0.0929 -0.0726 -0.0138
 1165ERGO    C115713  18.709  18.676   6.612  0.0503  0.0789 -0.0764
 1165ERGO    C215714  18.755  18.846   6.905 -0.0359 -0.0820  0.0709
 1166ERGO   ROH15715  12.877  17.721   6.254  0.1328  0.3519  0.1392
 1166ERGO    R115716  12.786  17.651   6.513  0.3396 -0.0330  0.1164
 1166ERGO    R215717  12.954  17.548   6.707  0.6517  0.3111  0.0526
 1166ERGO    R315718  12.856  17.754   6.855  0.1003 -0.0095  0.1570
 1166ERGO    R415719  12.983  17.577   7.050  0.6913  0.2942  0.0491
 1166ERGO    R515720  12.779  17.651   7.057  0.4691 -0.2996  0.1531
 1166ERGO    C115721  12.908  17.787   7.389  0.1968 -0.0164  0.1451
 1166ERGO    C215722  12.857  17.871   7.840 -0.0505  0.2205  0.3495
 1167ERGO   ROH15723   8.934   9.851   5.901 -0.1902 -0.1994 -0.4429
 1167ERGO    R115724   8.886   9.847   6.180  0.2553 -0.1234 -0.3579
 1167ERGO    R215725   8.640   9.784   6.287  0.2506  0.4801  0.0323
 1167ERGO    R315726   8.784   9.600   6.427  0.0298  0.0795 -0.2441
 1167ERGO    R415727   8.533   9.627   6.577  0.2871  0.6237  0.1246
 1167ERGO    R515728   8.735   9.649   6.657  0.4673  0.1196 -0.1493
 1167ERGO    C115729   8.606   9.365   6.876  0.1010  0.3313 -0.0811
 1167ERGO    C215730   8.529   9.082   7.104  0.0447  0.1826  0.5519
 1168ERGO   ROH15731   2.697  13.835   5.544  0.0627  0.1141  0.1414
 1168ERGO    R115732   2.679  13.719   5.802 -0.1888  0.2215  0.1740
 1168ERGO    R215733   2.899  13.678   5.963 -0.2765 -0.1735  0.1979
 1168ERGO    R315734   2.754  13.820   6.143 -0.0110  0.1725  0.1517
 1168ERGO    R415735   3.023  13.803   6.260 -0.0507 -0.4144  0.2098
 1168ERGO    R515736   2.835  13.746   6.356 -0.2128  0.0046  0.1778
 1168ERGO    C115737   2.958  14.010   6.603  0.3301 -0.2299  0.1735
 1168ERGO    C215738   3.056  14.086   6.947 -0.0331  0.3800 -0.1995
 1169ERGO   ROH15739  10.480  18.740   6.175  0.0759 -0.2027  0.1172
 1169ERGO    R115740  10.634  18.771   6.411  0.3764 -0.2099 -0.0706
 1169ERGO    R215741  10.541  18.694   6.659  0.4307  0.3351  0.1383
 1169ERGO    R315742  10.773  18.553   6.666  0.1319 -0.1789  0.0904
 1169ERGO    R415743  10.704  18.596   6.948  0.4341  0.2307  0.1002
 1169ERGO    R515744  10.894  18.645   6.851  0.4786 -0.2758 -0.0842
 1169ERGO    C115745  11.017  18.406   7.122  0.1557 -0.3128  0.0331
 1169ERGO    C215746  10.842  18.276   7.425  0.0755 -0.1084 -0.1069
 1170ERGO   ROH15747   2.135   2.136   5.969  0.2004  0.0342 -0.0292
 1170ERGO    R115748   2.053   2.130   6.240  0.1485  0.2795 -0.0368
 1170ERGO    R215749   1.937   1.906   6.356 -0.0720  0.4553  0.0871
 1170ERGO    R315750   2.138   1.937   6.537 -0.0740  0.3895  0.1012
 1170ERGO    R415751   1.938   1.772   6.674  0.0041  0.1850 -0.0239
 1170ERGO    R515752   2.026   1.958   6.747 -0.0719  0.1635  0.1280
 1170ERGO    C115753   2.127   1.722   7.029  0.0466 -0.0342 -0.0755
 1170ERGO    C215754   2.398   1.608   7.147  0.1451 -0.0494 -0.2546
 1171ERGO   ROH15755  17.624   9.329   6.084  0.2257  0.0087 -0.0232
 1171ERGO    R115756  17.675   9.269   6.356  0.3016  0.1907  0.0047
 1171ERGO    R215757  17.823   9.435   6.521  0.1097  0.4429 -0.0699
 1171ERGO    R315758  17.602   9.420   6.679  0.1249  0.2533 -0.0639
 1171ERGO    R415759  17.799   9.567   6.839  0.0030  0.4145 -0.0656
 1171ERGO    R515760  17.689   9.389   6.900  0.1550  0.3211 -0.0673
 1171ERGO    C115761  17.578   9.630   7.173 -0.0450  0.2199 -0.0575
 1171ERGO    C215762  17.605   9.832   7.546  0.3473  0.0792 -0.3318
 1172ERGO   ROH15763  10.089   4.570   5.511 -0.1267 -0.1638  0.0832
 1172ERGO    R115764  10.162   4.630   5.778 -0.0773 -0.1517  0.0684
 1172ERGO    R215765  10.021   4.809   5.934  0.0897  0.0437  0.0113
 1172ERGO    R315766  10.009   4.600   6.107 -0.1269  0.1021  0.0685
 1172ERGO    R415767   9.906   4.829   6.259  0.1602  0.2483  0.0243
 1172ERGO    R515768  10.067   4.695   6.319  0.0106  0.0815  0.0339
 1172ERGO    C115769   9.827   4.645   6.611 -0.0021  0.4224  0.0856
 1172ERGO    C215770   9.876   4.663   6.979  0.1830  0.0643 -0.1021
 1173ERGO   ROH15771   5.847  13.617   5.782  0.1247 -0.0225 -0.3308
 1173ERGO    R115772   6.046  13.762   5.921  0.0477 -0.0182 -0.2253
 1173ERGO    R215773   5.995  14.004   6.045 -0.0409 -0.0592 -0.1881
 1173ERGO    R315774   6.098  13.878   6.262 -0.0936 -0.0870 -0.1783
 1173ERGO    R415775   6.084  14.160   6.340 -0.0512 -0.0782 -0.1745
 1173ERGO    R515776   6.260  14.032   6.349 -0.0736 -0.1155 -0.1555
 1173ERGO    C115777   6.233  14.133   6.716 -0.1066 -0.1154 -0.1574
 1173ERGO    C215778   6.159  14.322   7.025 -0.1816 -0.3464 -0.0147
 1174ERGO   ROH15779  17.509  11.564   5.926 -0.2431  0.0769  0.0027
 1174ERGO    R115780  17.615  11.469   6.171 -0.2796 -0.0270 -0.0207
 1174ERGO    R215781  17.836  11.582   6.291 -0.1129 -0.2654 -0.0883
 1174ERGO    R315782  17.669  11.602   6.505 -0.0353 -0.0625 -0.0458
 1174ERGO    R415783  17.937  11.584   6.622 -0.0172 -0.1817 -0.1181
 1174ERGO    R515784  17.766  11.459   6.670 -0.0817 -0.0486 -0.0104
 1174ERGO    C115785  17.839  11.605   7.015  0.1111  0.0576 -0.0955
 1174ERGO    C215786  17.938  11.622   7.362  0.1745 -0.2870  0.0247
 1175ERGO   ROH15787   6.990  10.922   6.109  0.0358 -0.0138 -0.0678
 1175ERGO    R115788   6.962  11.116   6.313 -0.1610  0.0113 -0.1167
 1175ERGO    R215789   6.719  11.175   6.430 -0.2115 -0.2549 -0.0820
 1175ERGO    R315790   6.855  11.122   6.660 -0.0947 -0.0253 -0.0956
 1175ERGO    R415791   6.583  11.189   6.748 -0.1383 -0.2584 -0.0500
 1175ERGO    R515792   6.768  11.280   6.818 -0.2080 -0.0447 -0.1384
 1175ERGO    C115793   6.630  11.148   7.148  0.0140 -0.0450 -0.0442
 1175ERGO    C215794   6.723  11.026   7.382  0.2288 -0.2653 -0.0976
 1176ERGO   ROH15795  10.788  15.222   5.748 -0.0289  0.1410 -0.0622
 1176ERGO    R115796  10.779  15.125   6.014 -0.0496  0.2086 -0.0381
 1176ERGO    R215797  11.006  15.055   6.155 -0.0787 -0.0079 -0.0963
 1176ERGO    R315798  10.908  15.230   6.338  0.1686  0.1414 -0.1014
 1176ERGO    R415799  11.072  15.046   6.495 -0.0559 -0.0663 -0.1023
 1176ERGO    R515800  10.864  15.097   6.531  0.0108  0.2127 -0.0860
 1176ERGO    C115801  11.017  15.205   6.863  0.1895  0.0398 -0.1105
 1176ERGO    C215802  11.080  15.133   7.222  0.1224  0.0558 -0.2073
 1177ERGO   ROH15803  14.388  11.443   6.305 -0.0204 -0.1259  0.2252
 1177ERGO    R115804  14.561  11.223   6.346 -0.0971 -0.1854  0.2294
 1177ERGO    R215805  14.818  11.251   6.444  0.0288 -0.2372 -0.0791
 1177ERGO    R315806  14.733  11.071   6.628  0.1303 -0.0286  0.1785
 1177ERGO    R415807  15.019  11.102   6.682  0.1753 -0.0031 -0.0529
 1177ERGO    R515808  14.914  10.915   6.648  0.1244 -0.0314  0.2220
 1177ERGO    C115809  15.056  10.846   6.995  0.3558  0.3290  0.2043
 1177ERGO    C215810  15.012  10.822   7.373 -0.1996  0.2929 -0.3778
 1178ERGO   ROH15811  16.860  13.935   6.092 -0.0403  0.1227  0.0394
 1178ERGO    R115812  16.971  13.971   6.350 -0.0960 -0.0583  0.0896
 1178ERGO    R215813  16.901  14.182   6.513  0.0007 -0.0747  0.1496
 1178ERGO    R315814  16.846  13.984   6.691 -0.1946 -0.1080  0.0564
 1178ERGO    R415815  16.805  14.232   6.842  0.1543 -0.1311  0.2045
 1178ERGO    R515816  16.933  14.065   6.899 -0.0325 -0.3250  0.0791
 1178ERGO    C115817  16.698  14.076   7.200  0.0603 -0.1954  0.1490
 1178ERGO    C215818  16.338  14.114   7.325 -0.3464  0.3088  0.3320
 1179ERGO   ROH15819   2.978  16.464   5.305  0.1487  0.0333 -0.0688
 1179ERGO    R115820   2.878  16.400   5.562  0.1635  0.1625 -0.0290
 1179ERGO    R215821   2.877  16.141   5.660 -0.0215  0.1772  0.0201
 1179ERGO    R315822   3.010  16.255   5.868  0.1296  0.1104 -0.0398
 1179ERGO    R415823   2.907  16.003   5.975 -0.0761  0.2356  0.0506
 1179ERGO    R515824   2.878  16.201   6.060  0.1251  0.2836  0.0045
 1179ERGO    C115825   3.050  16.028   6.354  0.0338  0.2067  0.0122
 1179ERGO    C215826   3.113  15.973   6.723  0.0208  0.0785 -0.0409
 1180ERGO   ROH15827  15.669   2.085   6.322 -0.0917 -0.1625 -0.2318
 1180ERGO    R115828  15.679   1.942   6.566 -0.1529 -0.0585 -0.1674
 1180ERGO    R215829  15.818   2.034   6.787  0.0429 -0.1065 -0.2673
 1180ERGO    R315830  15.579   2.000   6.911  0.0521  0.2217 -0.1513
 1180ERGO    R415831  15.774   2.013   7.129  0.1443  0.2038 -0.2327
 1180ERGO    R515832  15.627   1.856   7.096 -0.0220  0.3177 -0.0561
 1180ERGO    C115833  15.523   1.970   7.445  0.2121  0.6925 -0.1036
 1180ERGO    C215834  15.442   2.078   7.759 -0.3543 -0.1038 -0.0755
 1181ERGO   ROH15835  12.724   0.887   6.082  0.0098  0.0911 -0.1016
 1181ERGO    R115836  12.692   1.089   6.278  0.2383 -0.0141  0.0510
 1181ERGO    R215837  12.448   1.146   6.394  0.2352  0.3589 -0.1130
 1181ERGO    R315838  12.585   1.106   6.625 -0.0314 -0.1259 -0.0241
 1181ERGO    R415839  12.333   1.230   6.709  0.1980  0.4547 -0.1529
 1181ERGO    R515840  12.534   1.299   6.759  0.3421 -0.0699  0.0469
 1181ERGO    C115841  12.395   1.242   7.109 -0.0739  0.0554 -0.0927
 1181ERGO    C215842  12.306   1.301   7.426 -0.4361  0.0838 -0.0127
 1182ERGO   ROH15843   4.192   4.899   5.530 -0.1001 -0.1334  0.0921
 1182ERGO    R115844   4.222   5.123   5.701 -0.0488 -0.1112  0.0538
 1182ERGO    R215845   4.189   5.107   5.975 -0.0660 -0.0537  0.0539
 1182ERGO    R315846   4.438   5.216   5.979 -0.0375 -0.1178  0.0479
 1182ERGO    R415847   4.345   5.233   6.256 -0.0100 -0.1412  0.0627
 1182ERGO    R515848   4.421   5.397   6.134  0.0208 -0.1385  0.0813
 1182ERGO    C115849   4.669   5.409   6.424  0.0494 -0.2524  0.0622
 1182ERGO    C215850   4.795   5.489   6.783  0.1388 -0.0065  0.1428
 1183ERGO   ROH15851  19.068   6.190   5.470  0.1240 -0.1001 -0.0025
 1183ERGO    R115852  19.183   6.181   5.729  0.2005 -0.0847 -0.0359
 1183ERGO    R215853  19.364   6.370   5.818  0.0592  0.0446 -0.0230
 1183ERGO    R315854  19.188   6.394   6.024  0.0915 -0.1762  0.0331
 1183ERGO    R415855  19.403   6.584   6.087 -0.1492  0.1410 -0.0671
 1183ERGO    R515856  19.327   6.426   6.217  0.1163  0.0464 -0.0180
 1183ERGO    C115857  19.261   6.731   6.437 -0.2400 -0.0102 -0.0401
 1183ERGO    C215858  19.323   6.684   6.790 -0.2565 -0.0756 -0.1680
 1184ERGO   ROH15859  14.812   9.839   6.656 -0.0099 -0.4288  0.1371
 1184ERGO    R115860  14.988   9.934   6.856  0.0661 -0.2298 -0.0210
 1184ERGO    R215861  14.964   9.860   7.121  0.1367  0.0694  0.0673
 1184ERGO    R315862  15.225   9.788   7.091  0.1187 -0.0015  0.0731
 1184ERGO    R415863  15.180   9.788   7.382  0.0975 -0.0049  0.0799
 1184ERGO    R515864  15.337   9.894   7.274  0.1362 -0.0389  0.0900
 1184ERGO    C115865  15.549   9.677   7.505  0.0575 -0.1146  0.0926
 1184ERGO    C215866  15.747   9.555   7.880 -0.0918 -0.0451 -0.1356
 1185ERGO   ROH15867  11.052   6.463   5.154 -0.3305 -0.0644 -0.1489
 1185ERGO    R115868  10.921   6.381   5.391  0.0179 -0.1304  0.0277
 1185ERGO    R215869  11.058   6.314   5.621  0.3506  0.1555 -0.0713
 1185ERGO    R315870  10.896   6.501   5.734  0.2163  0.0006 -0.0051
 1185ERGO    R415871  11.001   6.348   5.960  0.4490  0.1222 -0.0509
 1185ERGO    R515872  10.791   6.387   5.916  0.4004 -0.0838  0.0404
 1185ERGO    C115873  10.814   6.543   6.263  0.3802 -0.0426  0.0232
 1185ERGO    C215874  10.865   6.531   6.592  0.1536 -0.2787 -0.1430
 1186ERGO   ROH15875   1.517   7.025   5.707  0.2016 -0.0689 -0.1311
 1186ERGO    R115876   1.705   7.056   5.916  0.1065 -0.0292 -0.0501
 1186ERGO    R215877   1.630   7.112   6.176 -0.0194 -0.0978 -0.0689
 1186ERGO    R315878   1.779   6.891   6.231  0.0418 -0.0503 -0.0462
 1186ERGO    R415879   1.776   7.044   6.482  0.0654  0.0105 -0.0853
 1186ERGO    R515880   1.953   6.972   6.376  0.0565  0.0232 -0.1060
 1186ERGO    C115881   2.001   6.798   6.712  0.1722  0.1181 -0.0735
 1186ERGO    C215882   1.935   6.737   7.041  0.0309  0.0891  0.0199
 1187ERGO   ROH15883   1.399  17.514   5.580 -0.0300 -0.0437  0.1541
 1187ERGO    R115884   1.365  17.525   5.860 -0.0975 -0.1678  0.1508
 1187ERGO    R215885   1.523  17.382   6.035  0.0282 -0.0458  0.1344
 1187ERGO    R315886   1.564  17.626   6.147 -0.2644 -0.0322  0.2218
 1187ERGO    R415887   1.601  17.436   6.368  0.3179 -0.1101  0.0805
 1187ERGO    R515888   1.467  17.608   6.366  0.0099 -0.3302  0.3299
 1187ERGO    C115889   1.685  17.697   6.667  0.2119 -0.1348  0.1311
 1187ERGO    C215890   1.756  17.947   6.932 -0.2867 -0.1439  0.2127
 1188ERGO   ROH15891  13.179  18.728   6.302  0.0153 -0.1740 -0.0404
 1188ERGO    R115892  13.092  18.772   6.568  0.0394 -0.0548 -0.0509
 1188ERGO    R215893  13.079  18.569   6.756 -0.0477  0.0055  0.0127
 1188ERGO    R315894  13.234  18.738   6.902  0.0321 -0.0183 -0.0448
 1188ERGO    R415895  13.090  18.580   7.101 -0.1228  0.1928  0.0101
 1188ERGO    R515896  13.098  18.797   7.090  0.0280  0.1803 -0.1095
 1188ERGO    C115897  13.242  18.744   7.439 -0.0916  0.2795 -0.0453
 1188ERGO    C215898  13.154  18.668   7.836  0.2738 -0.0212 -0.1024
 1189ERGO   ROH15899   3.405  17.105   5.535  0.2241  0.0893 -0.0965
 1189ERGO    R115900   3.432  17.084   5.816  0.2132  0.0003 -0.1014
 1189ERGO    R215901   3.669  17.141   5.947  0.1255  0.2586 -0.0462
 1189ERGO    R315902   3.512  17.309   6.091 -0.1219 -0.0111  0.0096
 1189ERGO    R415903   3.693  17.190   6.288  0.1856  0.3249 -0.0601
 1189ERGO    R515904   3.476  17.195   6.298  0.1746 -0.0677  0.0345
 1189ERGO    C115905   3.560  17.378   6.622 -0.0116  0.1104 -0.0158
 1189ERGO    C215906   3.528  17.327   6.930 -0.0074  0.3813 -0.0837
 1190ERGO   ROH15907  16.502  12.268   6.476  0.0088  0.0986 -0.0333
 1190ERGO    R115908  16.513  12.214   6.753 -0.0562 -0.1497 -0.0768
 1190ERGO    R215909  16.675  12.018   6.861  0.1078 -0.0770 -0.1926
 1190ERGO    R315910  16.766  12.222   7.015 -0.1785 -0.1198  0.0426
 1190ERGO    R415911  16.853  11.979   7.155  0.3103 -0.1786 -0.3257
 1190ERGO    R515912  16.738  12.144   7.240  0.0542 -0.4836 -0.0441
 1190ERGO    C115913  17.041  12.148   7.471  0.1593 -0.2780 -0.1823
 1190ERGO    C215914  17.283  12.185   7.639 -0.1595  0.0297  0.2562
 1191ERGO   ROH15915   8.702  18.318   6.453 -0.3577 -0.3929 -0.1121
 1191ERGO    R115916   8.742  18.247   6.724 -0.2267 -0.3063 -0.1080
 1191ERGO    R215917   8.542  18.266   6.914 -0.1169 -0.1876 -0.0048
 1191ERGO    R315918   8.602  18.004   6.957 -0.1607 -0.1886  0.0571
 1191ERGO    R415919   8.484  18.095   7.209 -0.0206 -0.0701  0.0837
 1191ERGO    R515920   8.677  17.996   7.184 -0.0547 -0.1264  0.0263
 1191ERGO    C115921   8.508  17.749   7.420 -0.0057 -0.0026  0.1935
 1191ERGO    C215922   8.559  17.750   7.720  0.2187  0.2137  0.1419
 1192ERGO   ROH15923  17.572  10.241   5.833 -0.1438  0.1239  0.0443
 1192ERGO    R115924  17.579  10.385   6.076  0.0357  0.1814  0.0072
 1192ERGO    R215925  17.646  10.267   6.317 -0.1364  0.1512  0.0445
 1192ERGO    R315926  17.829  10.468   6.328  0.1373 -0.0898 -0.0025
 1192ERGO    R415927  17.819  10.361   6.601 -0.1482  0.1130  0.0642
 1192ERGO    R515928  17.793  10.570   6.542  0.1687  0.1098 -0.0928
 1192ERGO    C115929  18.091  10.605   6.777  0.1017 -0.1354  0.0317
 1192ERGO    C215930  18.286  10.789   7.059 -0.0376  0.1535 -0.2458
 1193ERGO   ROH15931   8.468  12.464   6.268  0.0705 -0.0403 -0.0614
 1193ERGO    R115932   8.336  12.306   6.463  0.2775 -0.1537 -0.0105
 1193ERGO    R215933   8.472  12.175   6.665  0.4401  0.2653  0.1617
 1193ERGO    R315934   8.299  12.310   6.825  0.0851  0.0552 -0.0296
 1193ERGO    R415935   8.331  12.048   6.954  0.5423  0.2034  0.1853
 1193ERGO    R515936   8.143  12.143   6.898  0.3721 -0.2059  0.0135
 1193ERGO    C115937   8.087  12.102   7.273  0.2683 -0.0298  0.0195
 1193ERGO    C215938   7.965  11.835   7.529 -0.0198 -0.0345  0.4058
 1194ERGO   ROH15939   8.672   8.317   6.139 -0.1063  0.2221 -0.0861
 1194ERGO    R115940   8.702   8.145   6.362 -0.2923  0.1559 -0.1102
 1194ERGO    R215941   8.943   8.111   6.493 -0.2926 -0.2267 -0.1955
 1194ERGO    R315942   8.797   8.181   6.711 -0.1144 -0.0153 -0.1402
 1194ERGO    R415943   9.012   8.012   6.816 -0.1027 -0.0134 -0.1681
 1194ERGO    R515944   8.799   7.985   6.849 -0.0896  0.0852  0.0032
 1194ERGO    C115945   8.916   8.020   7.210  0.1751  0.3093 -0.1003
 1194ERGO    C215946   8.995   8.066   7.478 -0.1669 -0.1108  0.0693
 1195ERGO   ROH15947   0.178  12.755   5.682  0.1059 -0.4091 -0.0800
 1195ERGO    R115948   0.021  12.664   5.899  0.1954 -0.2609  0.0507
 1195ERGO    R215949   0.126  12.517   6.108  0.2878 -0.1034  0.1245
 1195ERGO    R315950   0.014  12.713   6.260  0.3366  0.0062  0.0179
 1195ERGO    R415951   0.070  12.495   6.448 -0.0295 -0.0296  0.0785
 1195ERGO    R515952  -0.122  12.595   6.418  0.0910  0.1441 -0.0913
 1195ERGO    C115953  -0.068  12.666   6.789 -0.1683  0.1164 -0.0485
 1195ERGO    C215954  -0.080  12.620   7.065  0.1333 -0.0099 -0.2247
 1196ERGO   ROH15955  17.861   1.508   6.250  0.1672 -0.0439  0.0187
 1196ERGO    R115956  17.933   1.445   6.516  0.0500 -0.0113  0.0594
 1196ERGO    R215957  17.846   1.591   6.733 -0.0361  0.0244  0.0040
 1196ERGO    R315958  17.760   1.349   6.822 -0.0872  0.0405 -0.0025
 1196ERGO    R415959  17.878   1.477   7.058  0.2734 -0.1419 -0.0817
 1196ERGO    R515960  17.928   1.280   6.978  0.0539 -0.1386 -0.2291
 1196ERGO    C115961  17.816   1.182   7.330  0.4055 -0.2236 -0.1377
 1196ERGO    C215962  17.706   1.054   7.721  0.0467  0.1169  0.1628
 1197ERGO   ROH15963   9.977  16.000   6.430 -0.0131 -0.0368 -0.0804
 1197ERGO    R115964   9.812  16.061   6.652  0.0464  0.0381 -0.0566
 1197ERGO    R215965   9.659  15.870   6.780 -0.0664  0.1197 -0.0725
 1197ERGO    R315966   9.791  15.959   7.001  0.0103  0.0006 -0.0691
 1197ERGO    R415967   9.577  15.787   7.105 -0.0195  0.0196 -0.0859
 1197ERGO    R515968   9.618  15.993   7.163  0.0535 -0.0104 -0.0176
 1197ERGO    C115969   9.653  15.821   7.502  0.0798 -0.1507 -0.0905
 1197ERGO    C215970   9.463  15.757   7.788 -0.0189  0.3041 -0.0385
 1198ERGO   ROH15971   9.914   0.301   6.261 -0.1916  0.1262 -0.0467
 1198ERGO    R115972   9.863   0.420   6.513  0.0278  0.0784  0.0236
 1198ERGO    R215973   9.671   0.324   6.687 -0.0748  0.2596  0.0170
 1198ERGO    R315974   9.878   0.318   6.862 -0.0393 -0.1173 -0.0302
 1198ERGO    R415975   9.639   0.331   7.031  0.0181  0.1530  0.0280
 1198ERGO    R515976   9.811   0.465   7.039  0.2138 -0.0970  0.0505
 1198ERGO    C115977   9.816   0.330   7.396  0.1057 -0.2628 -0.0099
 1198ERGO    C215978   9.972   0.258   7.721  0.1014  0.0215 -0.4533
 1199ERGO   ROH15979  11.601   9.011   5.769 -0.0160 -0.0532  0.1081
 1199ERGO    R115980  11.537   9.157   6.003  0.0160  0.0990  0.0222
 1199ERGO    R215981  11.493   9.035   6.247 -0.0185  0.2532  0.0889
 1199ERGO    R315982  11.685   9.207   6.332  0.0206  0.2560 -0.0017
 1199ERGO    R415983  11.549   9.123   6.577  0.3054  0.0390  0.0959
 1199ERGO    R515984  11.583   9.327   6.511  0.1693  0.1002  0.1966
 1199ERGO    C115985  11.762   9.335   6.848  0.5306 -0.0832  0.0150
 1199ERGO    C215986  11.866   9.482   7.193  0.2367 -0.1621  0.3251
 1200ERGO   ROH15987  17.854  14.588   5.910 -0.0133 -0.1211  0.1152
 1200ERGO    R115988  17.865  14.659   6.184 -0.1735  0.0418  0.0808
 1200ERGO    R215989  17.638  14.691   6.338 -0.2580 -0.2727  0.0295
 1200ERGO    R315990  17.760  14.511   6.500  0.0391  0.0194  0.1426
 1200ERGO    R415991  17.604  14.680   6.682 -0.2517 -0.1248  0.0358
 1200ERGO    R515992  17.817  14.636   6.696 -0.1727  0.2343  0.0727
 1200ERGO    C115993  17.699  14.503   7.034  0.0307  0.2355  0.1456
 1200ERGO    C215994  17.684  14.233   7.279  0.2696 -0.1216  0.1609
 1201ERGO   ROH15995   7.936   7.681   5.571 -0.0159 -0.1858  0.0144
 1201ERGO    R115996   7.821   7.888   5.724  0.1308 -0.0890 -0.0035
 1201ERGO    R215997   7.621   8.052   5.627  0.1062 -0.0838  0.0500
 1201ERGO    R315998   7.490   7.971   5.851  0.2294  0.0447  0.1699
 1201ERGO    R415999   7.434   8.258   5.832  0.1421  0.0147 -0.0161
 1201ERGO    R516000   7.516   8.153   6.005  0.2480  0.1648  0.0250
 1201ERGO    C116001   7.202   8.302   6.162  0.2786  0.1928  0.0581
 1201ERGO    C216002   7.003   8.595   6.286  0.2919 -0.0768  0.0870
 1202ERGO   ROH16003  14.571   6.658   6.012  0.0476 -0.0816  0.0793
 1202ERGO    R116004  14.505   6.535   6.259 -0.2249  0.0043  0.0527
 1202ERGO    R216005  14.672   6.542   6.478 -0.3019 -0.2306  0.1225
 1202ERGO    R316006  14.453   6.643   6.603 -0.2180  0.0738  0.0320
 1202ERGO    R416007  14.669   6.664   6.801 -0.2940 -0.3589  0.1714
 1202ERGO    R516008  14.474   6.568   6.829 -0.4721 -0.0596  0.0155
 1202ERGO    C116009  14.460   6.830   7.107 -0.2107 -0.1478  0.1149
 1202ERGO    C216010  14.309   7.147   7.294 -0.0157 -0.1935  0.0366
 1203ERGO   ROH16011   4.000  10.658   7.514 -0.1980 -0.0205  0.0992
 1203ERGO    R116012   4.147  10.645   7.756 -0.0608 -0.0912  0.0122
 1203ERGO    R216013   4.049  10.742   7.995  0.1648  0.0397  0.0499
 1203ERGO    R316014   4.106  10.491   8.083  0.0127  0.0110  0.0717
 1203ERGO    R416015   4.073  10.649   8.327  0.2028  0.0871  0.0608
 1203ERGO    R516016   4.245  10.525   8.275  0.1023 -0.0488  0.0239
 1203ERGO    C116017   4.141  10.360   8.603  0.0821  0.0879  0.0879
 1203ERGO    C216018   4.233  10.221   8.842 -0.3375 -0.0514  0.2983
 1204ERGO   ROH16019  14.911  15.337   6.546 -0.0634 -0.2011  0.0314
 1204ERGO    R116020  14.956  15.464   6.795 -0.2684 -0.0074 -0.0273
 1204ERGO    R216021  14.771  15.458   7.000 -0.2165 -0.3178  0.0132
 1204ERGO    R316022  14.980  15.360   7.143  0.0294  0.1719  0.0096
 1204ERGO    R416023  14.792  15.459   7.345 -0.3401 -0.4891  0.0229
 1204ERGO    R516024  15.002  15.512   7.327 -0.4646  0.1270  0.1232
 1204ERGO    C116025  15.000  15.368   7.680 -0.1814 -0.1292  0.0252
 1204ERGO    C216026  14.935  15.105   7.915 -0.1342  0.1408  0.2449
 1205ERGO   ROH16027  15.880  15.724   6.390 -0.0044  0.0265 -0.0808
 1205ERGO    R116028  15.996  15.728   6.648  0.0443 -0.1194 -0.0995
 1205ERGO    R216029  15.845  15.730   6.879  0.0810  0.0914 -0.0749
 1205ERGO    R316030  15.996  15.513   6.941 -0.1969 -0.1124 -0.0932
 1205ERGO    R416031  15.857  15.580   7.190  0.1515  0.2634  0.0064
 1205ERGO    R516032  16.072  15.555   7.164  0.0915 -0.0909 -0.1927
 1205ERGO    C116033  16.006  15.289   7.430 -0.0681  0.1723  0.0366
 1205ERGO    C216034  15.870  14.972   7.579 -0.0855  0.0975  0.4054
 1206ERGO   ROH16035   5.893   7.631   9.133  0.3161  0.1811  0.0073
 1206ERGO    R116036   5.928   7.492   8.889  0.2419  0.1626  0.0072
 1206ERGO    R216037   5.716   7.398   8.739  0.1960  0.2073  0.0488
 1206ERGO    R316038   5.836   7.541   8.541  0.1953  0.1684  0.0195
 1206ERGO    R416039   5.623   7.391   8.406  0.1290  0.2107  0.0669
 1206ERGO    R516040   5.834   7.394   8.352  0.1227  0.1557  0.0270
 1206ERGO    C116041   5.682   7.521   8.026  0.0894  0.1761  0.0498
 1206ERGO    C216042   5.626   7.433   7.737 -0.0071  0.0598 -0.1178
 1207ERGO   ROH16043  16.013  18.779   6.022 -0.1078 -0.3040 -0.1219
 1207ERGO    R116044  16.075  18.841   6.291 -0.0099 -0.2626 -0.1533
 1207ERGO    R216045  15.931  18.739   6.504 -0.0995 -0.0220 -0.0946
 1207ERGO    R316046  16.176  18.656   6.588 -0.1776 -0.2566 -0.0913
 1207ERGO    R416047  16.014  18.670   6.832 -0.1608 -0.0738 -0.0899
 1207ERGO    R516048  16.207  18.767   6.798 -0.0646 -0.2666 -0.1023
 1207ERGO    C116049  16.292  18.553   7.102 -0.2698 -0.3244 -0.0841
 1207ERGO    C216050  16.315  18.333   7.396 -0.1347  0.3292 -0.1046
 1208ERGO   ROH16051   1.370   9.839   5.313  0.1563 -0.3498  0.0680
 1208ERGO    R116052   1.334   9.955   5.569 -0.0524 -0.3170  0.0254
 1208ERGO    R216053   1.206   9.823   5.775  0.1148 -0.4435  0.0526
 1208ERGO    R316054   1.435   9.880   5.910  0.0176 -0.0542  0.0637
 1208ERGO    R416055   1.240   9.810   6.118  0.0621 -0.1417  0.0720
 1208ERGO    R516056   1.360   9.992   6.109 -0.1637  0.0029 -0.0365
 1208ERGO    C116057   1.475   9.855   6.446 -0.0598  0.3996  0.0937
 1208ERGO    C216058   1.492   9.893   6.835 -0.2657 -0.4578 -0.3439
 1209ERGO   ROH16059  10.182   2.397   5.882 -0.0965 -0.1194  0.0486
 1209ERGO    R116060  10.157   2.298   6.146 -0.2294 -0.0496  0.0626
 1209ERGO    R216061  10.361   2.315   6.332 -0.1974 -0.3138  0.0511
 1209ERGO    R316062  10.170   2.436   6.483 -0.0237 -0.0213  0.0449
 1209ERGO    R416063  10.393   2.390   6.667 -0.0518 -0.2671  0.0278
 1209ERGO    R516064  10.186   2.328   6.696 -0.1355  0.0096  0.0718
 1209ERGO    C116065  10.233   2.547   7.005  0.1960  0.0347  0.0085
 1209ERGO    C216066  10.304   2.639   7.318 -0.2402 -0.0054 -0.2951
 1210ERGO   ROH16067  17.005  17.586   6.415  0.1342  0.2650  0.0870
 1210ERGO    R116068  17.149  17.730   6.612  0.1129  0.2504  0.1144
 1210ERGO    R216069  17.035  17.812   6.849  0.0818  0.2449  0.1055
 1210ERGO    R316070  17.245  17.679   6.959  0.0605  0.2283  0.1247
 1210ERGO    R416071  17.191  17.900   7.145  0.1337  0.2899  0.0644
 1210ERGO    R516072  17.382  17.852   7.052  0.1105  0.2189  0.0619
 1210ERGO    C116073  17.479  17.826   7.421  0.1438  0.3008  0.0584
 1210ERGO    C216074  17.629  17.781   7.710  0.0622  0.2129 -0.0493
 1211ERGO   ROH16075  15.954  17.660   5.961  0.0464 -0.3936 -0.1360
 1211ERGO    R116076  16.079  17.429   6.065 -0.0358 -0.3635  0.0322
 1211ERGO    R216077  16.310  17.440   6.216  0.0251 -0.3412 -0.0649
 1211ERGO    R316078  16.162  17.298   6.395  0.0178 -0.1020  0.1254
 1211ERGO    R416079  16.439  17.218   6.447 -0.0117 -0.3093 -0.0125
 1211ERGO    R516080  16.271  17.085   6.406 -0.1583 -0.1921  0.1831
 1211ERGO    C116081  16.375  16.955   6.749 -0.0401 -0.0657  0.1966
 1211ERGO    C216082  16.601  16.909   7.069  0.0002 -0.4189  0.0797
 1212ERGO   ROH16083  14.098  15.937   6.526  0.1061  0.0742  0.0451
 1212ERGO    R116084  14.109  15.894   6.806  0.0167  0.1975  0.0686
 1212ERGO    R216085  14.253  15.687   6.920 -0.3265  0.0089  0.1832
 1212ERGO    R316086  14.366  15.889   7.063 -0.0019 -0.0972  0.0830
 1212ERGO    R416087  14.427  15.646   7.215 -0.3651 -0.1198  0.1883
 1212ERGO    R516088  14.332  15.826   7.291 -0.0806  0.0643  0.1133
 1212ERGO    C116089  14.635  15.811   7.522 -0.0828 -0.2942  0.0972
 1212ERGO    C216090  14.808  15.850   7.757  0.1381  0.2320  0.2738
 1213ERGO   ROH16091  19.147   4.100   5.530  0.1134  0.0717  0.1395
 1213ERGO    R116092  19.267   3.992   5.763  0.1068 -0.0996  0.0657
 1213ERGO    R216093  19.174   4.047   6.017  0.2635 -0.0677  0.1188
 1213ERGO    R316094  19.164   3.776   6.037  0.0089 -0.0655  0.0559
 1213ERGO    R416095  19.189   3.870   6.314  0.0431 -0.1531  0.0810
 1213ERGO    R516096  19.317   3.724   6.214 -0.0727 -0.2487  0.0735
 1213ERGO    C116097  19.190   3.513   6.505 -0.3243 -0.2006  0.0001
 1213ERGO    C216098  19.340   3.333   6.625 -0.3751 -0.0302 -0.2266
 1214ERGO   ROH16099   8.637   1.070   6.228  0.1588 -0.0944  0.0900
 1214ERGO    R116100   8.732   1.208   6.456 -0.0055  0.0380  0.0806
 1214ERGO    R216101   8.635   1.456   6.531 -0.3163 -0.0748  0.0613
 1214ERGO    R316102   8.591   1.330   6.768 -0.1582 -0.1190  0.0789
 1214ERGO    R416103   8.719   1.584   6.841 -0.2923 -0.0190  0.0317
 1214ERGO    R516104   8.783   1.385   6.901 -0.1362  0.0074  0.0107
 1214ERGO    C116105   8.726   1.541   7.244 -0.1298 -0.0281  0.0309
 1214ERGO    C216106   8.894   1.550   7.481  0.1772 -0.0137  0.0793
 1215ERGO   ROH16107   2.376  10.052   5.928 -0.0090  0.0335  0.0138
 1215ERGO    R116108   2.282  10.130   6.183 -0.0995  0.1031 -0.0407
 1215ERGO    R216109   2.450  10.166   6.400 -0.1756  0.1697  0.0061
 1215ERGO    R316110   2.331  10.411   6.409 -0.1872  0.1691 -0.1026
 1215ERGO    R416111   2.340  10.322   6.688 -0.2646  0.2527 -0.0715
 1215ERGO    R516112   2.164  10.389   6.579 -0.2364  0.2140 -0.1438
 1215ERGO    C116113   2.165  10.642   6.865 -0.3274  0.3005 -0.2188
 1215ERGO    C216114   2.093  10.824   7.151 -0.1931  0.0714  0.1078
 1216ERGO   ROH16115   4.820  16.523   5.557 -0.1131 -0.1174  0.1771
 1216ERGO    R116116   4.959  16.616   5.786  0.0192 -0.0307  0.0637
 1216ERGO    R216117   5.120  16.840   5.782 -0.1079  0.0611 -0.0753
 1216ERGO    R316118   4.962  16.918   5.989  0.0115 -0.0201  0.0476
 1216ERGO    R416119   5.226  17.032   6.049  0.0400 -0.0272 -0.0693
 1216ERGO    R516120   5.105  16.906   6.180  0.1262 -0.0793 -0.0415
 1216ERGO    C116121   5.139  17.216   6.400  0.2382 -0.1549  0.0496
 1216ERGO    C216122   5.104  17.438   6.719  0.0279 -0.0338 -0.2719
 1217ERGO   ROH16123  15.364  11.401   6.742  0.2092  0.2512  0.0521
 1217ERGO    R116124  15.389  11.244   6.976  0.1070  0.1027 -0.0329
 1217ERGO    R216125  15.630  11.210   7.107  0.0885 -0.1143 -0.0341
 1217ERGO    R316126  15.488  11.299   7.321  0.1256 -0.1453  0.0008
 1217ERGO    R416127  15.619  11.055   7.416  0.1253 -0.1517 -0.0531
 1217ERGO    R516128  15.406  11.100   7.425  0.1361 -0.1495 -0.0129
 1217ERGO    C116129  15.479  11.047   7.796  0.1816 -0.2027 -0.0313
 1217ERGO    C216130  15.490  10.942   8.085  0.0425  0.2677 -0.0231
 1218ERGO   ROH16131   9.902  17.479   6.269 -0.0061  0.0204 -0.1808
 1218ERGO    R116132  10.067  17.588   6.472 -0.0721 -0.0092 -0.1093
 1218ERGO    R216133   9.987  17.797   6.633 -0.0828  0.0460 -0.1787
 1218ERGO    R316134  10.052  17.625   6.834 -0.2503  0.0477 -0.1222
 1218ERGO    R416135  10.073  17.892   6.954  0.0243  0.0672 -0.2147
 1218ERGO    R516136  10.227  17.738   6.953 -0.1328 -0.0892 -0.1667
 1218ERGO    C116137  10.186  17.787   7.329 -0.0705  0.0814 -0.1826
 1218ERGO    C216138  10.372  18.037   7.550  0.0295 -0.2315 -0.1239
 1219ERGO   ROH16139  18.479  17.284   6.128  0.1622 -0.2911 -0.0024
 1219ERGO    R116140  18.504  17.200   6.397  0.0737  0.1086  0.1387
 1219ERGO    R216141  18.364  17.318   6.603 -0.2972  0.1732 -0.1322
 1219ERGO    R316142  18.284  17.063   6.653  0.0695  0.1014  0.1292
 1219ERGO    R416143  18.211  17.214   6.895 -0.5837  0.3568 -0.2134
 1219ERGO    R516144  18.331  17.031   6.886 -0.2443  0.5438  0.2620
 1219ERGO    C116145  18.046  16.914   7.111 -0.4064  0.3966 -0.0152
 1219ERGO    C216146  17.905  16.852   7.371  0.1344 -0.3003 -0.2531
 1220ERGO   ROH16147   1.411  18.923   5.767 -0.1569 -0.1111  0.1448
 1220ERGO    R116148   1.518  18.792   5.994  0.0386 -0.2037  0.0023
 1220ERGO    R216149   1.759  18.657   5.989  0.2007  0.0831 -0.1728
 1220ERGO    R316150   1.818  18.819   6.198  0.0460 -0.0429 -0.0284
 1220ERGO    R416151   1.922  18.557   6.277  0.2423 -0.0308 -0.2349
 1220ERGO    R516152   1.786  18.682   6.391  0.1281 -0.2318 -0.1454
 1220ERGO    C116153   2.072  18.652   6.641  0.1214 -0.2153 -0.1354
 1220ERGO    C216154   2.406  18.537   6.728 -0.2811 -0.0882 -0.1260
 1221ERGO   ROH16155   9.666   7.137   5.342  0.0480  0.2233  0.0305
 1221ERGO    R116156   9.559   7.128   5.604  0.1717  0.1028  0.0782
 1221ERGO    R216157   9.682   7.250   5.819  0.1060  0.2861  0.0143
 1221ERGO    R316158   9.439   7.369   5.849 -0.0434 -0.0312  0.1077
 1221ERGO    R416159   9.600   7.467   6.075  0.0139  0.3982 -0.1091
 1221ERGO    R516160   9.404   7.372   6.086  0.1539  0.1251  0.1384
 1221ERGO    C116161   9.324   7.706   6.252 -0.1799  0.1655 -0.0933
 1221ERGO    C216162   9.495   7.872   6.427 -0.0468 -0.2658 -0.2253
 1222ERGO   ROH16163  15.868  16.504   9.853  0.0502 -0.0828  0.0437
 1222ERGO    R116164  15.711  16.438   9.626  0.1445 -0.1722  0.0061
 1222ERGO    R216165  15.791  16.496   9.368  0.1493 -0.0760  0.0388
 1222ERGO    R316166  15.749  16.230   9.330  0.3556 -0.1050 -0.0195
 1222ERGO    R416167  15.709  16.349   9.066 -0.1394 -0.0030  0.0773
 1222ERGO    R516168  15.569  16.220   9.172  0.1289 -0.1950  0.2257
 1222ERGO    C116169  15.620  16.015   8.855 -0.1137  0.0124  0.0449
 1222ERGO    C216170  15.464  15.760   8.541 -0.0467 -0.2389 -0.0330
 1223ERGO   ROH16171   7.596   6.819   5.958  0.2279  0.0295 -0.1201
 1223ERGO    R116172   7.705   7.048   6.084  0.1861  0.0056 -0.0429
 1223ERGO    R216173   7.616   7.140   6.329  0.0936 -0.0322 -0.0684
 1223ERGO    R316174   7.879   7.122   6.395  0.0689 -0.0444  0.0370
 1223ERGO    R416175   7.762   7.292   6.603 -0.0579 -0.2346  0.1310
 1223ERGO    R516176   7.934   7.339   6.478 -0.0051 -0.1002  0.2457
 1223ERGO    C116177   8.095   7.364   6.823 -0.1694 -0.3640  0.3459
 1223ERGO    C216178   8.376   7.500   6.958  0.0308  0.4680 -0.2761
 1224ERGO   ROH16179   8.021  10.081   6.200 -0.2263 -0.0635  0.0238
 1224ERGO    R116180   8.166   9.936   6.395 -0.1091 -0.1285 -0.1100
 1224ERGO    R216181   8.244  10.047   6.636  0.1479 -0.1695 -0.1739
 1224ERGO    R316182   8.113   9.833   6.740  0.1567 -0.1235 -0.0655
 1224ERGO    R416183   8.181   9.999   6.972  0.2501 -0.0552 -0.1369
 1224ERGO    R516184   8.227   9.788   6.946  0.2190 -0.0707 -0.0864
 1224ERGO    C116185   8.021   9.769   7.266  0.3179  0.0546 -0.0136
 1224ERGO    C216186   7.877   9.585   7.409  0.0900 -0.0124 -0.0563
 1225ERGO   ROH16187   9.030   5.488   5.720  0.1436 -0.0349  0.0675
 1225ERGO    R116188   9.172   5.492   5.964  0.1226  0.2058  0.0795
 1225ERGO    R216189   9.138   5.691   6.154 -0.1911  0.1837  0.0604
 1225ERGO    R316190   9.089   5.480   6.319  0.1069  0.1209  0.0710
 1225ERGO    R416191   9.127   5.708   6.499 -0.0903  0.1451  0.0649
 1225ERGO    R516192   9.232   5.517   6.507  0.1269  0.2688  0.0209
 1225ERGO    C116193   9.075   5.520   6.854  0.2484  0.0637  0.0775
 1225ERGO    C216194   9.149   5.412   7.196 -0.2914  0.1087 -0.0078
 1226ERGO   ROH16195  11.446   2.077   6.043  0.1551  0.0754  0.0993
 1226ERGO    R116196  11.538   2.240   6.255  0.2940 -0.2637  0.3064
 1226ERGO    R216197  11.412   2.476   6.328  0.8488  0.0888  0.1765
 1226ERGO    R316198  11.406   2.359   6.573  0.1125 -0.0011  0.1374
 1226ERGO    R416199  11.334   2.638   6.623  0.3083  0.0672  0.0570
 1226ERGO    R516200  11.492   2.525   6.721 -0.0502 -0.1538  0.4138
 1226ERGO    C116201  11.283   2.622   7.025 -0.6978 -0.0297 -0.0494
 1226ERGO    C216202  11.125   2.875   7.302 -0.0450 -0.0948  0.0162
 1227ERGO   ROH16203   1.016  13.365   5.696  0.0340 -0.1101  0.0172
 1227ERGO    R116204   0.842  13.355   5.919  0.0465  0.0298  0.0338
 1227ERGO    R216205   0.766  13.118   6.038 -0.1955  0.0842 -0.0101
 1227ERGO    R316206   0.859  13.238   6.263 -0.0411 -0.0632  0.0078
 1227ERGO    R416207   0.796  12.964   6.346 -0.3904 -0.0039 -0.0336
 1227ERGO    R516208   0.724  13.148   6.439 -0.1601  0.0789 -0.0062
 1227ERGO    C116209   0.900  12.988   6.737 -0.3590 -0.1935 -0.0305
 1227ERGO    C216210   0.886  12.826   6.913 -0.4448 -0.3192 -0.2287
 1228ERGO   ROH16211  14.206  18.540   6.559  0.1510  0.4447 -0.0389
 1228ERGO    R116212  14.193  18.450   6.827  0.2542  0.3364 -0.0693
 1228ERGO    R216213  14.369  18.538   7.022  0.0549  0.6056 -0.0046
 1228ERGO    R316214  14.140  18.602   7.154 -0.1018  0.1455 -0.0335
 1228ERGO    R416215  14.342  18.575   7.365 -0.0594  0.5855 -0.0104
 1228ERGO    R516216  14.150  18.473   7.356  0.1451  0.1800 -0.0207
 1228ERGO    C116217  14.112  18.657   7.688 -0.2730  0.1420 -0.0408
 1228ERGO    C216218  14.079  18.571   8.043 -0.0945 -0.0571  0.1274
 1229ERGO   ROH16219   4.238   7.656   5.531  0.0125  0.2157  0.0807
 1229ERGO    R116220   4.261   7.687   5.811 -0.2514  0.3643  0.0896
 1229ERGO    R216221   4.505   7.693   5.941 -0.3730 -0.3662  0.3986
 1229ERGO    R316222   4.412   7.928   6.039  0.2839  0.0615  0.0724
 1229ERGO    R416223   4.509   7.782   6.274 -0.6145 -0.1562  0.3484
 1229ERGO    R516224   4.310   7.869   6.248 -0.2924  0.5481 -0.0404
 1229ERGO    C116225   4.423   8.055   6.561 -0.1384  0.3675  0.0129
 1229ERGO    C216226   4.577   8.077   6.729 -0.1148  0.0405 -0.0951
 1230ERGO   ROH16227   7.053  16.531   5.923  0.0939  0.1817 -0.0459
 1230ERGO    R116228   7.101  16.555   6.200  0.0771  0.1289 -0.0387
 1230ERGO    R216229   6.899  16.597   6.384  0.0673  0.0947 -0.0442
 1230ERGO    R316230   7.004  16.376   6.502  0.0589  0.0725 -0.0771
 1230ERGO    R416231   6.790  16.462   6.683  0.1133  0.1050 -0.0225
 1230ERGO    R516232   6.998  16.425   6.736  0.1221  0.0681 -0.0728
 1230ERGO    C116233   6.826  16.176   6.968  0.1322  0.0903 -0.0407
 1230ERGO    C216234   6.697  16.142   7.290 -0.1798  0.4353  0.0184
 1231ERGO   ROH16235  11.171   4.338   5.965  0.1458  0.1419  0.1374
 1231ERGO    R116236  11.075   4.377   6.229  0.0001  0.0087  0.1057
 1231ERGO    R216237  10.862   4.234   6.332  0.0027 -0.1140 -0.0504
 1231ERGO    R316238  11.040   4.174   6.529 -0.0693 -0.1156  0.0142
 1231ERGO    R416239  10.777   4.144   6.655 -0.1107 -0.0830 -0.0712
 1231ERGO    R516240  10.942   4.266   6.728 -0.1256 -0.0937 -0.0252
 1231ERGO    C116241  10.895   4.035   7.028 -0.2443 -0.0665 -0.0226
 1231ERGO    C216242  10.838   3.669   7.173 -0.0580 -0.2516 -0.1436
 1232ERGO   ROH16243  16.298   0.106   7.674 -0.0948  0.1924  0.0456
 1232ERGO    R116244  16.034   0.144   7.768 -0.1325  0.1766 -0.0527
 1232ERGO    R216245  15.816   0.018   7.655 -0.0528 -0.0279  0.0202
 1232ERGO    R316246  15.771  -0.064   7.910 -0.0779  0.2059  0.0946
 1232ERGO    R416247  15.538  -0.159   7.759  0.0441 -0.1326  0.1041
 1232ERGO    R516248  15.535  -0.038   7.940 -0.1119  0.0598 -0.0202
 1232ERGO    C116249  15.334  -0.340   8.059  0.0770  0.0258  0.2228
 1232ERGO    C216250  15.052  -0.470   7.989  0.0024 -0.2155  0.3612
 1233ERGO   ROH16251   8.758  11.789   6.056 -0.1247 -0.0337 -0.0458
 1233ERGO    R116252   8.677  11.598   6.249  0.1167 -0.0715  0.0215
 1233ERGO    R216253   8.437  11.462   6.230  0.0688 -0.0249  0.3236
 1233ERGO    R316254   8.597  11.243   6.251  0.0627 -0.0611  0.0414
 1233ERGO    R416255   8.325  11.142   6.297  0.0967 -0.0019  0.4882
 1233ERGO    R516256   8.498  11.114   6.427  0.3182 -0.0486  0.2062
 1233ERGO    C116257   8.410  10.750   6.355  0.1072 -0.0225  0.3192
 1233ERGO    C216258   8.199  10.464   6.380 -0.1956  0.1986 -0.1278
 1234ERGO   ROH16259   4.355  11.390   5.675 -0.1644 -0.1279 -0.2043
 1234ERGO    R116260   4.391  11.406   5.955 -0.1911 -0.0946 -0.2026
 1234ERGO    R216261   4.182  11.454   6.130 -0.2444 -0.2855 -0.2120
 1234ERGO    R316262   4.270  11.225   6.247 -0.0403 -0.2055 -0.2075
 1234ERGO    R416263   4.199  11.401   6.471 -0.0689 -0.2123 -0.2090
 1234ERGO    R516264   4.390  11.300   6.440 -0.0111 -0.0885 -0.2693
 1234ERGO    C116265   4.293  11.156   6.780  0.2250 -0.0946 -0.2030
 1234ERGO    C216266   4.180  11.055   7.129 -0.1837  0.0981 -0.1571
 1235ERGO   ROH16267   8.006   3.916   5.995  0.0369 -0.1366 -0.0801
 1235ERGO    R116268   8.080   3.998   6.255  0.0538  0.3123 -0.2185
 1235ERGO    R216269   7.963   4.212   6.383 -0.4259  0.1146 -0.3240
 1235ERGO    R316270   7.918   4.029   6.580  0.2524  0.1604 -0.1001
 1235ERGO    R416271   7.837   4.286   6.697 -0.8309  0.0472 -0.4635
 1235ERGO    R516272   7.979   4.143   6.782 -0.2495  0.7006 -0.2214
 1235ERGO    C116273   7.722   4.157   7.063 -0.4300  0.0509 -0.3345
 1235ERGO    C216274   7.613   4.070   7.349 -0.0826  0.0772  0.0851
 1236ERGO   ROH16275   0.577   7.869   5.635  0.3112 -0.1468  0.0284
 1236ERGO    R116276   0.608   8.028   5.867  0.0859 -0.0387 -0.0139
 1236ERGO    R216277   0.395   8.097   6.029 -0.0212 -0.2563 -0.0622
 1236ERGO    R316278   0.550   7.988   6.224  0.0930 -0.0064 -0.0088
 1236ERGO    R416279   0.389   8.193   6.360 -0.2434 -0.2185 -0.0752
 1236ERGO    R516280   0.607   8.175   6.364 -0.2117  0.0998 -0.0185
 1236ERGO    C116281   0.530   8.148   6.737 -0.2656  0.0380 -0.0327
 1236ERGO    C216282   0.574   8.031   7.086 -0.0126 -0.3506 -0.0433
 1237ERGO   ROH16283   7.726   3.122   5.931 -0.1269 -0.2069 -0.4176
 1237ERGO    R116284   7.488   3.094   6.082 -0.0459 -0.1537 -0.2799
 1237ERGO    R216285   7.384   2.848   6.152  0.0066 -0.1245 -0.1172
 1237ERGO    R316286   7.394   2.951   6.403  0.1262 -0.0158 -0.1640
 1237ERGO    R416287   7.116   2.866   6.369  0.1424 -0.2015  0.0609
 1237ERGO    R516288   7.184   3.063   6.430  0.0711 -0.1289 -0.0673
 1237ERGO    C116289   6.969   2.973   6.732  0.3337 -0.1442  0.1206
 1237ERGO    C216290   6.674   2.708   6.979 -0.0864 -0.0827 -0.4529
 1238ERGO   ROH16291   4.779  18.040   5.788 -0.0604 -0.1254 -0.2260
 1238ERGO    R116292   4.803  17.800   5.937 -0.0187 -0.1031 -0.1974
 1238ERGO    R216293   4.663  17.755   6.171  0.1700 -0.0056 -0.0643
 1238ERGO    R316294   4.583  17.530   6.041 -0.0257 -0.0012  0.0534
 1238ERGO    R416295   4.665  17.437   6.307  0.3769 -0.0105 -0.0736
 1238ERGO    R516296   4.735  17.361   6.115  0.0865 -0.0032 -0.1815
 1238ERGO    C116297   4.590  17.041   6.265  0.3137 -0.0090  0.0314
 1238ERGO    C216298   4.533  16.681   6.219 -0.3097 -0.0206  0.2606
 1239ERGO   ROH16299  13.374  19.115   8.112 -0.2215 -0.0934 -0.0001
 1239ERGO    R116300  13.309  19.390   8.136  0.0093 -0.0168 -0.2043
 1239ERGO    R216301  13.283  19.556   7.917 -0.2387 -0.2510 -0.3625
 1239ERGO    R316302  13.040  19.608   8.025 -0.0293  0.0362 -0.0081
 1239ERGO    R416303  13.077  19.817   7.823 -0.1794 -0.1614 -0.2442
 1239ERGO    R516304  13.028  19.847   8.033  0.1806  0.0546 -0.1833
 1239ERGO    C116305  12.728  20.018   7.870  0.0517  0.1605  0.1574
 1239ERGO    C216306  12.576  20.243   7.786 -0.1920  0.1081 -0.3521
 1240ERGO   ROH16307   2.573   8.783   5.392  0.0013  0.1392  0.1152
 1240ERGO    R116308   2.598   8.637   5.633  0.2406  0.2178  0.1393
 1240ERGO    R216309   2.719   8.740   5.858 -0.1147  0.5384  0.1858
 1240ERGO    R316310   2.485   8.671   5.977 -0.0161 -0.0222  0.0836
 1240ERGO    R416311   2.674   8.706   6.199 -0.1746  0.4250  0.1678
 1240ERGO    R516312   2.550   8.530   6.160  0.2481  0.1202  0.1078
 1240ERGO    C116313   2.427   8.621   6.509 -0.1169 -0.1673  0.0614
 1240ERGO    C216314   2.184   8.794   6.773  0.2854  0.0522  0.0896
 1241ERGO   ROH16315   7.253  13.583   6.230 -0.0577  0.0027 -0.1488
 1241ERGO    R116316   7.283  13.783   6.428 -0.1458  0.0009 -0.1341
 1241ERGO    R216317   7.105  13.813   6.638 -0.1615 -0.0898 -0.1383
 1241ERGO    R316318   7.330  13.793   6.789 -0.1566 -0.0034 -0.1317
 1241ERGO    R416319   7.185  14.022   6.901 -0.1325  0.0980 -0.2932
 1241ERGO    R516320   7.392  14.020   6.833 -0.1324  0.0266 -0.3015
 1241ERGO    C116321   7.443  14.125   7.196 -0.1112  0.2885 -0.3772
 1241ERGO    C216322   7.420  14.443   7.333 -0.0717  0.1329  0.3407
 1242ERGO   ROH16323  14.178  13.762   6.642  0.1817  0.0450 -0.1829
 1242ERGO    R116324  14.352  13.754   6.865  0.1933  0.2158 -0.1846
 1242ERGO    R216325  14.408  13.978   7.018 -0.1124  0.2512 -0.1171
 1242ERGO    R316326  14.327  13.818   7.222  0.1017  0.0752 -0.1652
 1242ERGO    R416327  14.437  14.055   7.353 -0.1086  0.1327 -0.0896
 1242ERGO    R516328  14.493  13.848   7.392  0.1143  0.1707 -0.1942
 1242ERGO    C116329  14.377  13.950   7.741  0.0946 -0.1016 -0.1188
 1242ERGO    C216330  14.298  13.949   8.140 -0.2551 -0.0572 -0.1396
 1243ERGO   ROH16331  16.621   2.784   6.267 -0.1118 -0.0895  0.2031
 1243ERGO    R116332  16.648   2.625   6.499 -0.2586 -0.1932  0.1526
 1243ERGO    R216333  16.723   2.730   6.743  0.0719 -0.3747  0.1402
 1243ERGO    R316334  16.495   2.611   6.829 -0.1005  0.0109  0.2358
 1243ERGO    R416335  16.675   2.601   7.060 -0.0288 -0.2708  0.1667
 1243ERGO    R516336  16.571   2.432   6.970 -0.3456 -0.1060  0.2205
 1243ERGO    C116337  16.433   2.414   7.325 -0.2489  0.1517  0.2719
 1243ERGO    C216338  16.332   2.487   7.714  0.1694 -0.1455 -0.1058
 1244ERGO   ROH16339  15.433   9.047   6.094  0.0515  0.3031 -0.0067
 1244ERGO    R116340  15.302   8.888   6.288  0.2019  0.1348 -0.0408
 1244ERGO    R216341  15.410   8.838   6.537  0.2396  0.2032 -0.0452
 1244ERGO    R316342  15.172   8.936   6.624  0.1321 -0.0556 -0.0392
 1244ERGO    R416343  15.264   8.761   6.841  0.4682  0.2529  0.0807
 1244ERGO    R516344  15.071   8.752   6.740  0.4348 -0.1059  0.1593
 1244ERGO    C116345  14.955   8.807   7.099  0.5005  0.0388  0.1596
 1244ERGO    C216346  14.739   8.494   7.281  0.1441  0.1699  0.3790
 1245ERGO   ROH16347   8.256  16.641   6.169 -0.3883 -0.1661 -0.2757
 1245ERGO    R116348   8.243  16.496   6.411 -0.2490  0.0026 -0.1647
 1245ERGO    R216349   8.151  16.609   6.646 -0.2779  0.1176 -0.2279
 1245ERGO    R316350   7.983  16.395   6.645 -0.1407  0.0062 -0.0426
 1245ERGO    R416351   7.921  16.537   6.894 -0.0471  0.0287 -0.0351
 1245ERGO    R516352   7.973  16.326   6.874  0.0759  0.0586 -0.0164
 1245ERGO    C116353   7.629  16.295   7.037  0.2162 -0.1274  0.2509
 1245ERGO    C216354   7.258  16.155   7.190 -0.2629 -0.1321  0.1151
 1246ERGO   ROH16355   7.534  12.151   6.266  0.3761  0.1853  0.2261
 1246ERGO    R116356   7.297  12.159   6.419  0.2852  0.0676  0.0948
 1246ERGO    R216357   7.297  12.143   6.695  0.1363  0.0262  0.0939
 1246ERGO    R316358   7.156  12.375   6.676  0.0549 -0.0270  0.0502
 1246ERGO    R416359   7.096  12.273   6.945  0.1640  0.0479  0.1045
 1246ERGO    R516360   6.951  12.329   6.792  0.1022 -0.0541  0.1242
 1246ERGO    C116361   6.846  12.566   7.072  0.1037  0.0108  0.0696
 1246ERGO    C216362   6.804  12.604   7.335  0.2622 -0.3851 -0.6191
 1247ERGO   ROH16363   4.554  12.267   6.050 -0.4100  0.2302  0.0283
 1247ERGO    R116364   4.442  12.383   6.282 -0.3732  0.2169  0.0526
 1247ERGO    R216365   4.375  12.235   6.505 -0.3929  0.1962  0.0315
 1247ERGO    R316366   4.534  12.415   6.633 -0.3490  0.1420  0.0535
 1247ERGO    R416367   4.447  12.229   6.843 -0.1156 -0.0699 -0.0280
 1247ERGO    R516368   4.429  12.446   6.846 -0.1890 -0.0749  0.1708
 1247ERGO    C116369   4.638  12.394   7.160  0.0869 -0.2756 -0.0419
 1247ERGO    C216370   4.877  12.595   7.477  0.0998  0.2077  0.1143
 1248ERGO   ROH16371  17.969  11.139   8.031  0.1618  0.0886 -0.3236
 1248ERGO    R116372  17.875  10.900   7.912  0.0757  0.1371 -0.3469
 1248ERGO    R216373  17.945  10.823   7.656  0.4902 -0.1237 -0.1473
 1248ERGO    R316374  18.022  10.594   7.782 -0.0719 -0.1669  0.1562
 1248ERGO    R416375  17.955  10.510   7.509  0.6825 -0.1478 -0.0912
 1248ERGO    R516376  17.876  10.426   7.693  0.0296 -0.0586 -0.2816
 1248ERGO    C116377  18.032  10.114   7.541  0.2672 -0.2023  0.2263
 1248ERGO    C216378  18.298   9.856   7.536  0.2775  0.0031  0.0490
 1249ERGO   ROH16379   3.459  10.225   6.075 -0.0053 -0.1622  0.0695
 1249ERGO    R116380   3.498  10.356   6.323 -0.0273 -0.0970  0.0402
 1249ERGO    R216381   3.566  10.624   6.341  0.0650 -0.1091 -0.0250
 1249ERGO    R316382   3.347  10.635   6.502  0.0208  0.0141 -0.0945
 1249ERGO    R416383   3.477  10.894   6.538  0.0461  0.0019 -0.1859
 1249ERGO    R516384   3.420  10.755   6.695 -0.0235  0.0976 -0.1361
 1249ERGO    C116385   3.219  11.061   6.802 -0.0064  0.1824 -0.3450
 1249ERGO    C216386   3.293  11.328   6.844  0.1488  0.0106  0.2657
 1250ERGO   ROH16387   0.428  15.634   5.921  0.1054  0.1065  0.1632
 1250ERGO    R116388   0.284  15.649   6.164  0.0596 -0.0848  0.1484
 1250ERGO    R216389   0.270  15.438   6.341  0.3632 -0.0893  0.1670
 1250ERGO    R316390   0.360  15.624   6.519  0.0682  0.0691  0.1591
 1250ERGO    R416391   0.223  15.422   6.684  0.4545 -0.1953  0.1758
 1250ERGO    R516392   0.186  15.637   6.683  0.0666 -0.2530  0.1936
 1250ERGO    C116393   0.281  15.587   7.049  0.2308 -0.1083  0.1734
 1250ERGO    C216394   0.162  15.648   7.381  0.2111  0.0559  0.2266
 1251ERGO   ROH16395   8.074  16.967   5.896  0.2068  0.1214  0.1432
 1251ERGO    R116396   8.030  17.065   6.157  0.4070 -0.0325  0.2368
 1251ERGO    R216397   7.783  17.057   6.279  0.3195  0.5702  0.1267
 1251ERGO    R316398   7.919  16.928   6.476 -0.1237 -0.0736  0.0442
 1251ERGO    R416399   7.751  17.125   6.617  0.6844  0.5836  0.1633
 1251ERGO    R516400   7.968  17.100   6.636  0.6250 -0.3018  0.1004
 1251ERGO    C116401   7.861  17.043   6.998  0.4809 -0.0133  0.1071
 1251ERGO    C216402   7.878  16.983   7.299  0.1459 -0.3751 -0.0798
 1252ERGO   ROH16403  16.632   8.394   6.173 -0.1066 -0.0804  0.1040
 1252ERGO    R116404  16.730   8.305   6.423  0.3017  0.0401 -0.0046
 1252ERGO    R216405  16.594   8.122   6.579  0.2752  0.4997  0.5476
 1252ERGO    R316406  16.830   7.988   6.570 -0.0004  0.0101  0.1433
 1252ERGO    R416407  16.699   7.891   6.814  0.2742  0.4061  0.4561
 1252ERGO    R516408  16.900   7.974   6.798  0.4282 -0.0067  0.0174
 1252ERGO    C116409  16.983   7.631   6.941  0.0148 -0.1082  0.0233
 1252ERGO    C216410  17.232   7.463   7.160 -0.2040 -0.1240  0.1031
 1253ERGO   ROH16411  15.709  17.385   6.322  0.0798 -0.1555 -0.0198
 1253ERGO    R116412  15.699  17.168   6.503  0.0459 -0.2029 -0.0723
 1253ERGO    R216413  15.789  16.914   6.438  0.2281 -0.1626 -0.0621
 1253ERGO    R316414  15.939  16.945   6.662  0.0412 -0.1104  0.0539
 1253ERGO    R416415  15.959  16.660   6.599  0.2594 -0.0653  0.0527
 1253ERGO    R516416  15.899  16.747   6.789  0.0730 -0.1317  0.0032
 1253ERGO    C116417  16.199  16.542   6.903  0.1022  0.0402  0.2284
 1253ERGO    C216418  16.381  16.426   7.196 -0.0396  0.0717 -0.4699
 1254ERGO   ROH16419   3.140  17.686   5.532  0.0473 -0.0410  0.1110
 1254ERGO    R116420   3.260  17.652   5.785 -0.0700  0.0523  0.1797
 1254ERGO    R216421   3.409  17.851   5.907 -0.0624  0.0685  0.1389
 1254ERGO    R316422   3.236  17.809   6.113 -0.1603  0.2273  0.0911
 1254ERGO    R416423   3.466  17.943   6.235 -0.0718  0.0293  0.1522
 1254ERGO    R516424   3.377  17.755   6.299 -0.2583  0.1073  0.1337
 1254ERGO    C116425   3.338  17.959   6.619 -0.1692  0.1553  0.1152
 1254ERGO    C216426   3.231  18.034   6.981 -0.3718  0.2292  0.1414
 1255ERGO   ROH16427   8.727   0.330   6.644  0.0708  0.1021  0.0401
 1255ERGO    R116428   8.783   0.236   6.905  0.0870 -0.0150 -0.0050
 1255ERGO    R216429   8.613   0.279   7.119  0.2285  0.1324  0.0802
 1255ERGO    R316430   8.628   0.009   7.144 -0.0599  0.1044  0.0161
 1255ERGO    R416431   8.524   0.103   7.402  0.4044  0.2018  0.1803
 1255ERGO    R516432   8.698  -0.025   7.370  0.2156 -0.0075 -0.0802
 1255ERGO    C116433   8.487  -0.254   7.591  0.2362  0.2158  0.1784
 1255ERGO    C216434   8.205  -0.242   7.876 -0.0053 -0.2830 -0.0805
 1256ERGO   ROH16435   3.396   1.421   5.496 -0.1682 -0.4521 -0.0195
 1256ERGO    R116436   3.481   1.439   5.765 -0.0516 -0.1294 -0.0730
 1256ERGO    R216437   3.528   1.216   5.922 -0.0758  0.0539  0.2058
 1256ERGO    R316438   3.771   1.333   5.959 -0.0148  0.0115 -0.0504
 1256ERGO    R416439   3.719   1.190   6.209  0.1504  0.1588  0.0670
 1256ERGO    R516440   3.771   1.401   6.188  0.1890  0.1334 -0.0854
 1256ERGO    C116441   4.058   1.284   6.410  0.3394  0.1801 -0.2544
 1256ERGO    C216442   4.265   1.370   6.722  0.1109  0.2616 -0.0848
 1257ERGO   ROH16443  10.233  13.633   6.225 -0.2226 -0.1092 -0.0317
 1257ERGO    R116444  10.344  13.493   6.445 -0.1171 -0.0247 -0.0308
 1257ERGO    R216445  10.494  13.618   6.640 -0.1575  0.0786 -0.0673
 1257ERGO    R316446  10.313  13.503   6.808 -0.0725 -0.0002 -0.0273
 1257ERGO    R416447  10.532  13.591   6.983 -0.1785  0.3139 -0.0445
 1257ERGO    R516448  10.447  13.390   6.972  0.0158  0.2221  0.0590
 1257ERGO    C116449  10.383  13.468   7.340 -0.1109  0.3769  0.0063
 1257ERGO    C216450  10.543  13.405   7.678 -0.0576  0.1345  0.2446
 1258ERGO   ROH16451  17.849  13.351   5.820 -0.1152 -0.2475  0.0243
 1258ERGO    R116452  17.985  13.181   6.002  0.0323 -0.0969  0.0561
 1258ERGO    R216453  18.238  13.238   6.097 -0.0300  0.1570  0.0706
 1258ERGO    R316454  18.118  13.207   6.339 -0.0203  0.0693  0.0655
 1258ERGO    R416455  18.398  13.137   6.387 -0.0423 -0.0820 -0.0028
 1258ERGO    R516456  18.224  13.016   6.435 -0.0928 -0.0357 -0.0567
 1258ERGO    C116457  18.378  13.050   6.783 -0.0405 -0.3036 -0.0505
 1258ERGO    C216458  18.567  12.767   7.052  0.1157  0.0059 -0.1103
 1259ERGO   ROH16459   3.928  16.199   5.923  0.2458 -0.1160  0.0303
 1259ERGO    R116460   3.907  16.359   6.156  0.1884 -0.0523 -0.0169
 1259ERGO    R216461   3.857  16.253   6.406 -0.0373  0.0302 -0.0198
 1259ERGO    R316462   4.083  16.388   6.473  0.0014 -0.0894  0.0901
 1259ERGO    R416463   3.951  16.334   6.728 -0.3057  0.2520  0.0050
 1259ERGO    R516464   4.017  16.528   6.655 -0.0763  0.1307 -0.1065
 1259ERGO    C116465   4.218  16.509   6.979 -0.4256  0.2688  0.1226
 1259ERGO    C216466   4.282  16.573   7.305  0.2138  0.1069  0.3293
 1260ERGO   ROH16467  18.038  17.358   6.331 -0.1277  0.2361 -0.0726
 1260ERGO    R116468  17.868  17.249   6.530 -0.0710  0.2468 -0.0180
 1260ERGO    R216469  17.747  17.003   6.503 -0.0475  0.2289  0.0474
 1260ERGO    R316470  17.865  16.954   6.743  0.0104  0.2795  0.0294
 1260ERGO    R416471  17.668  16.739   6.711 -0.1756  0.4131  0.2362
 1260ERGO    R516472  17.687  16.874   6.881 -0.0004  0.5025  0.1496
 1260ERGO    C116473  17.733  16.539   7.058 -0.1957  0.5681  0.3293
 1260ERGO    C216474  17.747  16.297   7.244  0.0169 -0.3492  0.1251
 1261ERGO   ROH16475  14.425   2.734   9.604  0.0769 -0.2168  0.0603
 1261ERGO    R116476  14.500   2.667   9.340  0.0068 -0.1257  0.0150
 1261ERGO    R216477  14.377   2.777   9.118 -0.0199 -0.0061  0.0774
 1261ERGO    R316478  14.632   2.843   9.050 -0.0196 -0.0312  0.0628
 1261ERGO    R416479  14.480   2.863   8.799  0.0183 -0.1931  0.0401
 1261ERGO    R516480  14.662   2.747   8.832  0.0160 -0.1565  0.1289
 1261ERGO    C116481  14.779   2.974   8.550  0.0409 -0.3255  0.0046
 1261ERGO    C216482  14.906   3.068   8.306  0.1841 -0.2017  0.1830
 1262ERGO   ROH16483   0.506   4.980   5.732  0.2414 -0.0197 -0.2478
 1262ERGO    R116484   0.582   4.837   5.965  0.2518 -0.0496 -0.2698
 1262ERGO    R216485   0.831   4.864   6.082  0.1823  0.0961 -0.1556
 1262ERGO    R316486   0.684   4.919   6.304  0.0466 -0.0984 -0.1945
 1262ERGO    R416487   0.930   4.797   6.406  0.2222  0.2969 -0.1246
 1262ERGO    R516488   0.726   4.735   6.450  0.3051 -0.0160 -0.1592
 1262ERGO    C116489   0.850   4.810   6.803  0.1180  0.2312 -0.1430
 1262ERGO    C216490   0.962   4.971   6.999 -0.2311 -0.0922  0.1284
 1263ERGO   ROH16491  10.632  14.626   6.151 -0.0305  0.1489 -0.0907
 1263ERGO    R116492  10.718  14.733   6.399  0.0391  0.0030 -0.0504
 1263ERGO    R216493  10.662  14.614   6.641 -0.0793 -0.0254 -0.0933
 1263ERGO    R316494  10.931  14.627   6.674 -0.0688 -0.2571 -0.0637
 1263ERGO    R416495  10.822  14.623   6.947 -0.1392  0.3098 -0.0676
 1263ERGO    R516496  10.960  14.770   6.864  0.0385  0.0331 -0.2891
 1263ERGO    C116497  11.169  14.641   7.156 -0.1643  0.2874 -0.0249
 1263ERGO    C216498  11.395  14.673   7.371  0.5256 -0.0497 -0.3792
 1264ERGO   ROH16499  15.791   3.241   6.050 -0.2831  0.0408 -0.0959
 1264ERGO    R116500  15.903   3.289   6.305 -0.1438 -0.1006 -0.1279
 1264ERGO    R216501  15.815   3.493   6.470  0.1431 -0.0009 -0.0851
 1264ERGO    R316502  15.785   3.291   6.650 -0.0362  0.0198 -0.0922
 1264ERGO    R416503  15.867   3.521   6.811  0.1818 -0.0709 -0.0857
 1264ERGO    R516504  15.961   3.324   6.808 -0.0018 -0.1543 -0.0974
 1264ERGO    C116505  15.868   3.348   7.178  0.0361 -0.0921 -0.0929
 1264ERGO    C216506  15.803   3.427   7.587 -0.0727  0.3805 -0.1175
 1265ERGO   ROH16507   4.383   9.758   5.979 -0.1060 -0.2537 -0.2323
 1265ERGO    R116508   4.292   9.619   6.208 -0.0824 -0.1156 -0.1371
 1265ERGO    R216509   4.446   9.429   6.337 -0.1265 -0.1510 -0.1288
 1265ERGO    R316510   4.397   9.585   6.555  0.0526 -0.0340 -0.1702
 1265ERGO    R416511   4.511   9.338   6.664 -0.0706 -0.0568 -0.1135
 1265ERGO    R516512   4.322   9.431   6.722  0.0138  0.0855 -0.0815
 1265ERGO    C116513   4.502   9.431   7.059  0.1301  0.1077 -0.1436
 1265ERGO    C216514   4.517   9.334   7.328  0.0884  0.0306  0.0368
 1266ERGO   ROH16515  19.065   9.627   6.072 -0.0070 -0.2426  0.0134
 1266ERGO    R116516  19.149   9.580   6.338 -0.0608 -0.2089  0.0382
 1266ERGO    R216517  19.093   9.753   6.545  0.1285 -0.0403 -0.0392
 1266ERGO    R316518  18.990   9.531   6.662 -0.1241  0.1259  0.0593
 1266ERGO    R416519  19.139   9.667   6.876  0.4702 -0.2150 -0.1283
 1266ERGO    R516520  19.162   9.459   6.813 -0.0272 -0.2467 -0.2219
 1266ERGO    C116521  19.068   9.407   7.179  0.4321 -0.1607 -0.0877
 1266ERGO    C216522  19.053   9.492   7.524 -0.1664 -0.0964  0.0046
 1267ERGO   ROH16523   4.777  10.516   5.725 -0.0270  0.1159  0.0882
 1267ERGO    R116524   4.639  10.445   5.962  0.0176  0.1467  0.1242
 1267ERGO    R216525   4.533  10.193   6.002 -0.1448  0.2072  0.0965
 1267ERGO    R316526   4.682  10.201   6.229 -0.0438  0.0408  0.0374
 1267ERGO    R416527   4.422  10.095   6.314 -0.0066 -0.0077  0.0799
 1267ERGO    R516528   4.526  10.266   6.399  0.0365 -0.0731  0.1538
 1267ERGO    C116529   4.497  10.046   6.709  0.1687 -0.2890  0.0148
 1267ERGO    C216530   4.450   9.971   6.992  0.0674 -0.1145 -0.3018
 1268ERGO   ROH16531   5.636   0.760   5.827  0.1493 -0.0607  0.0296
 1268ERGO    R116532   5.756   0.896   6.044  0.0185 -0.0670  0.1068
 1268ERGO    R216533   5.625   0.939   6.284 -0.0064 -0.3787  0.1521
 1268ERGO    R316534   5.844   0.817   6.389  0.1477 -0.1986  0.0450
 1268ERGO    R416535   5.729   0.967   6.612 -0.0832 -0.5818  0.1959
 1268ERGO    R516536   5.935   0.978   6.541 -0.0844 -0.2316  0.2246
 1268ERGO    C116537   5.996   0.870   6.902  0.0167 -0.5310  0.1210
 1268ERGO    C216538   6.184   0.707   7.170  0.3838 -0.3199 -0.2389
 1269ERGO   ROH16539  14.521  17.007   6.675  0.1363  0.4466 -0.0968
 1269ERGO    R116540  14.471  17.121   6.929  0.1372  0.3219 -0.0385
 1269ERGO    R216541  14.313  16.997   7.119 -0.0491  0.3283 -0.1754
 1269ERGO    R316542  14.533  17.030   7.276 -0.0739  0.0314 -0.0761
 1269ERGO    R416543  14.307  17.031   7.463 -0.1434  0.2994 -0.1751
 1269ERGO    R516544  14.462  17.183   7.446  0.0551  0.1002 -0.0913
 1269ERGO    C116545  14.510  17.080   7.811 -0.2217  0.0038 -0.0818
 1269ERGO    C216546  14.435  17.030   8.125 -0.3426 -0.2345  0.1313
 1270ERGO   ROH16547   0.344  16.771   5.998 -0.1713  0.0934  0.1553
 1270ERGO    R116548   0.383  16.667   6.258 -0.0643  0.1561  0.1641
 1270ERGO    R216549   0.591  16.498   6.321 -0.1007  0.0894  0.0926
 1270ERGO    R316550   0.642  16.684   6.513  0.0906  0.1243  0.0119
 1270ERGO    R416551   0.744  16.432   6.624 -0.0799  0.0788  0.0805
 1270ERGO    R516552   0.602  16.568   6.719  0.0463  0.2283  0.0651
 1270ERGO    C116553   0.880  16.568   6.981  0.1118  0.1052 -0.0023
 1270ERGO    C216554   0.899  16.367   7.375 -0.0758 -0.1776 -0.0645
 1271ERGO   ROH16555   2.246   4.229   5.378  0.1625  0.3708 -0.1602
 1271ERGO    R116556   2.166   4.441   5.547  0.2375  0.2142  0.0771
 1271ERGO    R216557   1.932   4.434   5.694  0.0818  0.2509 -0.1630
 1271ERGO    R316558   2.099   4.486   5.902 -0.0564 -0.2418  0.0883
 1271ERGO    R416559   1.864   4.656   5.950  0.2843  0.3356 -0.1801
 1271ERGO    R516560   2.072   4.721   5.941  0.4757 -0.1753  0.1273
 1271ERGO    C116561   1.981   4.834   6.294  0.2726 -0.0776  0.0458
 1271ERGO    C216562   2.120   4.935   6.658 -0.1214  0.0042 -0.0368
 1272ERGO   ROH16563  12.089  15.702   6.487 -0.2672 -0.4553 -0.0352
 1272ERGO    R116564  12.068  15.546   6.723 -0.1033 -0.2649  0.1102
 1272ERGO    R216565  12.245  15.570   6.933  0.0408 -0.0825 -0.0205
 1272ERGO    R316566  12.018  15.610   7.078  0.1320  0.0281  0.0929
 1272ERGO    R416567  12.212  15.505   7.271  0.0664 -0.3961 -0.0757
 1272ERGO    R516568  12.013  15.426   7.232 -0.0336 -0.1245 -0.0969
 1272ERGO    C116569  11.979  15.505   7.604  0.1669 -0.4748 -0.0014
 1272ERGO    C216570  12.021  15.695   7.959  0.2871  0.3568  0.2313
 1273ERGO   ROH16571   9.385  12.793   6.285  0.0951  0.0377 -0.0323
 1273ERGO    R116572   9.430  12.771   6.564  0.0919 -0.0646 -0.0391
 1273ERGO    R216573   9.672  12.690   6.670  0.1313  0.0130 -0.0623
 1273ERGO    R316574   9.652  12.922   6.809  0.0007 -0.0577  0.0388
 1273ERGO    R416575   9.785  12.737   6.993  0.2009 -0.0286 -0.0806
 1273ERGO    R516576   9.606  12.854   7.033  0.1270 -0.1815  0.0264
 1273ERGO    C116577   9.832  12.983   7.312  0.1189 -0.1192  0.0036
 1273ERGO    C216578  10.156  13.099   7.561 -0.0771  0.0555  0.0250
 1274ERGO   ROH16579  11.191  14.346   9.835 -0.2362 -0.0610 -0.0012
 1274ERGO    R116580  11.240  14.206   9.594 -0.1748 -0.0499  0.0048
 1274ERGO    R216581  11.134  14.284   9.351 -0.1284 -0.0499 -0.0153
 1274ERGO    R316582  11.394  14.278   9.273 -0.1112 -0.0290  0.0396
 1274ERGO    R416583  11.246  14.167   9.046 -0.0325 -0.2767  0.1039
 1274ERGO    R516584  11.414  14.074   9.148 -0.0188 -0.1320  0.2174
 1274ERGO    C116585  11.555  14.094   8.794  0.0395 -0.3891  0.2249
 1274ERGO    C216586  11.539  13.954   8.517  0.0458 -0.0464 -0.0130
 1275ERGO   ROH16587  12.794  14.554   8.026  0.1812  0.0256 -0.4239
 1275ERGO    R116588  12.843  14.305   7.901  0.0179 -0.1315 -0.1835
 1275ERGO    R216589  13.098  14.206   7.863 -0.0354 -0.2269 -0.2958
 1275ERGO    R316590  12.999  13.989   7.994  0.0322 -0.0597  0.0439
 1275ERGO    R416591  13.290  13.958   8.009  0.0429 -0.1399 -0.2501
 1275ERGO    R516592  13.147  13.811   7.935 -0.0939 -0.1728  0.0611
 1275ERGO    C116593  13.309  13.610   8.216  0.1520  0.0676  0.0954
 1275ERGO    C216594  13.268  13.321   8.434 -0.0330 -0.2958 -0.1525
 1276ERGO   ROH16595   0.960   5.815   5.452  0.1076 -0.1572  0.0547
 1276ERGO    R116596   1.036   5.777   5.722 -0.0147 -0.0747  0.1016
 1276ERGO    R216597   1.027   5.981   5.909 -0.0570 -0.0048  0.0269
 1276ERGO    R316598   0.875   5.803   6.047 -0.1498  0.0726  0.0237
 1276ERGO    R416599   1.082   5.885   6.237 -0.0487 -0.1164 -0.0071
 1276ERGO    R516600   1.031   5.681   6.181 -0.2058 -0.0675 -0.0393
 1276ERGO    C116601   0.972   5.663   6.557 -0.1310 -0.1087 -0.0299
 1276ERGO    C216602   1.128   5.414   6.775 -0.1219  0.1557  0.1018
 1277ERGO   ROH16603  15.710   7.341   5.981 -0.1038 -0.0238  0.1061
 1277ERGO    R116604  15.789   7.388   6.249 -0.1502  0.1736  0.0868
 1277ERGO    R216605  15.619   7.499   6.437 -0.3073 -0.0330  0.0699
 1277ERGO    R316606  15.684   7.276   6.579  0.0497  0.1014  0.1272
 1277ERGO    R416607  15.511   7.431   6.758 -0.2934 -0.1756  0.0452
 1277ERGO    R516608  15.710   7.355   6.804 -0.1647  0.1890  0.1233
 1277ERGO    C116609  15.509   7.183   7.079  0.0497 -0.1323  0.0845
 1277ERGO    C216610  15.331   7.150   7.378  0.1114 -0.0952  0.0683
 1278ERGO   ROH16611  15.299   1.563   7.730 -0.1408 -0.1316 -0.0212
 1278ERGO    R116612  15.085   1.432   7.861  0.0263 -0.1715  0.2225
 1278ERGO    R216613  14.882   1.304   7.723 -0.2906  0.0736  0.4362
 1278ERGO    R316614  14.954   1.093   7.877 -0.0985 -0.1300  0.0795
 1278ERGO    R416615  14.672   1.046   7.814 -0.2681  0.1190  0.6165
 1278ERGO    R516616  14.761   1.049   8.013  0.1512 -0.1379  0.4419
 1278ERGO    C116617  14.616   0.696   8.012 -0.0746 -0.0455  0.3866
 1278ERGO    C216618  14.700   0.375   7.877 -0.0004 -0.0413  0.0960
 1279ERGO   ROH16619  17.670   4.888   6.264 -0.4213 -0.2165  0.0573
 1279ERGO    R116620  17.678   4.803   6.534 -0.1414 -0.2773  0.0333
 1279ERGO    R216621  17.873   4.632   6.631  0.1584 -0.0362 -0.1250
 1279ERGO    R316622  17.909   4.831   6.813 -0.0072 -0.0276 -0.0999
 1279ERGO    R416623  18.106   4.626   6.886  0.1378  0.1104 -0.1022
 1279ERGO    R516624  17.958   4.716   7.017  0.0577 -0.0136 -0.1078
 1279ERGO    C116625  18.277   4.808   7.205 -0.0294  0.2038 -0.0652
 1279ERGO    C216626  18.581   4.726   7.476  0.0759  0.1569 -0.2674
 1280ERGO   ROH16627  19.090   5.099   5.741 -0.4078 -0.0828  0.1683
 1280ERGO    R116628  19.272   5.005   5.936 -0.2508 -0.0209  0.0531
 1280ERGO    R216629  19.312   5.135   6.177 -0.2014 -0.0512  0.0577
 1280ERGO    R316630  19.253   4.891   6.281 -0.0031 -0.1091  0.0402
 1280ERGO    R416631  19.409   5.025   6.489 -0.4562  0.1729  0.2217
 1280ERGO    R516632  19.450   4.829   6.403 -0.0673  0.1973  0.3195
 1280ERGO    C116633  19.411   4.732   6.769 -0.4184  0.2490  0.3008
 1280ERGO    C216634  19.583   4.683   7.021  0.1227 -0.1426  0.0966
 1281ERGO   ROH16635   5.586   5.066   5.654 -0.0111 -0.0265 -0.0158
 1281ERGO    R116636   5.368   4.953   5.794 -0.0882  0.0515 -0.0676
 1281ERGO    R216637   5.282   4.694   5.751 -0.0692  0.0189  0.0302
 1281ERGO    R316638   5.315   4.673   6.020 -0.2034  0.1760  0.0589
 1281ERGO    R416639   5.155   4.438   5.945 -0.0094  0.0419  0.0961
 1281ERGO    R516640   5.106   4.585   6.099 -0.1853  0.0851 -0.0087
 1281ERGO    C116641   5.113   4.268   6.311 -0.1006  0.2027  0.1614
 1281ERGO    C216642   5.040   3.872   6.350  0.2049  0.0874  0.0862
 1282ERGO   ROH16643   8.950  17.944   6.245 -0.0321  0.0591  0.0281
 1282ERGO    R116644   9.089  17.875   6.483  0.0349  0.1491  0.0165
 1282ERGO    R216645   9.112  18.048   6.697 -0.1111  0.1448  0.0410
 1282ERGO    R316646   9.007  17.839   6.835  0.0720  0.0332  0.0127
 1282ERGO    R416647   9.140  18.004   7.039 -0.2180  0.2099  0.0581
 1282ERGO    R516648   9.171  17.791   7.003  0.0508  0.2431  0.0933
 1282ERGO    C116649   9.058  17.782   7.367 -0.1085  0.1430  0.0416
 1282ERGO    C216650   9.047  17.768   7.614 -0.0110  0.1839  0.0386
 1283ERGO   ROH16651   6.642   5.837   5.649  0.1645 -0.1766  0.0030
 1283ERGO    R116652   6.520   5.966   5.870  0.1833 -0.0157 -0.0793
 1283ERGO    R216653   6.397   5.825   6.074 -0.1008  0.1425 -0.1396
 1283ERGO    R316654   6.565   5.970   6.231 -0.0227 -0.0398 -0.0511
 1283ERGO    R416655   6.393   5.826   6.420 -0.1700  0.0136 -0.1388
 1283ERGO    R516656   6.429   6.041   6.415 -0.0090 -0.0078 -0.0514
 1283ERGO    C116657   6.549   5.962   6.768 -0.1370 -0.2327 -0.0553
 1283ERGO    C216658   6.715   6.054   7.056  0.0106  0.1126  0.0136
 1284ERGO   ROH16659   5.677  16.023   5.653 -0.1064 -0.1622 -0.0877
 1284ERGO    R116660   5.719  16.002   5.932 -0.0675 -0.1225 -0.0914
 1284ERGO    R216661   5.609  16.180   6.113  0.0875 -0.0039 -0.1155
 1284ERGO    R316662   5.513  15.953   6.228 -0.0447  0.0889 -0.0379
 1284ERGO    R416663   5.543  16.142   6.450  0.0932  0.1398 -0.0967
 1284ERGO    R516664   5.626  15.940   6.438 -0.0324  0.0826 -0.0435
 1284ERGO    C116665   5.413  15.907   6.754 -0.0278  0.3109 -0.0129
 1284ERGO    C216666   5.373  15.752   7.006  0.1788 -0.0284 -0.0437
 1285ERGO   ROH16667   7.694   5.884   5.701 -0.0730 -0.2398 -0.2924
 1285ERGO    R116668   7.619   5.816   5.966  0.2291 -0.0202 -0.1434
 1285ERGO    R216669   7.426   5.626   6.022  0.0228  0.2781  0.2317
 1285ERGO    R316670   7.624   5.517   6.173  0.1067  0.0533 -0.0361
 1285ERGO    R416671   7.377   5.439   6.309  0.2082  0.2866  0.2688
 1285ERGO    R516672   7.548   5.540   6.398  0.4243  0.0967  0.0660
 1285ERGO    C116673   7.535   5.228   6.617  0.3948  0.0805  0.0391
 1285ERGO    C216674   7.479   4.929   6.905 -0.0740  0.0245 -0.1935
 1286ERGO   ROH16675   6.532  13.835   5.497  0.0031  0.0962  0.0145
 1286ERGO    R116676   6.511  13.711   5.750  0.0679  0.1259  0.0348
 1286ERGO    R216677   6.721  13.703   5.930  0.0668  0.2829  0.0460
 1286ERGO    R316678   6.539  13.814   6.099 -0.0081  0.2023  0.0185
 1286ERGO    R416679   6.774  13.763   6.266 -0.0423  0.2275  0.0732
 1286ERGO    R516680   6.570  13.696   6.305 -0.0363  0.1681  0.0029
 1286ERGO    C116681   6.634  13.901   6.620 -0.1761  0.1193  0.0632
 1286ERGO    C216682   6.713  14.031   7.003 -0.3621 -0.3100 -0.0029
 1287ERGO   ROH16683   1.491  15.750   5.893 -0.3971 -0.1225 -0.0590
 1287ERGO    R116684   1.544  15.660   6.156 -0.2225 -0.0796 -0.0787
 1287ERGO    R216685   1.598  15.834   6.365 -0.1094 -0.0453 -0.1376
 1287ERGO    R316686   1.393  15.701   6.485 -0.0202 -0.0494  0.0124
 1287ERGO    R416687   1.532  15.838   6.704  0.0965  0.0162 -0.0967
 1287ERGO    R516688   1.485  15.625   6.693  0.1178  0.0055 -0.0259
 1287ERGO    C116689   1.301  15.716   7.015  0.3002  0.0481  0.0679
 1287ERGO    C216690   1.070  15.845   7.338 -0.0807 -0.3396 -0.0314
 1288ERGO   ROH16691   3.241  18.610   5.383 -0.5137 -0.3129 -0.0147
 1288ERGO    R116692   3.173  18.768   5.607 -0.4922 -0.3074 -0.0124
 1288ERGO    R216693   3.084  18.658   5.845  0.0814 -0.3467  0.1968
 1288ERGO    R316694   3.289  18.803   5.951 -0.0353  0.1358 -0.1981
 1288ERGO    R416695   3.093  18.778   6.169  0.4149 -0.3358  0.1877
 1288ERGO    R516696   3.180  18.964   6.092 -0.1560 -0.1154  0.0073
 1288ERGO    C116697   3.289  18.984   6.457  0.4995  0.1234 -0.1883
 1288ERGO    C216698   3.376  19.090   6.864 -0.1736  0.1283 -0.1837
 1289ERGO   ROH16699  10.001   0.828   6.212  0.3233  0.1059  0.1534
 1289ERGO    R116700   9.959   0.949   6.464  0.1679  0.0369  0.1622
 1289ERGO    R216701   9.729   0.907   6.613  0.1027 -0.0576  0.0424
 1289ERGO    R316702   9.906   0.835   6.806  0.0291 -0.0579  0.1093
 1289ERGO    R416703   9.661   0.903   6.951 -0.0123 -0.0334  0.0195
 1289ERGO    R516704   9.860   0.984   6.988 -0.0219 -0.0465  0.0841
 1289ERGO    C116705   9.788   0.832   7.330 -0.1485 -0.0196  0.0690
 1289ERGO    C216706   9.835   0.839   7.613  0.0634 -0.1954 -0.1670
 1290ERGO   ROH16707   5.892  12.335   6.253  0.3796  0.2143 -0.1113
 1290ERGO    R116708   5.870  12.193   6.497  0.2165  0.1407 -0.1670
 1290ERGO    R216709   6.089  12.087   6.628  0.1402  0.1615 -0.0151
 1290ERGO    R316710   5.994  12.231   6.837 -0.0706  0.0804 -0.0537
 1290ERGO    R416711   6.173  12.034   6.959  0.1775  0.3386  0.0043
 1290ERGO    R516712   5.965  12.070   7.012  0.1227  0.0774 -0.0247
 1290ERGO    C116713   6.133  12.138   7.348  0.0012  0.3658 -0.0207
 1290ERGO    C216714   6.292  12.330   7.525  0.0054  0.1293 -0.2821
 1291ERGO   ROH16715  16.160  12.547   6.397 -0.2942 -0.2293  0.1319
 1291ERGO    R116716  16.321  12.712   6.560 -0.1192 -0.2692  0.0036
 1291ERGO    R216717  16.261  12.977   6.610  0.0693 -0.2064 -0.0685
 1291ERGO    R316718  16.280  12.900   6.869  0.1251 -0.1269 -0.0489
 1291ERGO    R416719  16.372  13.178   6.868 -0.1652 -0.0383 -0.0946
 1291ERGO    R516720  16.479  13.006   6.949  0.0040  0.0946 -0.0468
 1291ERGO    C116721  16.455  13.222   7.262 -0.2491  0.1340 -0.0914
 1291ERGO    C216722  16.516  13.355   7.597  0.3226  0.2919  0.3983
 1292ERGO   ROH16723   8.220  14.441   6.019 -0.3047  0.2381 -0.0765
 1292ERGO    R116724   8.288  14.585   6.253 -0.3073  0.1416 -0.0157
 1292ERGO    R216725   8.192  14.517   6.503 -0.1193 -0.1090 -0.0078
 1292ERGO    R316726   8.456  14.514   6.568 -0.0800  0.0741 -0.1496
 1292ERGO    R416727   8.327  14.663   6.786 -0.0973 -0.1740  0.0154
 1292ERGO    R516728   8.496  14.730   6.664 -0.2157  0.0490 -0.0329
 1292ERGO    C116729   8.653  14.745   7.011 -0.0477 -0.0401 -0.1040
 1292ERGO    C216730   8.758  14.789   7.338  0.0663  0.1474 -0.0573
 1293ERGO   ROH16731   9.723  15.839   6.100  0.0892  0.2295  0.2036
 1293ERGO    R116732   9.578  15.739   6.321  0.0521  0.1483  0.1440
 1293ERGO    R216733   9.496  15.475   6.339  0.0038  0.1492  0.0114
 1293ERGO    R316734   9.628  15.485   6.577 -0.0115  0.0170  0.0253
 1293ERGO    R416735   9.422  15.280   6.615 -0.1016  0.1067 -0.0469
 1293ERGO    R516736   9.457  15.454   6.741 -0.0318  0.0488  0.0042
 1293ERGO    C116737   9.502  15.176   6.998 -0.1773 -0.0420 -0.0678
 1293ERGO    C216738   9.585  14.992   7.153  0.0586  0.2027 -0.1400
 1294ERGO   ROH16739   0.044  11.871   5.461 -0.1634 -0.2063 -0.2479
 1294ERGO    R116740   0.137  11.754   5.701  0.0301 -0.1493 -0.2924
 1294ERGO    R216741  -0.010  11.756   5.934  0.2619  0.0010 -0.1407
 1294ERGO    R316742   0.029  11.488   5.924  0.1428 -0.0185 -0.0798
 1294ERGO    R416743   0.065  11.557   6.207  0.2466  0.0382 -0.1099
 1294ERGO    R516744   0.205  11.447   6.081  0.1649 -0.0549 -0.1165
 1294ERGO    C116745   0.145  11.189   6.356  0.1259  0.0415 -0.0348
 1294ERGO    C216746   0.243  11.082   6.720  0.0404  0.0372 -0.0017
 1295ERGO   ROH16747   5.075   6.661   5.233  0.0307 -0.0052  0.0783
 1295ERGO    R116748   4.995   6.634   5.503  0.0207  0.1583  0.0926
 1295ERGO    R216749   4.972   6.851   5.674 -0.2542  0.2982 -0.1135
 1295ERGO    R316750   4.721   6.753   5.711 -0.1506  0.0425 -0.0639
 1295ERGO    R416751   4.785   6.890   5.962 -0.2499  0.1301 -0.0866
 1295ERGO    R516752   4.717   6.684   5.940 -0.0429  0.0567 -0.0573
 1295ERGO    C116753   4.440   6.821   6.164 -0.1503 -0.2077 -0.0244
 1295ERGO    C216754   4.398   6.818   6.494  0.0605 -0.1933 -0.3709
 1296ERGO   ROH16755   3.946   3.745   5.506  0.0803  0.1419 -0.0326
 1296ERGO    R116756   4.085   3.917   5.683 -0.0214  0.2038 -0.0118
 1296ERGO    R216757   3.956   4.104   5.841 -0.1547 -0.0337  0.1668
 1296ERGO    R316758   4.091   3.979   6.042  0.1023  0.0044  0.0223
 1296ERGO    R416759   3.985   4.223   6.164 -0.1899 -0.2232  0.2410
 1296ERGO    R516760   4.193   4.157   6.165 -0.0930  0.0611  0.1062
 1296ERGO    C116761   4.128   4.175   6.541  0.0309 -0.2977  0.1485
 1296ERGO    C216762   4.172   4.047   6.964  0.2877  0.0497 -0.0066
 1297ERGO   ROH16763  12.565   0.136   6.316  0.1413 -0.0846  0.1308
 1297ERGO    R116764  12.512   0.216   6.583  0.0206 -0.0776  0.1054
 1297ERGO    R216765  12.262   0.196   6.698 -0.0291 -0.0839 -0.0045
 1297ERGO    R316766  12.396   0.057   6.889 -0.1077 -0.0717  0.0604
 1297ERGO    R416767  12.170   0.181   7.030 -0.0105  0.1651  0.0144
 1297ERGO    R516768  12.381   0.196   7.084  0.0062  0.0485 -0.0144
 1297ERGO    C116769  12.243   0.041   7.404 -0.0735  0.3215  0.0863
 1297ERGO    C216770  12.189  -0.108   7.640 -0.0258  0.3501 -0.0181
 1298ERGO   ROH16771  15.447  13.374   6.589  0.2092 -0.0295 -0.0563
 1298ERGO    R116772  15.298  13.468   6.811  0.1335 -0.1119 -0.0694
 1298ERGO    R216773  15.231  13.305   7.024  0.2017 -0.1552 -0.0650
 1298ERGO    R316774  15.351  13.501   7.169  0.0878 -0.0848 -0.0690
 1298ERGO    R416775  15.214  13.338   7.368  0.1722 -0.1166 -0.0715
 1298ERGO    R516776  15.195  13.553   7.343  0.0656 -0.1428 -0.0868
 1298ERGO    C116777  15.317  13.541   7.704  0.0481 -0.0280 -0.0791
 1298ERGO    C216778  15.361  13.778   8.039  0.0066 -0.1209 -0.1399
 1299ERGO   ROH16779  10.592  11.952   6.378  0.1611 -0.2716  0.0187
 1299ERGO    R116780  10.493  11.913   6.641  0.2091 -0.1657  0.0543
 1299ERGO    R216781  10.659  11.902   6.862  0.2367  0.0984  0.0543
 1299ERGO    R316782  10.494  12.098   6.954  0.1061  0.0473 -0.0698
 1299ERGO    R416783  10.637  12.002   7.192  0.0510  0.1853  0.0159
 1299ERGO    R516784  10.421  12.018   7.167  0.0552  0.0767 -0.0783
 1299ERGO    C116785  10.470  12.245   7.470 -0.1797  0.1878 -0.1230
 1299ERGO    C216786  10.659  12.475   7.775 -0.1094  0.0043 -0.0592
 1300ERGO   ROH16787  12.756  18.921   6.189  0.1309  0.0181  0.1034
 1300ERGO    R116788  12.621  18.906   6.437  0.1370  0.0551  0.1093
 1300ERGO    R216789  12.616  18.676   6.590  0.0307  0.0382  0.0824
 1300ERGO    R316790  12.713  18.840   6.784  0.1243 -0.0322  0.0962
 1300ERGO    R416791  12.607  18.608   6.929 -0.0647  0.0419  0.0805
 1300ERGO    R516792  12.557  18.818   6.964  0.0823  0.0794  0.0746
 1300ERGO    C116793  12.692  18.724   7.308 -0.0324 -0.0222  0.0924
 1300ERGO    C216794  12.745  18.822   7.482 -0.0530  0.0172 -0.2741
 1301ERGO   ROH16795   8.310  18.077   9.561  0.2031 -0.1269 -0.1093
 1301ERGO    R116796   8.404  18.217   9.334 -0.0431  0.0180 -0.1253
 1301ERGO    R216797   8.609  18.121   9.174  0.1129  0.3474 -0.1272
 1301ERGO    R316798   8.426  18.156   8.976  0.0405  0.0264 -0.1226
 1301ERGO    R416799   8.673  18.083   8.837  0.1390  0.3217 -0.1197
 1301ERGO    R516800   8.549  18.258   8.798 -0.1134  0.1420 -0.1679
 1301ERGO    C116801   8.538  18.093   8.455  0.0862  0.0052 -0.1111
 1301ERGO    C216802   8.332  18.034   8.179  0.0781  0.0064 -0.0683
 1302ERGO   ROH16803   2.396  16.938   5.615  0.2317 -0.0245  0.0233
 1302ERGO    R116804   2.462  17.036   5.872  0.2473 -0.1284  0.0591
 1302ERGO    R216805   2.325  16.959   6.100  0.2139 -0.1652  0.0274
 1302ERGO    R316806   2.574  16.893   6.188  0.1915 -0.2658  0.0173
 1302ERGO    R416807   2.414  16.923   6.432  0.2756  0.0459  0.0354
 1302ERGO    R516808   2.603  17.023   6.387  0.3337 -0.1213 -0.0957
 1302ERGO    C116809   2.700  16.841   6.708  0.2904  0.0740  0.0306
 1302ERGO    C216810   2.784  16.710   7.073  0.1611 -0.0388  0.0366
 1303ERGO   ROH16811  16.814   6.624   6.315 -0.0443  0.0116 -0.1029
 1303ERGO    R116812  16.784   6.688   6.589 -0.0217  0.0212 -0.1026
 1303ERGO    R216813  16.622   6.894   6.678 -0.0958 -0.0413 -0.0901
 1303ERGO    R316814  16.511   6.698   6.830  0.0171 -0.0777 -0.0538
 1303ERGO    R416815  16.563   6.918   7.017 -0.1388  0.0012 -0.1007
 1303ERGO    R516816  16.629   6.711   7.038 -0.0072  0.0472 -0.0469
 1303ERGO    C116817  16.424   6.749   7.358 -0.0577 -0.0081 -0.0728
 1303ERGO    C216818  16.341   7.040   7.573 -0.2283 -0.0745 -0.2591
 1304ERGO   ROH16819  13.469  12.830   6.501 -0.0773  0.0862 -0.0778
 1304ERGO    R116820  13.464  12.672   6.736  0.0718  0.2611  0.0460
 1304ERGO    R216821  13.514  12.777   6.986 -0.1985  0.5424 -0.0096
 1304ERGO    R316822  13.273  12.665   7.045 -0.0531  0.2094 -0.0324
 1304ERGO    R416823  13.424  12.655   7.297 -0.0592  0.3977 -0.0256
 1304ERGO    R516824  13.327  12.487   7.197  0.1755  0.2705 -0.0414
 1304ERGO    C116825  13.147  12.477   7.533  0.1583  0.0009 -0.0565
 1304ERGO    C216826  12.933  12.622   7.797  0.0658  0.1074  0.2590
 1305ERGO   ROH16827  10.217  10.219   6.257  0.0204 -0.0326  0.0379
 1305ERGO    R116828  10.312  10.228   6.523  0.0464 -0.0842  0.0302
 1305ERGO    R216829  10.148  10.183   6.741  0.0267  0.0577  0.0458
 1305ERGO    R316830  10.335   9.996   6.803 -0.1101 -0.0816  0.0461
 1305ERGO    R416831  10.244  10.097   7.062 -0.0733 -0.0551  0.0463
 1305ERGO    R516832  10.450  10.087   6.993 -0.0715 -0.1883  0.0734
 1305ERGO    C116833  10.475   9.872   7.307 -0.2601 -0.2516  0.0469
 1305ERGO    C216834  10.406   9.805   7.681 -0.0543 -0.2903 -0.1592
 1306ERGO   ROH16835  13.305   4.379   5.576  0.2377 -0.1133 -0.0234
 1306ERGO    R116836  13.101   4.334   5.768  0.1351 -0.0100 -0.1066
 1306ERGO    R216837  13.069   4.092   5.897 -0.0578 -0.0033 -0.1372
 1306ERGO    R316838  13.085   4.246   6.120 -0.0546 -0.0293 -0.1198
 1306ERGO    R416839  12.912   4.021   6.197  0.1667 -0.1795 -0.0593
 1306ERGO    R516840  12.866   4.233   6.217  0.0090 -0.2198  0.0027
 1306ERGO    C116841  12.837   4.125   6.582  0.3006 -0.3065  0.0025
 1306ERGO    C216842  12.611   4.014   6.810 -0.0376 -0.0302 -0.1690
 1307ERGO   ROH16843   9.809  11.123   5.969  0.0609 -0.1030 -0.0691
 1307ERGO    R116844   9.737  11.092   6.241 -0.0137 -0.0815 -0.0861
 1307ERGO    R216845   9.477  11.052   6.322 -0.0474  0.0100 -0.1478
 1307ERGO    R316846   9.582  10.834   6.445 -0.1532 -0.0298 -0.1257
 1307ERGO    R416847   9.433  10.974   6.656 -0.0587  0.0805 -0.1324
 1307ERGO    R516848   9.642  10.912   6.663 -0.0907 -0.0310 -0.1426
 1307ERGO    C116849   9.507  10.723   6.966 -0.1646  0.0843 -0.1027
 1307ERGO    C216850   9.428  10.603   7.329  0.2601  0.1102  0.1926
 1308ERGO   ROH16851   3.940   1.589   5.683 -0.1996  0.0963 -0.0727
 1308ERGO    R116852   4.086   1.611   5.924 -0.2041  0.0344 -0.0642
 1308ERGO    R216853   4.147   1.854   6.040 -0.1461  0.0074 -0.0372
 1308ERGO    R316854   4.028   1.743   6.258 -0.1838  0.0163 -0.0533
 1308ERGO    R416855   4.159   1.986   6.359 -0.0053 -0.0999  0.0025
 1308ERGO    R516856   4.183   1.783   6.436 -0.1265 -0.1420 -0.0656
 1308ERGO    C116857   4.055   1.959   6.750  0.0412 -0.1540  0.0105
 1308ERGO    C216858   4.204   2.235   6.946 -0.1529 -0.1825 -0.2957
 1309ERGO   ROH16859  11.890  18.554   6.167  0.0990 -0.0291  0.1206
 1309ERGO    R116860  11.684  18.517   6.359 -0.0209  0.1563  0.0308
 1309ERGO    R216861  11.732  18.410   6.609 -0.2648 -0.1222 -0.0362
 1309ERGO    R316862  11.610  18.638   6.694  0.0834  0.0180  0.1053
 1309ERGO    R416863  11.610  18.461   6.928 -0.2696 -0.1760 -0.0295
 1309ERGO    R516864  11.437  18.561   6.841 -0.0876  0.1811 -0.0044
 1309ERGO    C116865  11.426  18.705   7.194  0.0546 -0.0753  0.1072
 1309ERGO    C216866  11.235  18.804   7.378  0.1140  0.0859 -0.0580
 1310ERGO   ROH16867  11.348  10.242   6.201  0.2076 -0.2433  0.1343
 1310ERGO    R116868  11.209  10.229   6.447  0.2349 -0.1157  0.1584
 1310ERGO    R216869  11.339  10.219   6.691  0.2635  0.1124  0.1610
 1310ERGO    R316870  11.183  10.434   6.746  0.1882  0.0962  0.0095
 1310ERGO    R416871  11.197  10.287   6.999  0.0721  0.1840  0.0574
 1310ERGO    R516872  11.016  10.350   6.896  0.1215  0.1150 -0.0608
 1310ERGO    C116873  10.967  10.528   7.230 -0.1101  0.2105 -0.1452
 1310ERGO    C216874  11.032  10.895   7.470 -0.0929  0.0021 -0.2403
 1311ERGO   ROH16875   0.246  17.597   6.278 -0.0936  0.0297 -0.1309
 1311ERGO    R116876   0.128  17.603   6.535 -0.2632  0.0922 -0.2103
 1311ERGO    R216877   0.271  17.663   6.763 -0.3011 -0.3226 -0.0770
 1311ERGO    R316878   0.076  17.850   6.797  0.0230  0.0327 -0.0912
 1311ERGO    R416879   0.213  17.838   7.056  0.1387 -0.0490 -0.1429
 1311ERGO    R516880  -0.001  17.816   7.021  0.0712  0.2890 -0.0268
 1311ERGO    C116881  -0.003  18.115   7.258  0.6990  0.4439 -0.1946
 1311ERGO    C216882   0.137  18.434   7.478 -0.3051 -0.2792 -0.2721
 1312ERGO   ROH16883  13.635   0.616   6.018  0.0364  0.1945 -0.0631
 1312ERGO    R116884  13.708   0.616   6.291  0.0856  0.1608 -0.0752
 1312ERGO    R216885  13.760   0.849   6.432 -0.0049  0.1538 -0.0227
 1312ERGO    R316886  13.572   0.750   6.601  0.0726  0.0147 -0.0183
 1312ERGO    R416887  13.730   0.934   6.765 -0.0762  0.1474 -0.0282
 1312ERGO    R516888  13.687   0.725   6.810  0.0890  0.1172 -0.0170
 1312ERGO    C116889  13.536   0.890   7.119 -0.0452  0.0131 -0.0273
 1312ERGO    C216890  13.556   1.153   7.354  0.1315  0.2425 -0.1336
 1313ERGO   ROH16891   5.858  11.387   5.904 -0.0677 -0.2535 -0.0221
 1313ERGO    R116892   5.736  11.288   6.139 -0.0832 -0.0186  0.0703
 1313ERGO    R216893   5.821  11.059   6.267 -0.1705  0.0395  0.2359
 1313ERGO    R316894   5.837  11.223   6.483 -0.0706  0.1994  0.1096
 1313ERGO    R416895   5.686  10.990   6.578 -0.0044  0.2548  0.3589
 1313ERGO    R516896   5.625  11.198   6.592 -0.0128  0.2613  0.2383
 1313ERGO    C116897   5.623  11.103   6.961  0.1862  0.5301  0.3119
 1313ERGO    C216898   5.516  10.985   7.216 -0.0970 -0.0860  0.1493
 1314ERGO   ROH16899  17.656   8.587   6.970  0.2307  0.2217 -0.0121
 1314ERGO    R116900  17.598   8.438   7.204 -0.1046  0.2982 -0.0409
 1314ERGO    R216901  17.795   8.319   7.357 -0.3632 -0.2352 -0.0966
 1314ERGO    R316902  17.680   8.461   7.558  0.0110  0.0136 -0.0476
 1314ERGO    R416903  17.848   8.266   7.695 -0.2299 -0.2396 -0.1176
 1314ERGO    R516904  17.636   8.300   7.729 -0.1516  0.1294  0.0192
 1314ERGO    C116905  17.770   8.368   8.079  0.1989 -0.0084 -0.0838
 1314ERGO    C216906  17.988   8.252   8.343 -0.5821 -0.0799  0.2737
 1315ERGO   ROH16907  11.387  17.390   6.069  0.0166  0.0454 -0.0078
 1315ERGO    R116908  11.436  17.347   6.345  0.0506 -0.0859 -0.0329
 1315ERGO    R216909  11.375  17.535   6.538  0.3079 -0.0703  0.0419
 1315ERGO    R316910  11.236  17.329   6.649  0.1151  0.0439  0.0166
 1315ERGO    R416911  11.218  17.545   6.846  0.2916  0.0406  0.0299
 1315ERGO    R516912  11.287  17.342   6.882  0.1069 -0.0222  0.0195
 1315ERGO    C116913  10.997  17.358   7.129  0.1011  0.2123 -0.0008
 1315ERGO    C216914  10.826  17.159   7.353 -0.0118  0.1978  0.2317
 1316ERGO   ROH16915   5.482   9.721   5.764  0.1073 -0.2527 -0.1443
 1316ERGO    R116916   5.410   9.521   5.951  0.0271 -0.1605 -0.0755
 1316ERGO    R216917   5.195   9.352   5.912  0.0934 -0.2325 -0.1241
 1316ERGO    R316918   5.381   9.158   5.951  0.1119 -0.1683  0.1175
 1316ERGO    R416919   5.125   9.026   6.006  0.0757 -0.2650 -0.2475
 1316ERGO    R516920   5.298   9.033   6.138 -0.1045 -0.2128 -0.0039
 1316ERGO    C116921   5.260   8.655   6.098  0.0830 -0.2236 -0.0927
 1316ERGO    C216922   5.047   8.371   6.216  0.2898  0.2175 -0.3752
 1317ERGO   ROH16923  15.934   0.642   6.235  0.4387  0.1151 -0.0970
 1317ERGO    R116924  16.052   0.736   6.474  0.2479 -0.0018  0.0459
 1317ERGO    R216925  16.137   0.997   6.506  0.3397 -0.0499  0.1953
 1317ERGO    R316926  15.977   0.989   6.725  0.1187 -0.0313  0.0378
 1317ERGO    R416927  16.205   1.152   6.807  0.0436 -0.0281  0.2545
 1317ERGO    R516928  16.128   0.976   6.910 -0.0628 -0.0205  0.1922
 1317ERGO    C116929  16.094   1.235   7.188 -0.3365  0.0021  0.1411
 1317ERGO    C216930  15.994   1.577   7.323 -0.2374 -0.0063 -0.3592
 1318ERGO   ROH16931  14.448   1.647   6.167 -0.0965  0.0782 -0.0533
 1318ERGO    R116932  14.478   1.503   6.408 -0.2427  0.1219 -0.0087
 1318ERGO    R216933  14.674   1.561   6.593 -0.1683 -0.0326 -0.0415
 1318ERGO    R316934  14.463   1.576   6.765 -0.1442  0.2526 -0.0300
 1318ERGO    R416935  14.694   1.514   6.935 -0.2408 -0.2666 -0.0669
 1318ERGO    R516936  14.506   1.403   6.926 -0.4490  0.0750 -0.1280
 1318ERGO    C116937  14.508   1.500   7.295 -0.2605 -0.1350 -0.0710
 1318ERGO    C216938  14.430   1.508   7.699 -0.0957  0.2038  0.0887
 1319ERGO   ROH16939  15.741   6.388   6.432  0.0572 -0.2649 -0.0258
 1319ERGO    R116940  15.823   6.233   6.654  0.0598 -0.2115  0.0109
 1319ERGO    R216941  15.912   5.973   6.629  0.2251 -0.1602  0.0525
 1319ERGO    R316942  16.128   6.068   6.764  0.1152 -0.0283  0.1386
 1319ERGO    R416943  16.118   5.782   6.831  0.2770 -0.0436  0.1100
 1319ERGO    R516944  16.125   5.949   6.972  0.1171 -0.0485  0.1279
 1319ERGO    C116945  16.441   5.761   7.075  0.2042  0.1481  0.2242
 1319ERGO    C216946  16.628   5.525   7.039 -0.1718  0.5628 -0.1102
 1320ERGO   ROH16947   0.573   0.426   5.832  0.3818 -0.2843  0.0361
 1320ERGO    R116948   0.708   0.574   6.032  0.3110 -0.3181  0.1097
 1320ERGO    R216949   0.603   0.803   6.145  0.4048 -0.1605 -0.1132
 1320ERGO    R316950   0.647   0.669   6.377  0.0302 -0.0952  0.0017
 1320ERGO    R416951   0.711   0.948   6.439  0.0816 -0.1055 -0.0172
 1320ERGO    R516952   0.840   0.775   6.472 -0.0428 -0.1549  0.2217
 1320ERGO    C116953   0.815   0.908   6.829 -0.4583 -0.0121  0.1465
 1320ERGO    C216954   1.057   0.928   7.197 -0.3557  0.0511 -0.3705
 1321ERGO   ROH16955  12.479   2.791   5.581 -0.0249  0.1597  0.1409
 1321ERGO    R116956  12.388   2.699   5.833 -0.2364  0.2377  0.0925
 1321ERGO    R216957  12.557   2.668   6.050 -0.3366 -0.1119  0.1104
 1321ERGO    R316958  12.375   2.829   6.172 -0.0935  0.1574  0.1339
 1321ERGO    R416959  12.538   2.724   6.391 -0.3271 -0.2800  0.1412
 1321ERGO    R516960  12.321   2.716   6.376 -0.3601  0.1189  0.0597
 1321ERGO    C116961  12.357   2.907   6.704 -0.0937 -0.1251  0.1810
 1321ERGO    C216962  12.264   3.077   7.033 -0.1418  0.0536  0.0625
 1322ERGO   ROH16963   0.790   2.561   5.678  0.2512  0.0736 -0.0765
 1322ERGO    R116964   0.766   2.777   5.859  0.0549  0.0484 -0.0735
 1322ERGO    R216965   0.528   2.840   5.984  0.0282 -0.2433  0.0097
 1322ERGO    R316966   0.678   2.819   6.209  0.1350 -0.0461 -0.0384
 1322ERGO    R416967   0.430   2.948   6.297  0.0302 -0.2385  0.0102
 1322ERGO    R516968   0.633   3.021   6.330 -0.0111 -0.0412 -0.0833
 1322ERGO    C116969   0.515   2.991   6.692  0.1317 -0.0507 -0.0347
 1322ERGO    C216970   0.514   2.986   7.027 -0.1529 -0.0078 -0.0502
 1323ERGO   ROH16971  11.036   4.759   5.947  0.4302 -0.0340  0.2757
 1323ERGO    R116972  10.931   4.871   6.185  0.2492  0.0479  0.1589
 1323ERGO    R216973  10.975   4.762   6.434  0.0112  0.0997  0.2280
 1323ERGO    R316974  11.065   5.011   6.493  0.0153  0.0948  0.2406
 1323ERGO    R416975  11.026   4.883   6.754 -0.0790  0.1168  0.2357
 1323ERGO    R516976  10.942   5.074   6.689 -0.0405  0.1193  0.1972
 1323ERGO    C116977  11.139   5.189   6.995 -0.1276  0.1223  0.2521
 1323ERGO    C216978  11.444   5.242   7.132  0.1295  0.3473 -0.0730
 1324ERGO   ROH16979   3.214  14.709   5.622 -0.1268 -0.1781 -0.0412
 1324ERGO    R116980   3.229  14.659   5.900  0.0581 -0.2689 -0.0657
 1324ERGO    R216981   3.466  14.594   6.026  0.1934 -0.0641 -0.2011
 1324ERGO    R316982   3.402  14.805   6.185  0.0384 -0.1902 -0.0946
 1324ERGO    R416983   3.564  14.630   6.356  0.2431 -0.1113 -0.2112
 1324ERGO    R516984   3.366  14.707   6.401  0.1833 -0.3142 -0.1265
 1324ERGO    C116985   3.561  14.848   6.697  0.1265 -0.2573 -0.1171
 1324ERGO    C216986   3.491  15.058   7.032 -0.2629  0.0659 -0.4391
 1325ERGO   ROH16987   2.344   9.544   5.821 -0.0083 -0.0518  0.0789
 1325ERGO    R116988   2.497   9.571   6.058 -0.0044  0.0524  0.0650
 1325ERGO    R216989   2.408   9.712   6.278 -0.1471 -0.1332  0.1285
 1325ERGO    R316990   2.461   9.479   6.408  0.1581 -0.1184  0.0386
 1325ERGO    R416991   2.426   9.677   6.621  0.0489 -0.2171  0.1111
 1325ERGO    R516992   2.597   9.544   6.594  0.1770 -0.0312 -0.0061
 1325ERGO    C116993   2.486   9.438   6.943  0.4494 -0.2520  0.0166
 1325ERGO    C216994   2.408   9.122   7.112  0.1163 -0.0151 -0.0169
 1326ERGO   ROH16995   3.938  11.463   5.756  0.4489 -0.0657  0.0757
 1326ERGO    R116996   3.826  11.651   5.937  0.4026  0.0232 -0.0452
 1326ERGO    R216997   3.589  11.604   6.072  0.3033  0.1458 -0.1829
 1326ERGO    R316998   3.741  11.659   6.290  0.1813  0.1523 -0.0974
 1326ERGO    R416999   3.466  11.664   6.389  0.1107  0.2059 -0.2673
 1326ERGO    R517000   3.615  11.821   6.412  0.1249  0.1907 -0.1982
 1326ERGO    C117001   3.537  11.751   6.779 -0.1160  0.2468 -0.2364
 1326ERGO    C217002   3.465  11.826   7.173 -0.0794  0.0934 -0.0196
 1327ERGO   ROH17003  13.290   6.750   5.804  0.0569 -0.3590 -0.0545
 1327ERGO    R117004  13.144   6.580   5.976 -0.0233 -0.2379  0.0005
 1327ERGO    R217005  13.240   6.334   6.059 -0.1151 -0.2390  0.1186
 1327ERGO    R317006  13.190   6.435   6.307 -0.1120 -0.1118  0.0674
 1327ERGO    R417007  13.225   6.147   6.349  0.1678 -0.0464  0.2625
 1327ERGO    R517008  13.054   6.268   6.412  0.0830 -0.1601  0.2399
 1327ERGO    C117009  13.168   6.132   6.750  0.3354  0.1853  0.2983
 1327ERGO    C217010  13.375   6.039   6.989 -0.3376 -0.0231 -0.0232
 1328ERGO   ROH17011  11.099   0.267   6.318  0.1333  0.2223 -0.1608
 1328ERGO    R117012  11.133   0.441   6.539 -0.0650  0.1672 -0.0850
 1328ERGO    R217013  10.920   0.551   6.676 -0.1930 -0.0861 -0.0732
 1328ERGO    R317014  11.043   0.440   6.891 -0.1234 -0.0592 -0.0993
 1328ERGO    R417015  10.940   0.696   6.989 -0.3513 -0.1825 -0.0166
 1328ERGO    R517016  11.146   0.625   7.003 -0.2928 -0.0130 -0.0198
 1328ERGO    C117017  11.068   0.677   7.373 -0.3781 -0.2133 -0.0082
 1328ERGO    C217018  10.927   0.854   7.582 -0.0383 -0.1336 -0.0527
 1329ERGO   ROH17019   2.703   2.612   5.744  0.1601  0.2435  0.0577
 1329ERGO    R117020   2.828   2.651   5.995  0.1894  0.1084  0.0651
 1329ERGO    R217021   2.685   2.674   6.230  0.2068  0.1408  0.0733
 1329ERGO    R317022   2.849   2.472   6.311  0.0854  0.0207  0.0225
 1329ERGO    R417023   2.714   2.561   6.556  0.2806  0.1690  0.0769
 1329ERGO    R517024   2.929   2.543   6.525  0.2516 -0.0098 -0.0290
 1329ERGO    C117025   2.884   2.305   6.821  0.2097  0.0727  0.0313
 1329ERGO    C217026   2.965   2.202   7.146 -0.1580 -0.3282  0.2459
 1330ERGO   ROH17027  15.850  14.727   6.585  0.1116 -0.1724 -0.1635
 1330ERGO    R117028  15.950  14.623   6.829  0.0917 -0.2156 -0.1723
 1330ERGO    R217029  16.219  14.618   6.890  0.0813 -0.0849 -0.0846
 1330ERGO    R317030  16.138  14.750   7.113 -0.0747 -0.2188 -0.0613
 1330ERGO    R417031  16.413  14.667   7.172  0.0072  0.0784 -0.0616
 1330ERGO    R517032  16.237  14.628   7.293  0.0484 -0.1402 -0.0808
 1330ERGO    C117033  16.450  14.819   7.545 -0.1825  0.0477 -0.0264
 1330ERGO    C217034  16.582  14.812   7.781 -0.4243 -0.1756  0.0940
 1331ERGO   ROH17035  13.235  15.349   6.642 -0.0606 -0.0751 -0.1360
 1331ERGO    R117036  13.191  15.390   6.918 -0.0244  0.1047 -0.1556
 1331ERGO    R217037  13.272  15.208   7.110 -0.3163  0.0545 -0.0760
 1331ERGO    R317038  13.397  15.425   7.216  0.0073 -0.0876 -0.1528
 1331ERGO    R417039  13.419  15.219   7.423 -0.2779 -0.0639 -0.0896
 1331ERGO    R517040  13.339  15.420   7.449  0.0120  0.0661 -0.1456
 1331ERGO    C117041  13.622  15.428   7.704  0.0484 -0.2663 -0.1698
 1331ERGO    C217042  13.743  15.398   8.040  0.0663  0.2925 -0.4044
 1332ERGO   ROH17043   5.733  10.106   5.746  0.1230 -0.1603 -0.0024
 1332ERGO    R117044   5.783  10.084   6.024 -0.2601 -0.3349  0.0580
 1332ERGO    R217045   5.781   9.842   6.157  0.2628 -0.5199 -0.2498
 1332ERGO    R317046   6.029   9.921   6.237 -0.0792  0.1610  0.2461
 1332ERGO    R417047   5.938   9.736   6.446  0.3519 -0.9421 -0.4456
 1332ERGO    R517048   6.011   9.939   6.475 -0.4210 -0.7111  0.3278
 1332ERGO    C117049   6.262   9.747   6.689  0.0827 -0.5489 -0.0942
 1332ERGO    C217050   6.632   9.675   6.824  0.0171  0.0836 -0.3719
 1333ERGO   ROH17051   6.622   7.711   5.540  0.1116  0.1978  0.0500
 1333ERGO    R117052   6.712   7.642   5.799 -0.0746  0.2011  0.1174
 1333ERGO    R217053   6.569   7.702   6.028 -0.4127 -0.1030 -0.0053
 1333ERGO    R317054   6.594   7.435   6.075 -0.0954 -0.0968 -0.1098
 1333ERGO    R417055   6.574   7.556   6.341 -0.2263 -0.2189 -0.0603
 1333ERGO    R517056   6.730   7.421   6.271 -0.0675 -0.0099 -0.1216
 1333ERGO    C117057   6.599   7.221   6.567  0.1802 -0.2806 -0.1905
 1333ERGO    C217058   6.435   7.183   6.902 -0.5996  0.1727 -0.0785
 1334ERGO   ROH17059   2.198   2.572   5.762 -0.0664 -0.0278  0.0075
 1334ERGO    R117060   2.259   2.656   6.025 -0.0084 -0.0700  0.0088
 1334ERGO    R217061   2.073   2.650   6.229  0.0071 -0.0172  0.0305
 1334ERGO    R317062   2.265   2.505   6.356 -0.0321 -0.1002 -0.0058
 1334ERGO    R417063   2.062   2.554   6.561  0.1573  0.2125  0.1037
 1334ERGO    R517064   2.275   2.599   6.576  0.2046  0.0367 -0.0743
 1334ERGO    C117065   2.236   2.363   6.873  0.2079  0.2685  0.1122
 1334ERGO    C217066   1.987   2.213   7.184 -0.1083 -0.0425  0.0654
 1335ERGO   ROH17067  11.271   6.697   5.468  0.2416  0.2715  0.0521
 1335ERGO    R117068  11.300   6.688   5.750  0.1807  0.1369  0.0551
 1335ERGO    R217069  11.308   6.916   5.906  0.1265  0.0623  0.1693
 1335ERGO    R317070  11.106   6.793   6.039  0.1079 -0.0215  0.0651
 1335ERGO    R417071  11.145   7.048   6.180 -0.0882  0.0093  0.0685
 1335ERGO    R517072  11.144   6.849   6.269 -0.0454  0.0153  0.0832
 1335ERGO    C117073  10.859   7.010   6.465 -0.2305 -0.1002 -0.0880
 1335ERGO    C217074  10.807   7.178   6.743  0.0436 -0.0564  0.1707
 1336ERGO   ROH17075  12.807  10.068   6.224 -0.0997 -0.0667 -0.0050
 1336ERGO    R117076  12.881   9.858   6.399 -0.0529 -0.0374  0.0113
 1336ERGO    R217077  13.101   9.697   6.354 -0.1193 -0.1094 -0.0729
 1336ERGO    R317078  13.168   9.774   6.606  0.0472 -0.0538 -0.1338
 1336ERGO    R417079  13.224   9.486   6.599 -0.3885 -0.1467  0.0331
 1336ERGO    R517080  13.100   9.591   6.744 -0.2037  0.1324 -0.0060
 1336ERGO    C117081  13.359   9.436   6.978 -0.3891 -0.1164  0.0377
 1336ERGO    C217082  13.585   9.219   7.086 -0.1527  0.1322  0.2768
 1337ERGO   ROH17083  10.130  11.319   6.521  0.0599  0.0583  0.0752
 1337ERGO    R117084   9.927  11.224   6.695  0.0929 -0.0419  0.0597
 1337ERGO    R217085   9.974  11.168   6.962  0.0880  0.0335  0.0774
 1337ERGO    R317086   9.766  11.339   7.000 -0.0277 -0.0916  0.0151
 1337ERGO    R417087   9.748  11.149   7.222  0.1453  0.0213  0.1264
 1337ERGO    R517088   9.589  11.200   7.082  0.0842 -0.1710  0.1240
 1337ERGO    C117089   9.421  11.298   7.410  0.0700 -0.1031  0.0966
 1337ERGO    C217090   9.397  11.348   7.724  0.0335  0.0871  0.1742
 1338ERGO   ROH17091   9.150  16.617   6.430 -0.0382  0.2157 -0.0055
 1338ERGO    R117092   9.136  16.803   6.642 -0.0150  0.0751  0.1209
 1338ERGO    R217093   8.968  16.768   6.859  0.0498 -0.0966  0.1452
 1338ERGO    R317094   9.198  16.800   7.001  0.0826 -0.1477  0.1044
 1338ERGO    R417095   8.985  16.792   7.203  0.1012  0.0340  0.1343
 1338ERGO    R517096   9.136  16.947   7.180  0.1728 -0.0459  0.0532
 1338ERGO    C117097   9.210  16.836   7.537  0.1618  0.0621  0.0897
 1338ERGO    C217098   9.335  16.649   7.870  0.1530 -0.3650 -0.1588
 1339ERGO   ROH17099   8.457   0.694   6.514  0.0911 -0.0861 -0.0437
 1339ERGO    R117100   8.312   0.504   6.665 -0.1745  0.0197 -0.1594
 1339ERGO    R217101   8.301   0.510   6.941 -0.1373 -0.1456 -0.1556
 1339ERGO    R317102   8.033   0.507   6.898 -0.1533  0.2719 -0.1336
 1339ERGO    R417103   8.064   0.435   7.180 -0.1894 -0.3751 -0.2741
 1339ERGO    R517104   7.953   0.323   7.029 -0.3530  0.0730 -0.5106
 1339ERGO    C117105   7.673   0.390   7.280 -0.2349 -0.1168 -0.3225
 1339ERGO    C217106   7.267   0.343   7.376  0.0537 -0.2000  0.2296
 1340ERGO   ROH17107  18.656  13.962   5.918 -0.0970  0.0981 -0.0188
 1340ERGO    R117108  18.770  13.966   6.177 -0.0620  0.1084 -0.0349
 1340ERGO    R217109  18.778  14.194   6.333 -0.1193  0.0911 -0.0127
 1340ERGO    R317110  18.655  14.034   6.516 -0.0362  0.0298 -0.0089
 1340ERGO    R417111  18.855  14.185   6.670 -0.1774  0.2203  0.0051
 1340ERGO    R517112  18.832  13.968   6.664 -0.0093  0.1952  0.0404
 1340ERGO    C117113  18.785  14.030   7.037 -0.1331  0.2381  0.0190
 1340ERGO    C217114  18.948  14.199   7.276  0.1502  0.1525  0.0010
 1341ERGO   ROH17115   7.203  10.023   5.591  0.0435  0.1672  0.0983
 1341ERGO    R117116   7.137  10.020   5.866  0.1424  0.1126  0.1216
 1341ERGO    R217117   6.961   9.836   5.974  0.0906  0.1680  0.1246
 1341ERGO    R317118   7.168   9.786   6.143  0.1253  0.0077  0.0370
 1341ERGO    R417119   6.929   9.705   6.293  0.1150  0.2089  0.1442
 1341ERGO    R517120   7.084   9.844   6.360  0.2608  0.0899  0.0722
 1341ERGO    C117121   7.105   9.582   6.637  0.1619  0.0823  0.0734
 1341ERGO    C217122   7.037   9.345   6.878  0.1653 -0.2766 -0.0169
 1342ERGO   ROH17123  12.396  17.813   6.145  0.3907 -0.0166 -0.0937
 1342ERGO    R117124  12.303  17.854   6.410  0.2127  0.0266 -0.1607
 1342ERGO    R217125  12.281  17.648   6.593  0.0979  0.0546 -0.1342
 1342ERGO    R317126  12.435  17.811   6.746 -0.0069  0.0886 -0.0664
 1342ERGO    R417127  12.299  17.636   6.938 -0.0127  0.0367 -0.1297
 1342ERGO    R517128  12.301  17.854   6.940 -0.0813  0.0322 -0.1096
 1342ERGO    C117129  12.454  17.783   7.283 -0.1755  0.0582 -0.0634
 1342ERGO    C217130  12.441  17.919   7.526  0.0456 -0.4025  0.1181
 1343ERGO   ROH17131  18.839   1.304   5.967 -0.0051 -0.0526  0.0296
 1343ERGO    R117132  18.894   1.503   6.162 -0.1913 -0.0530  0.0847
 1343ERGO    R217133  18.830   1.471   6.428 -0.1818 -0.1777  0.0750
 1343ERGO    R317134  19.093   1.528   6.465 -0.2321  0.0425  0.1031
 1343ERGO    R417135  18.989   1.479   6.735 -0.1565 -0.3250  0.0661
 1343ERGO    R517136  19.099   1.655   6.668 -0.3344 -0.1515  0.2284
 1343ERGO    C117137  19.329   1.537   6.948 -0.1889 -0.2042  0.0872
 1343ERGO    C217138  19.351   1.468   7.181  0.0518  0.3862  0.0738
 1344ERGO   ROH17139   9.725  19.064   6.189  0.0222 -0.3582  0.1354
 1344ERGO    R117140   9.606  19.089   6.445  0.0503 -0.1630  0.1307
 1344ERGO    R217141   9.568  18.873   6.614 -0.2255 -0.0882  0.1676
 1344ERGO    R317142   9.706  19.027   6.790 -0.0295 -0.2305  0.1423
 1344ERGO    R417143   9.621  18.794   6.946 -0.0789 -0.2355  0.1110
 1344ERGO    R517144   9.587  19.004   6.996  0.0748 -0.2300  0.2043
 1344ERGO    C117145   9.782  18.894   7.305  0.1905 -0.4549  0.0542
 1344ERGO    C217146   9.861  18.982   7.537  0.1457 -0.0013 -0.0275
 1345ERGO   ROH17147   6.618  16.486   5.805 -0.2839  0.1649 -0.0701
 1345ERGO    R117148   6.668  16.378   6.061 -0.0968  0.2078 -0.0865
 1345ERGO    R217149   6.467  16.331   6.245  0.0245  0.1622  0.0403
 1345ERGO    R317150   6.571  16.079   6.246  0.1060  0.1960  0.0030
 1345ERGO    R417151   6.543  16.149   6.529 -0.0313  0.0937  0.0115
 1345ERGO    R517152   6.724  16.079   6.430  0.0304  0.1851  0.0638
 1345ERGO    C117153   6.685  15.808   6.695  0.0126  0.0859 -0.0403
 1345ERGO    C217154   6.449  15.804   7.001  0.0436  0.2370 -0.2301
 1346W        W17155  12.454  12.596  15.192  0.0107  0.1698 -0.2494
 1347W        W17156  13.167   0.758   1.249 -0.1299 -0.1892 -0.3412
 1348W        W17157   6.897  14.475  13.163 -0.0260  0.3856 -0.2195
 1349W        W17158   6.058   8.330   1.197 -0.0989 -0.0077 -0.1643
 1350W        W17159   8.043   4.519   4.556 -0.1644  0.1677  0.1359
 1351W        W17160  16.863   0.180   1.407 -0.2733 -0.0969 -0.3246
 1352W        W17161  12.727   9.034   2.543  0.0585  0.1113 -0.1678
 1353W        W17162  10.475   1.506  13.355  0.3125 -0.1018  0.0965
 1354W        W17163   6.126  10.023   2.313 -0.2947 -0.1408  0.1401
 1355W        W17164   3.369   5.881   1.958 -0.0237  0.1141  0.3727
 1356W        W17165   4.687  18.600   4.717  0.2713 -0.2152  0.0991
 1357W        W17166  10.200  12.582   2.076 -0.1550  0.0413 -0.1552
 1358W        W17167  16.857   9.550  11.123 -0.2171  0.0084  0.1633
 1359W        W17168   1.262   3.414   4.247 -0.1282  0.3309  0.1263
 1360W        W17169   1.396  17.743   0.141  0.1093 -0.2920 -0.1554
 1361W        W17170   8.271  16.860   3.093  0.2815 -0.2868  0.1777
 1362W        W17171  10.661   0.747   5.617  0.1428 -0.1208 -0.3495
 1363W        W17172  18.052   1.843  11.147  0.2057  0.3590  0.0762
 1364W        W17173  18.587   2.750   3.998 -0.2081 -0.0656  0.0538
 1365W        W17174   3.458   0.291   2.072 -0.4277  0.0348 -0.2088
 1366W        W17175  10.906   6.659   1.554  0.0832  0.1402 -0.0307
 1367W        W17176   1.343   0.962   1.356 -0.3902 -0.1316 -0.0757
 1368W        W17177  14.440   0.543   2.306 -0.2317 -0.0881  0.2122
 1369W        W17178  13.228  12.377  12.145  0.1094 -0.0592 -0.3346
 1370W        W17179  17.833   9.283   5.168  0.1092  0.1234 -0.1905
 1371W        W17180   3.657  18.632  10.998  0.0294  0.1973 -0.4018
 1372W        W17181  13.933  14.130   1.402  0.2692 -0.3354 -0.0336
 1373W        W17182   8.532  12.701   2.411 -0.4310  0.2501 -0.4035
 1374W        W17183   7.156  17.420  11.916  0.1001 -0.2944 -0.2324
 1375W        W17184  15.264  11.499   1.401 -0.2102  0.1563  0.2176
 1376W        W17185   3.557   1.486  14.358 -0.0491  0.1923 -0.4299
 1377W        W17186  14.537   3.683   3.372 -0.3159  0.1147 -0.5665
 1378W        W17187   7.600  13.973  12.835 -0.1067  0.1199  0.0173
 1379W        W17188   0.028  18.323  13.151 -0.1197  0.1182 -0.1767
 1380W        W17189  10.978   5.515  14.871  0.1615  0.0877 -0.2457
 1381W        W17190   5.671  12.822  14.389 -0.0488  0.0965 -0.2557
 1382W        W17191   3.378  17.813  12.375  0.2949 -0.1214 -0.1193
 1383W        W17192   7.856   2.509   3.339  0.1267  0.0615  0.0836
 1384W        W17193  18.300  17.075   0.253 -0.1126  0.0685  0.1005
 1385W        W17194  15.910  10.015  13.650 -0.1366  0.1405  0.1130
 1386W        W17195   7.681  12.995   0.466 -0.1792 -0.0179  0.0595
 1387W        W17196   9.979  13.723  11.924 -0.1765 -0.0015 -0.0441
 1388W        W17197  18.385  18.647  13.872 -0.0049 -0.1891 -0.2926
 1389W        W17198  10.821  17.774  15.031  0.1606 -0.2990 -0.2138
 1390W        W17199   8.042   3.659  11.586  0.0724 -0.4432  0.2045
 1391W        W17200  19.022   5.291  12.284 -0.1001  0.0865  0.1689
 1392W        W17201   5.694  14.281   2.799 -0.3344 -0.0401  0.0660
 1393W        W17202   7.245  12.150  12.337  0.1564  0.1610 -0.2863
 1394W        W17203   0.807  14.660   1.225  0.2666 -0.0359  0.3016
 1395W        W17204  15.668  16.335   0.465 -0.1529 -0.1559 -0.1914
 1396W        W17205  10.212   4.869   0.851 -0.7297  0.2425  0.0533
 1397W        W17206   2.573  18.717   0.966 -0.3087  0.0860 -0.0722
 1398W        W17207  15.428   6.896  11.205 -0.0909 -0.3001 -0.3436
 1399W        W17208  18.662  17.443   0.107 -0.0169  0.2542  0.6270
 1400W        W17209  10.884   0.283  14.557  0.1784  0.1963  0.2142
 1401W        W17210   6.740   8.859   2.914 -0.0045 -0.1181  0.0894
 1402W        W17211   9.830   3.949   1.083 -0.0151 -0.0666 -0.0852
 1403W        W17212  17.324   7.632   2.762  0.0015  0.2533 -0.1350
 1404W        W17213  11.969   3.021  14.007  0.1001  0.3022 -0.0764
 1405W        W17214   9.794  11.159  10.313  0.0262  0.1157  0.0202
 1406W        W17215  17.387   1.440   0.584  0.1995  0.3082  0.0066
 1407W        W17216  13.249   5.776  14.722 -0.5315 -0.2322 -0.0078
 1408W        W17217  11.045   7.675  11.690  0.1391 -0.1461 -0.0577
 1409W        W17218  12.201   9.226  10.891  0.0543 -0.1463 -0.1051
 1410W        W17219  16.883   7.040   4.808 -0.0426 -0.3081  0.0100
 1411W        W17220  12.126  15.989   3.702 -0.0099  0.0222 -0.2380
 1412W        W17221   4.215   7.531  14.588  0.2330  0.2073  0.0116
 1413W        W17222  14.179   0.714  11.354  0.2301  0.0307 -0.0228
 1414W        W17223   1.533   7.203  14.338 -0.0296  0.1629 -0.1324
 1415W        W17224   3.125   8.654  15.102 -0.0166 -0.2527  0.0196
 1416W        W17225  12.277   2.107   4.397 -0.0940 -0.0097  0.2059
 1417W        W17226  14.606  15.573   1.385 -0.0515 -0.1062  0.0143
 1418W        W17227  11.990   4.889  10.416  0.0286  0.0677 -0.1691
 1419W        W17228   1.797   7.161  13.900 -0.2398 -0.0793 -0.3954
 1420W        W17229   0.454  17.444   2.179 -0.0365  0.1320  0.0390
 1421W        W17230  12.764   1.372  10.725  0.0695  0.1282  0.0399
 1422W        W17231   2.763   6.203   0.948 -0.1554 -0.0271 -0.0444
 1423W        W17232  11.013  10.884   0.506 -0.0983  0.0988  0.0461
 1424W        W17233   6.331  13.101   4.686 -0.1539  0.1232  0.1067
 1425W        W17234   3.723  17.825  10.275 -0.0328  0.1564  0.1185
 1426W        W17235   8.065   3.259  14.648  0.1598 -0.1729  0.2674
 1427W        W17236   4.938  10.611   0.822 -0.1547  0.1480  0.0924
 1428W        W17237   8.015  16.781   0.346  0.2644  0.0411 -0.0802
 1429W        W17238  18.646   5.657  12.402 -0.1779  0.2037 -0.1655
 1430W        W17239  11.935   9.921  13.555 -0.0993 -0.0128  0.2462
 1431W        W17240   3.834   0.271  10.964  0.1057 -0.4232 -0.0090
 1432W        W17241   7.954   7.476   4.068 -0.1482 -0.2087  0.1548
 1433W        W17242  15.091   1.549   4.594 -0.1923 -0.2269 -0.1205
 1434W        W17243  12.534   3.203  11.567 -0.2211  0.0095  0.0009
 1435W        W17244   9.712   3.499  12.778 -0.2251  0.1221  0.3298
 1436W        W17245  11.589   9.110   0.938  0.1062 -0.1253  0.0538
 1437W        W17246   7.638   0.249   3.870  0.5267 -0.1998 -0.0018
 1438W        W17247  16.270  17.724  12.120 -0.0397 -0.1169 -0.0057
 1439W        W17248  10.893   5.525  12.126 -0.0799  0.1330 -0.0164
 1440W        W17249   3.416  17.433  10.665 -0.0745  0.0572  0.1016
 1441W        W17250   1.033   6.369   2.316 -0.0880  0.2477  0.0166
 1442W        W17251  11.811  18.043   2.095  0.0549 -0.1188 -0.1542
 1443W        W17252  15.787   5.121   2.070  0.0789  0.3462 -0.0526
 1444W        W17253   5.024  18.883  10.711  0.0037 -0.0545 -0.1780
 1445W        W17254   4.199  17.715   2.168 -0.0049 -0.1426 -0.0223
 1446W        W17255  12.509  18.013  14.335  0.0935 -0.1965  0.0331
 1447W        W17256   2.509  12.756  11.815  0.0273  0.0913  0.2297
 1448W        W17257  13.807  15.333  11.414  0.1152  0.0923 -0.0019
 1449W        W17258   6.413   2.465   9.872 -0.1587  0.4002 -0.1631
 1450W        W17259  17.890   9.921  10.940 -0.1075 -0.1591 -0.0874
 1451W        W17260   7.900   5.707  13.831  0.0339  0.0070  0.0607
 1452W        W17261   4.981  15.128   1.966  0.0679 -0.0201 -0.0923
 1453W        W17262   2.459   7.467   2.215  0.0867 -0.0834 -0.4239
 1454W        W17263   4.418   0.416   2.143 -0.0180 -0.2999 -0.1835
 1455W        W17264   1.729   1.028  10.490 -0.2111 -0.0956  0.1448
 1456W        W17265   1.029   1.802   1.263  0.0713 -0.2943 -0.0033
 1457W        W17266   0.984   6.037   0.681 -0.0579  0.2558  0.0063
 1458W        W17267  10.661  13.350   0.264  0.2097  0.1183  0.0929
 1459W        W17268  12.863  10.722   5.155 -0.0278  0.2846  0.3300
 1460W        W17269  16.033   0.072   4.689  0.1445  0.0715  0.1348
 1461W        W17270   5.919   7.317  13.845 -0.1550  0.1869 -0.1927
 1462W        W17271   2.806   6.646  12.646  0.1904 -0.3073 -0.2102
 1463W        W17272  12.242   5.041   4.361  0.0101  0.0010  0.2305
 1464W        W17273   8.664   8.532   0.757  0.1655  0.1114  0.1324
 1465W        W17274   3.339  13.544   3.454 -0.0037  0.4153  0.1656
 1466W        W17275  15.178  11.573   4.286  0.4058 -0.0355 -0.0380
 1467W        W17276   5.586   8.618  14.753  0.4860  0.1341 -0.0332
 1468W        W17277   5.793  12.671  14.878 -0.2296  0.0045  0.1367
 1469W        W17278  16.998   4.125   3.678 -0.1181  0.0347  0.3873
 1470W        W17279   6.538   3.902   3.174  0.1843  0.0679 -0.1442
 1471W        W17280   9.142   5.088   5.232  0.0969 -0.1343 -0.1553
 1472W        W17281  15.104   3.019  12.545  0.1141  0.1951 -0.0005
 1473W        W17282  10.777   7.855   3.232 -0.0768 -0.1491 -0.0356
 1474W        W17283   2.484  17.496   1.508  0.0950  0.3041  0.2928
 1475W        W17284  12.405  16.283  12.380 -0.0878  0.1266  0.4303
 1476W        W17285   5.194  11.371   1.034  0.0644 -0.1554  0.3426
 1477W        W17286  13.128   0.846  12.916 -0.1925 -0.3556  0.0821
 1478W        W17287   4.748  18.419  10.843  0.1719 -0.0506  0.2886
 1479W        W17288  11.589  10.693  12.013 -0.0491  0.0242 -0.0184
 1480W        W17289  10.675  12.675   5.001 -0.0143  0.0343 -0.1593
 1481W        W17290   1.234  18.860   4.494 -0.2745  0.1606  0.1233
 1482W        W17291  16.604   7.445  12.113  0.2972  0.2880  0.1268
 1483W        W17292   2.989  18.138  11.052 -0.0753  0.1929 -0.1830
 1484W        W17293   9.588   1.060   0.911  0.2060  0.2375 -0.0158
 1485W        W17294  16.489  18.732   5.432  0.1691  0.1414 -0.0293
 1486W        W17295   1.741   1.380   3.084 -0.0235 -0.2837 -0.0461
 1487W        W17296   9.599  10.910  11.229  0.2053 -0.0265  0.3363
 1488W        W17297  14.223  17.950  11.976  0.0493 -0.1230 -0.1586
 1489W        W17298  18.649   2.215   5.374  0.1156 -0.3227 -0.3782
 1490W        W17299  10.040   2.752   3.277 -0.1439 -0.3820  0.0116
 1491W        W17300  13.594   1.359   4.451 -0.1619 -0.0902 -0.1208
 1492W        W17301  12.935   5.003  10.569  0.0189  0.2216 -0.3172
 1493W        W17302   6.269   0.270   5.330 -0.1718 -0.0104 -0.2649
 1494W        W17303   5.875  17.747  11.518  0.2222  0.1719 -0.1036
 1495W        W17304  11.559   6.485   0.344  0.1541  0.2471  0.1529
 1496W        W17305   9.383  11.892   4.063  0.0782 -0.0449  0.0078
 1497W        W17306   0.544  12.488   3.844 -0.2007 -0.0600 -0.2732
 1498W        W17307   9.563  15.709   2.387 -0.2751 -0.0665 -0.0695
 1499W        W17308   4.840   0.279   1.818  0.0243 -0.2199  0.3622
 1500W        W17309  18.665  17.070   2.511 -0.1760  0.6125 -0.1324
 1501W        W17310  12.306  17.608   4.952 -0.1634  0.2152 -0.1340
 1502W        W17311   2.246  15.935  11.915 -0.0823 -0.0066 -0.1106
 1503W        W17312  16.510   8.244   3.854 -0.1842  0.0769 -0.0609
 1504W        W17313   5.669   7.346  11.810  0.1022  0.0738 -0.0443
 1505W        W17314  10.598   7.584   2.262 -0.0073  0.0609  0.0197
 1506W        W17315   7.265   0.687   0.216 -0.2443  0.1253  0.0397
 1507W        W17316   3.090   8.212   3.464  0.1302  0.0581  0.2235
 1508W        W17317  15.484   0.202  13.032  0.0493  0.1249  0.0323
 1509W        W17318  13.091   2.969  10.693  0.1995  0.0261 -0.1401
 1510W        W17319   8.126  15.833  14.576  0.0972  0.0149 -0.2307
 1511W        W17320  19.161  11.239  10.060 -0.2828 -0.1534  0.1391
 1512W        W17321   6.067  15.174  15.173 -0.1841 -0.1593  0.0513
 1513W        W17322   6.793   0.559  11.986  0.0666  0.2897 -0.1250
 1514W        W17323   2.644  15.179   2.955  0.2960  0.1875 -0.1888
 1515W        W17324  17.361   0.320   1.197  0.0856 -0.1268 -0.0972
 1516W        W17325   2.858   4.227  14.781  0.2363  0.1821 -0.1897
 1517W        W17326   3.938   0.005  12.250 -0.1560  0.3560  0.0338
 1518W        W17327   1.510   2.043  13.307  0.1924 -0.0825 -0.0199
 1519W        W17328   4.150   6.372   0.860  0.0474 -0.0118  0.2544
 1520W        W17329  14.379   9.313   4.858  0.2910 -0.1810  0.2422
 1521W        W17330   3.064   5.579  14.953  0.1334 -0.0004  0.0101
 1522W        W17331  16.527   6.472   0.564 -0.1072  0.2126 -0.0574
 1523W        W17332  10.014   6.964  12.243  0.1511  0.3116 -0.0145
 1524W        W17333  14.319  11.673   5.011  0.0659 -0.1395 -0.0559
 1525W        W17334  16.979   5.323  12.828 -0.1541  0.1293 -0.1602
 1526W        W17335   1.911  14.848  10.898 -0.1293  0.0295 -0.0407
 1527W        W17336  15.118   0.151   1.934  0.1176 -0.2492 -0.0049
 1528W        W17337  14.530  13.486   1.231 -0.2498  0.1911 -0.0163
 1529W        W17338  18.759   5.960  10.773 -0.2689  0.1169 -0.0198
 1530W        W17339  10.085   8.984  13.131 -0.3336  0.1607 -0.4236
 1531W        W17340  14.970  17.213   1.529  0.0648  0.2179 -0.0844
 1532W        W17341   6.849  17.804  10.166 -0.1998 -0.1547  0.0844
 1533W        W17342   5.527   1.245   4.538  0.2095  0.2266  0.0115
 1534W        W17343   1.340   5.541  12.655 -0.0637  0.3340  0.0139
 1535W        W17344  18.236   3.419  13.552  0.3177  0.3061 -0.1072
 1536W        W17345   0.334  16.958   3.989  0.0431  0.2786  0.4558
 1537W        W17346   4.112   6.401  13.980 -0.1743  0.1936  0.1244
 1538W        W17347  13.638   9.362   1.693 -0.0317  0.0619 -0.2405
 1539W        W17348   0.211   5.004   3.086  0.0336  0.3524 -0.2482
 1540W        W17349   8.548  10.673  11.581 -0.0711  0.0683  0.4015
 1541W        W17350  17.565  14.279  12.324 -0.0736 -0.1411  0.0900
 1542W        W17351  13.607   5.453  12.993  0.2056 -0.2938  0.2004
 1543W        W17352  17.826   5.863   9.991  0.2761  0.4136 -0.0077
 1544W        W17353  13.985  18.305   5.187 -0.0867  0.0793 -0.1582
 1545W        W17354   8.868  16.088   4.034  0.1584  0.1711 -0.0161
 1546W        W17355   3.756  10.325   0.809  0.0479 -0.1898  0.2776
 1547W        W17356  13.148  12.908   4.503  0.0792 -0.1771  0.3475
 1548W        W17357  10.463   3.544  11.508 -0.1844 -0.0431  0.3427
 1549W        W17358   8.495   5.885  13.782  0.1105  0.0218 -0.1582
 1550W        W17359  14.496   7.361   2.961 -0.1514  0.2465  0.2461
 1551W        W17360  12.939   2.863   3.935 -0.1260 -0.2189  0.0060
 1552W        W17361  11.884   9.267   2.335 -0.0174  0.0920 -0.3214
 1553W        W17362  14.023   5.838   1.928  0.3828 -0.2883  0.1721
 1554W        W17363   8.795   8.875   3.312 -0.3613 -0.2175 -0.1688
 1555W        W17364  17.519   9.642   1.720 -0.1709  0.0062 -0.1471
 1556W        W17365  17.036   0.033   0.261 -0.2925  0.2053  0.0683
 1557W        W17366  11.961   0.393   0.675 -0.3186 -0.2469 -0.0043
 1558W        W17367  11.051   5.671  13.659 -0.1162 -0.1877  0.1445
 1559W        W17368   8.305  16.516  13.839  0.0838  0.0035 -0.0022
 1560W        W17369  14.666  18.903   1.668  0.2326 -0.1310  0.0584
 1561W        W17370  15.768  12.451  12.137  0.1167 -0.0595 -0.1198
 1562W        W17371   6.111   1.224   2.253 -0.2939 -0.2477 -0.2171
 1563W        W17372   7.849   9.288   4.482 -0.0262  0.3451  0.5131
 1564W        W17373  11.026  15.538   0.255 -0.0584  0.0813  0.1847
 1565W        W17374  18.979  12.058   3.660 -0.1279 -0.0463  0.0324
 1566W        W17375   4.033  16.203   4.389  0.0731 -0.0050  0.2294
 1567W        W17376  11.092   6.021  13.268  0.0223  0.0938 -0.2562
 1568W        W17377   8.117  13.184  13.170  0.0369 -0.2094  0.1658
 1569W        W17378  17.677   8.661   4.381 -0.0407 -0.3627 -0.1676
 1570W        W17379   8.235   6.396   1.913  0.2121 -0.3518 -0.0826
 1571W        W17380  15.681  14.122  13.384  0.0893 -0.2426  0.0102
 1572W        W17381  10.210   7.912  10.517 -0.2451  0.0212 -0.1254
 1573W        W17382   2.734   1.296  14.909  0.0189  0.1569 -0.2067
 1574W        W17383   5.276  14.372   0.497  0.0373  0.1964  0.3506
 1575W        W17384  16.783   0.979   1.179 -0.0326 -0.1354  0.2150
 1576W        W17385   0.610  17.263   3.493  0.4213  0.0665 -0.2426
 1577W        W17386  11.136  10.536   2.401  0.0039  0.0533  0.0176
 1578W        W17387   6.254   8.104  13.325  0.1140  0.3673 -0.1683
 1579W        W17388  11.911   3.976  10.491 -0.1456  0.2440 -0.4592
 1580W        W17389  13.750   0.728   1.828 -0.1180 -0.0542 -0.0806
 1581W        W17390   2.327   8.755  12.339 -0.0841  0.0862 -0.1981
 1582W        W17391  11.435   9.474  10.113 -0.0521  0.1616 -0.1312
 1583W        W17392   3.088   1.878  12.542  0.0397 -0.0515  0.1429
 1584W        W17393   8.595  17.706  10.862  0.0435 -0.1596 -0.1686
 1585W        W17394  16.894  15.769   5.196 -0.1458 -0.1897  0.0001
 1586W        W17395   8.307   2.803  14.824 -0.1482 -0.3702 -0.0690
 1587W        W17396  13.668   3.638  12.715 -0.0157 -0.1141  0.0343
 1588W        W17397  11.556   1.929   0.273 -0.0333  0.0473  0.2058
 1589W        W17398  15.422   6.279  13.624 -0.0955  0.2490  0.2058
 1590W        W17399   3.498  18.915   9.856 -0.0467  0.3294  0.1569
 1591W        W17400  13.857   5.905   4.817  0.0634 -0.2190  0.1987
 1592W        W17401   7.132  13.488   0.763  0.0013  0.1288  0.2572
 1593W        W17402   8.546   6.110   4.457  0.1445  0.4214 -0.0216
 1594W        W17403   5.429   7.545  10.762  0.0081  0.0384 -0.1977
 1595W        W17404   2.019   7.371  11.822 -0.0629  0.1533  0.3399
 1596W        W17405  10.494  18.502  10.740  0.1212  0.0794 -0.2820
 1597W        W17406  11.443  12.823   0.171  0.2893  0.0354 -0.1117
 1598W        W17407  11.896   1.331   5.444  0.0357  0.1810  0.1945
 1599W        W17408   7.233  13.076  12.989 -0.1507 -0.0792 -0.3733
 1600W        W17409  14.934   6.974   0.160 -0.0601  0.1468 -0.1319
 1601W        W17410   4.997  11.399  11.995 -0.0758  0.0018  0.0672
 1602W        W17411  15.125  18.141   5.641  0.0839 -0.2850 -0.2488
 1603W        W17412  17.400  11.539  13.268 -0.0461  0.1430  0.0077
 1604W        W17413   0.689   8.521  13.697 -0.1551  0.1179  0.2109
 1605W        W17414   6.077  17.629   1.843  0.0856  0.2148  0.0926
 1606W        W17415   2.681   3.087   3.736  0.2775  0.0141 -0.4186
 1607W        W17416  12.851   2.204  11.081  0.2557  0.1378  0.1601
 1608W        W17417   4.999  14.538  13.931  0.4409  0.1584  0.0691
 1609W        W17418   3.350  13.677  10.949 -0.1021 -0.2196 -0.0307
 1610W        W17419   8.934   7.733   4.467 -0.2679  0.3496  0.0505
 1611W        W17420  14.978  15.663   3.073 -0.0957 -0.4343 -0.2491
 1612W        W17421  17.794  14.696  12.112  0.2828  0.0248 -0.1385
 1613W        W17422   8.637   6.561   0.254 -0.3498 -0.0458 -0.0831
 1614W        W17423  15.540   0.048   3.567  0.1503 -0.1568 -0.1311
 1615W        W17424  18.155  16.066  12.523 -0.0399  0.1812  0.4023
 1616W        W17425   1.940   0.437   1.840 -0.1620  0.2156 -0.1502
 1617W        W17426   6.012   8.137   5.298 -0.0035 -0.3176  0.0748
 1618W        W17427   2.831  10.577  14.052 -0.5178  0.4205 -0.1536
 1619W        W17428   9.626   3.660   1.908 -0.2253  0.2136 -0.2897
 1620W        W17429  11.342   0.599   4.276  0.1431 -0.2050 -0.0167
 1621W        W17430  17.418  16.178  14.181 -0.2291 -0.2302 -0.0120
 1622W        W17431   8.054   4.449   3.086 -0.0290  0.0006 -0.0686
 1623W        W17432  14.282  11.106  13.003  0.0768  0.1367  0.1934
 1624W        W17433   2.718   1.510  12.715 -0.1474  0.2677  0.0317
 1625W        W17434  15.467   1.042   3.015  0.2132 -0.1855  0.0209
 1626W        W17435  11.672  13.816   4.458 -0.0159  0.0759  0.0400
 1627W        W17436  18.346   0.513   1.567 -0.0083 -0.1770  0.0077
 1628W        W17437   9.128   2.154  13.589  0.0305 -0.2894  0.0608
 1629W        W17438  11.223  10.753  13.011  0.2865 -0.1953 -0.2670
 1630W        W17439  12.535  12.909  12.130 -0.2040  0.0702 -0.2542
 1631W        W17440  13.565  12.648   5.913  0.3287  0.1389  0.0402
 1632W        W17441   9.750   2.114   0.534 -0.0619  0.0012  0.1336
 1633W        W17442  18.665   3.995   2.817  0.0084 -0.1166  0.0848
 1634W        W17443  13.873   7.185   2.894  0.3734 -0.4523  0.1977
 1635W        W17444   3.591  13.247  11.059  0.1028 -0.3302 -0.2503
 1636W        W17445   2.534   9.301  13.093 -0.0541  0.1381  0.4930
 1637W        W17446   4.845  10.325   3.494 -0.0235  0.0860  0.0180
 1638W        W17447   6.459   8.783  13.223 -0.0451 -0.0383  0.0309
 1639W        W17448  15.671   6.669   1.589 -0.1294 -0.4797 -0.3092
 1640W        W17449  11.044  19.078  12.386 -0.1656  0.0718  0.2095
 1641W        W17450   1.159  15.373   4.885 -0.1062  0.3664 -0.3006
 1642W        W17451  13.902  13.236   0.294  0.2207 -0.1967 -0.0621
 1643W        W17452   8.460   8.764  10.958 -0.2191 -0.1245  0.1004
 1644W        W17453   3.750  10.066   3.905 -0.1841  0.0407  0.1319
 1645W        W17454  13.240  17.680   5.482  0.0965  0.0014  0.2904
 1646W        W17455  18.204   0.835   0.235 -0.1294 -0.1819 -0.0305
 1647W        W17456   0.982  13.411  12.269  0.2511  0.2658 -0.1148
 1648W        W17457   8.782   8.346   2.791  0.1178  0.1143 -0.2029
 1649W        W17458  11.488   3.302   4.399 -0.1566  0.4265 -0.2510
 1650W        W17459   4.758  11.636  13.560  0.1720 -0.0212 -0.3617
 1651W        W17460   9.617  12.596  12.363  0.0612 -0.1379 -0.0252
 1652W        W17461   2.435  14.634  13.664  0.3434  0.2713 -0.4492
 1653W        W17462  17.110  15.851   0.681 -0.3600  0.1968  0.1323
 1654W        W17463  17.099  15.483  12.335  0.0591 -0.0912  0.1096
 1655W        W17464  12.228  16.650  12.993  0.1285  0.3440  0.0305
 1656W        W17465   8.531  15.048   1.323 -0.1712 -0.1729 -0.0384
 1657W        W17466  14.432  14.328   1.785  0.1759  0.0551  0.1772
 1658W        W17467   7.304   3.000  14.101  0.4273  0.3321 -0.2439
 1659W        W17468   6.078  11.437   4.548 -0.0288  0.4183  0.1401
 1660W        W17469   1.525   6.604   1.059  0.3707  0.0499  0.0859
 1661W        W17470   7.891  11.813   1.153  0.3355 -0.0407 -0.1088
 1662W        W17471   4.488  12.234   1.941 -0.1951 -0.2870  0.0048
 1663W        W17472   6.375  10.695  10.553 -0.0367  0.1828 -0.0603
 1664W        W17473   4.039  13.599   4.014 -0.0378  0.0162 -0.0034
 1665W        W17474  18.438  14.941  13.142  0.0533  0.0527 -0.5805
 1666W        W17475  13.685   5.059   2.188 -0.0732  0.1167 -0.2806
 1667W        W17476  14.226  18.769   0.755 -0.2951 -0.0096 -0.0255
 1668W        W17477  18.213   6.972  14.007  0.3347 -0.1298  0.0502
 1669W        W17478   6.155  10.961   1.529 -0.1458 -0.0792  0.1381
 1670W        W17479   7.755  16.347   2.258 -0.0925 -0.1398  0.2706
 1671W        W17480   3.764   2.358  14.195 -0.4042 -0.1596 -0.0190
 1672W        W17481   5.570   9.718   3.732 -0.0727  0.0813 -0.0389
 1673W        W17482   6.528  18.441   4.175 -0.1561  0.0208 -0.0136
 1674W        W17483   2.882  14.943   0.476  0.2285  0.0401 -0.1403
 1675W        W17484  10.985   7.899   4.411 -0.2398  0.3773  0.2861
 1676W        W17485  14.229   4.210  13.162 -0.1014 -0.1615 -0.1939
 1677W        W17486  17.110   0.244  12.674  0.2380 -0.2190  0.0482
 1678W        W17487  11.434   8.965   2.770 -0.1320 -0.1266 -0.1034
 1679W        W17488  11.305   2.328  14.276 -0.1676  0.2945  0.0186
 1680W        W17489  13.746   6.621   3.983  0.0620  0.0420 -0.1066
 1681W        W17490  15.039  17.783   4.716 -0.2376 -0.2328 -0.2213
 1682W        W17491  16.596  15.317   2.797  0.0999 -0.4219  0.2034
 1683W        W17492   7.495   9.467   3.665 -0.2199 -0.2293  0.0299
 1684W        W17493  16.301   3.457  12.372  0.2372 -0.2735 -0.0353
 1685W        W17494   1.833  15.261   0.941  0.0153  0.0735 -0.2129
 1686W        W17495  18.406  10.784  13.395 -0.1588 -0.1939  0.2182
 1687W        W17496  10.382  15.179  13.266 -0.4151 -0.3279  0.1003
 1688W        W17497  13.057   2.101  14.038  0.0994  0.1895  0.1617
 1689W        W17498  12.166   0.062   3.383 -0.0530 -0.0392 -0.0463
 1690W        W17499  19.056  11.127   5.342  0.2406  0.3599 -0.1206
 1691W        W17500   9.737   8.978  11.601  0.4620  0.2296 -0.0672
 1692W        W17501   4.646   2.352   9.509  0.0730  0.1993  0.2960
 1693W        W17502  12.288   6.494   0.642 -0.0153 -0.2175  0.1898
 1694W        W17503   6.028   3.729  12.686  0.1094  0.0272  0.0394
 1695W        W17504   4.944  18.516   1.530 -0.1846 -0.3526 -0.1223
 1696W        W17505  16.478  19.084  14.046 -0.2037 -0.1282  0.3730
 1697W        W17506   2.487   5.534  11.499 -0.0000 -0.1042 -0.0810
 1698W        W17507   2.825  16.171  15.150 -0.0691  0.1707  0.1586
 1699W        W17508   5.518   6.364  12.376 -0.3585 -0.1282 -0.2987
 1700W        W17509   8.193   6.940   1.073  0.1970  0.0503  0.2100
 1701W        W17510  15.772   0.014  14.842  0.2443  0.1039  0.0728
 1702W        W17511  16.536   7.575  14.191 -0.2195 -0.2783  0.0483
 1703W        W17512  12.088   3.734   4.907  0.2528 -0.0292  0.0758
 1704W        W17513   4.040  12.389   1.136 -0.0552 -0.0368  0.2064
 1705W        W17514   9.554   3.042   3.789 -0.2166 -0.3974  0.4320
 1706W        W17515   5.787   1.909   3.941  0.0847 -0.1609 -0.0786
 1707W        W17516   4.154  16.184   0.239  0.1447  0.1250 -0.1091
 1708W        W17517   2.204   8.621   9.477 -0.1849 -0.1573 -0.3050
 1709W        W17518  11.710  18.050  11.775  0.3937 -0.3554 -0.1208
 1710W        W17519   9.292  18.582  14.431 -0.3531 -0.0150 -0.0315
 1711W        W17520   4.812  12.093  13.381 -0.1331  0.2391 -0.0510
 1712W        W17521   7.533  12.972   1.300 -0.1314 -0.0567  0.3121
 1713W        W17522   1.695   2.654  10.256  0.0894 -0.0287 -0.0770
 1714W        W17523  12.217  12.863  11.349 -0.0588 -0.2197  0.0269
 1715W        W17524  13.175   4.738   2.686  0.0445  0.0066 -0.3005
 1716W        W17525   9.507   7.529  13.652 -0.2307 -0.1705 -0.0674
 1717W        W17526  17.404   7.448   4.766  0.1750  0.1900 -0.0641
 1718W        W17527  13.361   5.688   4.812  0.0174 -0.0207  0.1432
 1719W        W17528   6.370  16.444  13.570  0.3286 -0.0866 -0.0097
 1720W        W17529  16.713  17.116  12.501 -0.1038 -0.0679 -0.0491
 1721W        W17530  14.746  18.752   4.840  0.1854  0.2594  0.1304
 1722W        W17531   4.445   8.857   9.167  0.1625  0.3134  0.1923
 1723W        W17532   7.592   0.195   1.798  0.0100 -0.0820 -0.2795
 1724W        W17533   8.876   1.343   3.222  0.2504 -0.1750  0.0919
 1725W        W17534  18.171  14.240   3.095  0.0898 -0.2465 -0.2987
 1726W        W17535   3.590   5.564  12.187 -0.3302  0.0799 -0.1570
 1727W        W17536   5.811  17.620   5.210 -0.0452 -0.0700  0.0050
 1728W        W17537  11.117   6.084   1.438  0.1045 -0.1965 -0.4028
 1729W        W17538   6.805   0.476   4.453  0.1194  0.0594  0.2056
 1730W        W17539   0.501  18.532  12.104 -0.1622 -0.1020 -0.1345
 1731W        W17540   1.528  13.433   3.626 -0.2846  0.1308  0.0156
 1732W        W17541   9.166   5.104   9.298  0.0769  0.2898  0.0308
 1733W        W17542  14.853  16.613   1.881  0.1515 -0.2713 -0.0027
 1734W        W17543   9.793   6.499  12.243  0.2348 -0.3470 -0.2407
 1735W        W17544   3.209   6.463  11.694 -0.0006 -0.2678 -0.0217
 1736W        W17545  14.062  14.974   6.541 -0.3123  0.0437 -0.1826
 1737W        W17546   7.419   6.497  10.469 -0.0040 -0.3211  0.1101
 1738W        W17547   7.293   3.663  12.908 -0.1186  0.2633 -0.2384
 1739W        W17548  13.371   3.193  12.607 -0.0925 -0.1266 -0.4966
 1740W        W17549  16.892   6.019  15.086 -0.0274  0.0830 -0.0457
 1741W        W17550  11.587  11.436   3.374  0.3787  0.1880  0.0240
 1742W        W17551   7.898  10.783  13.558 -0.0093 -0.0352 -0.0984
 1743W        W17552   0.497   7.590   1.916  0.1964 -0.2507  0.2886
 1744W        W17553  11.417   2.211  12.730  0.1076 -0.1108  0.1040
 1745W        W17554  13.648  13.745   1.590  0.0913  0.0498  0.1663
 1746W        W17555  12.160  11.567  14.189 -0.0306  0.3023  0.0293
 1747W        W17556   5.290   2.307   4.491 -0.0823 -0.1093  0.0208
 1748W        W17557  16.095   3.956  12.092  0.3547  0.0300 -0.0058
 1749W        W17558  17.619   3.060   3.160 -0.0603  0.1242 -0.4148
 1750W        W17559   1.374   0.191  14.730 -0.2957 -0.1353 -0.2729
 1751W        W17560   9.769   5.589  13.368  0.0469 -0.1471  0.1563
 1752W        W17561   0.382  15.998   0.778 -0.2359 -0.1461  0.1704
 1753W        W17562   3.156   5.327  13.189  0.2122  0.2185 -0.3761
 1754W        W17563  17.740  15.143  13.054  0.1021 -0.0741  0.0850
 1755W        W17564  17.629  18.007   3.716 -0.1070  0.0050 -0.0212
 1756W        W17565   3.676   1.200  10.293  0.0520  0.1325 -0.1828
 1757W        W17566   8.657   3.444   1.652 -0.0270  0.4106 -0.0808
 1758W        W17567  13.383  10.623   1.433 -0.2217  0.0735 -0.0816
 1759W        W17568  18.748  14.927  13.527 -0.5546 -0.1361  0.0852
 1760W        W17569   6.634   2.178   1.103 -0.0958  0.0551 -0.1608
 1761W        W17570  13.340   0.036   0.483 -0.4883  0.3367  0.0458
 1762W        W17571   7.113  12.070  12.859  0.3767 -0.0695 -0.1868
 1763W        W17572  13.791  15.246   5.918  0.0835 -0.1177  0.5484
 1764W        W17573   6.181   9.883   1.570 -0.2052  0.4066  0.3500
 1765W        W17574  15.274   1.820  10.302 -0.3252 -0.3087 -0.1922
 1766W        W17575  18.661   4.926   5.136 -0.2344  0.0005 -0.4308
 1767W        W17576  15.733  11.986  14.724  0.0232  0.0649  0.1003
 1768W        W17577  15.886   8.058  13.218 -0.0268 -0.1278  0.0686
 1769W        W17578   9.156   7.439  12.759 -0.0134  0.1831 -0.2825
 1770W        W17579   2.488   9.281   1.939  0.2814 -0.0768 -0.1063
 1771W        W17580  17.404   6.846   1.952  0.3206  0.1563  0.1739
 1772W        W17581  12.936  14.824   2.406 -0.2813  0.2573 -0.1588
 1773W        W17582  12.033  14.104   6.153  0.1279 -0.0317  0.1791
 1774W        W17583  10.753   7.439   0.068  0.2088  0.0980  0.0587
 1775W        W17584  12.667   1.977   2.765 -0.1330 -0.0107 -0.1958
 1776W        W17585  12.050   4.349   2.313 -0.0912 -0.1433 -0.1849
 1777W        W17586   2.603  17.572   4.990 -0.0328 -0.2566  0.0519
 1778W        W17587  15.771   1.955   3.438 -0.0363 -0.3482  0.2636
 1779W        W17588  16.543  11.559   1.511  0.1306 -0.0955 -0.0503
 1780W        W17589  14.143   8.667   1.206 -0.5595  0.1493 -0.2449
 1781W        W17590   6.998   5.177  12.621 -0.0318 -0.1350 -0.0892
 1782W        W17591  18.201   6.388  10.247  0.1266 -0.0033 -0.0793
 1783W        W17592  14.913  15.648   2.206  0.1583  0.2555 -0.0322
 1784W        W17593   4.182   8.680   4.662  0.2500 -0.1240  0.1648
 1785W        W17594   8.248   5.222  14.462 -0.2120 -0.3424 -0.1167
 1786W        W17595  13.119  11.406   1.116 -0.0060 -0.0870  0.1392
 1787W        W17596  10.744  12.844   2.054 -0.1887  0.1756 -0.3388
 1788W        W17597  13.502  14.858  12.307 -0.3232 -0.0077  0.1538
 1789W        W17598  10.058  18.071   0.870  0.2100  0.2719  0.0919
 1790W        W17599   8.056  18.202  12.690  0.0615  0.2243  0.1419
 1791W        W17600  16.676   9.667  11.615  0.2048 -0.1631 -0.3327
 1792W        W17601   6.486  11.511  12.104  0.0581 -0.1760  0.0685
 1793W        W17602   9.429  11.572   4.534 -0.1199  0.2364 -0.3220
 1794W        W17603   5.428   0.676  10.531 -0.3120 -0.0617  0.0641
 1795W        W17604  14.359  14.906  13.709  0.1041 -0.3418 -0.2817
 1796W        W17605  10.384  11.974   5.141  0.1569  0.0543  0.0581
 1797W        W17606   1.498  14.723  12.171 -0.0290 -0.1286  0.1572
 1798W        W17607  12.284   4.551  14.125  0.0324  0.0101  0.0721
 1799W        W17608  17.763   5.034   3.562  0.0005  0.2845  0.2198
 1800W        W17609  18.759  15.192  11.023  0.2995 -0.2104 -0.0075
 1801W        W17610   4.036  12.079  13.016 -0.1857  0.3176  0.1213
 1802W        W17611   3.571   6.248  14.765 -0.0087  0.0211  0.3195
 1803W        W17612  11.633  12.749   5.148  0.2617  0.0606  0.2545
 1804W        W17613   4.141   4.599  12.880 -0.0577 -0.1846  0.0048
 1805W        W17614   0.977  18.716   2.479 -0.0632 -0.0428  0.3310
 1806W        W17615   9.533   9.385  10.826  0.0699 -0.0186 -0.2000
 1807W        W17616  14.823  16.447   0.148  0.0540 -0.1183 -0.0872
 1808W        W17617  18.032  17.044  14.866 -0.1631  0.0942 -0.1818
 1809W        W17618   4.658  16.158   0.342  0.0615 -0.0192 -0.0077
 1810W        W17619   6.787   5.876   0.706  0.3322 -0.4996 -0.3270
 1811W        W17620  15.442  17.957   4.284  0.0799  0.1806 -0.1110
 1812W        W17621  10.580  14.610   0.392  0.0416  0.1261 -0.0712
 1813W        W17622   9.673   8.335   1.891 -0.2133  0.0972 -0.1081
 1814W        W17623  19.114   0.517  14.487 -0.1586  0.2484  0.1624
 1815W        W17624   8.541  11.041  12.994  0.3780  0.3354 -0.2419
 1816W        W17625  17.596  16.087   0.458  0.3526  0.2947  0.0815
 1817W        W17626  14.121   3.242  12.553 -0.0071 -0.3782  0.1201
 1818W        W17627   0.205   2.075   4.761  0.1018 -0.1853 -0.0559
 1819W        W17628  15.321  10.059   4.378 -0.2276  0.0503 -0.0472
 1820W        W17629   5.032  11.363   5.390  0.0058 -0.0589  0.0943
 1821W        W17630  14.961  13.596   0.872  0.1420 -0.0130 -0.0803
 1822W        W17631  18.472  13.359   0.551 -0.4613  0.0001  0.3125
 1823W        W17632   7.349  16.596   0.018 -0.0063  0.2977 -0.5652
 1824W        W17633   1.266   6.672  12.036  0.3160  0.2060  0.0340
 1825W        W17634  13.885   4.084   5.602  0.2764 -0.0431  0.1609
 1826W        W17635   6.954   2.515   1.456  0.2277 -0.1693  0.2768
 1827W        W17636   8.896  14.236  11.695 -0.0872 -0.1664  0.0306
 1828W        W17637  16.160  13.080  12.799  0.0924  0.0371 -0.0257
 1829W        W17638   3.023   7.568  14.163 -0.0253  0.2269  0.3159
 1830W        W17639   8.768  17.274   1.298 -0.3022  0.4427 -0.0680
 1831W        W17640  18.203  17.854  12.232  0.0078  0.1467 -0.3526
 1832W        W17641  17.967  14.011  14.213  0.1447 -0.1316 -0.3978
 1833W        W17642   8.389   1.069   2.337  0.1087  0.2831 -0.0331
 1834W        W17643   6.836   5.417   5.418 -0.1050  0.1682  0.1082
 1835W        W17644  15.596  18.703  12.288 -0.4155  0.1522 -0.1284
 1836W        W17645  18.583   4.206  12.313  0.1237  0.2710  0.0320
 1837W        W17646   0.540  11.932  11.284 -0.3807  0.0751 -0.5328
 1838W        W17647   6.451  10.565   3.902 -0.0948  0.0544 -0.2620
 1839W        W17648   1.101  15.054  11.254  0.1798 -0.0848  0.0006
 1840W        W17649  12.836   9.511   2.299  0.2725  0.0534  0.2151
 1841W        W17650   0.591   5.139  13.113 -0.2566 -0.2587 -0.1282
 1842W        W17651  13.702  11.034   4.617 -0.2387  0.2181 -0.0112
 1843W        W17652  12.802  18.377  13.208  0.2188  0.2536  0.2456
 1844W        W17653  19.020  10.624  11.769  0.1363  0.0700  0.6322
 1845W        W17654  10.451   2.378   3.117 -0.1089  0.0848 -0.3103
 1846W        W17655   2.621   0.905  10.415  0.2915  0.0471  0.0668
 1847W        W17656  14.328  17.172   3.320  0.0534 -0.3507 -0.1438
 1848W        W17657  12.008   5.643   3.267  0.0342 -0.0675  0.0108
 1849W        W17658   8.522  14.981  15.169 -0.1177  0.0595  0.1291
 1850W        W17659  17.349  18.886  14.140  0.1723 -0.0939  0.1286
 1851W        W17660   4.356   5.802  13.012 -0.1212  0.1403 -0.1167
 1852W        W17661   8.158  17.259  12.716 -0.0336 -0.3305  0.0703
 1853W        W17662   0.662   9.484  11.927 -0.0547 -0.1467 -0.2019
 1854W        W17663   5.567  18.549   9.080  0.0562 -0.1615 -0.2411
 1855W        W17664  11.901   3.435  10.974  0.0996  0.3507  0.0521
 1856W        W17665   8.304   3.344  12.466  0.0551  0.1663 -0.5634
 1857W        W17666  16.809  14.849   5.234 -0.0200 -0.2754  0.0236
 1858W        W17667   1.136  17.490   2.313 -0.2650 -0.0536 -0.0043
 1859W        W17668  13.026   5.543   2.059 -0.0221  0.0378 -0.2915
 1860W        W17669  18.563  16.282   1.860 -0.1315  0.1085 -0.0560
 1861W        W17670   7.386   3.546   1.196  0.2417 -0.1505  0.3120
 1862W        W17671  14.952   4.717   4.445  0.2985  0.1608 -0.1773
 1863W        W17672  13.550  16.463  13.427 -0.1680  0.0303 -0.1802
 1864W        W17673   9.737  10.936   4.939 -0.2191 -0.0860  0.0159
 1865W        W17674   1.238  16.444   0.887 -0.0015  0.1107  0.1205
 1866W        W17675  17.823   3.974   3.582  0.4271  0.2272 -0.1910
 1867W        W17676   7.740  17.132   2.839 -0.2365  0.3734  0.2592
 1868W        W17677   9.333  16.722   4.704 -0.0733  0.0076 -0.1142
 1869W        W17678  10.703  10.283  13.396  0.0582 -0.1421  0.2232
 1870W        W17679  15.427  12.415  15.183 -0.0845 -0.0715  0.2637
 1871W        W17680   5.857  10.079  12.959 -0.0068  0.0797  0.1108
 1872W        W17681  15.926  11.745   3.809 -0.2468  0.0241  0.2361
 1873W        W17682  14.543   0.340  14.883 -0.5577 -0.1661 -0.0214
 1874W        W17683  12.174   7.304   3.263  0.1590 -0.3748  0.3531
 1875W        W17684  12.518   3.413   2.138  0.2637  0.0335 -0.1545
 1876W        W17685   7.952   1.462   2.295 -0.1128 -0.0762 -0.1839
 1877W        W17686   2.929   0.090   2.900  0.0540 -0.1515  0.2332
 1878W        W17687   3.073  15.737  11.905  0.2524 -0.0601 -0.0500
 1879W        W17688   4.547   6.582   1.786  0.0963  0.0675  0.3048
 1880W        W17689   3.596   0.689  10.500 -0.0837 -0.0452  0.2418
 1881W        W17690  14.571   4.978   4.612  0.2700  0.1282 -0.0269
 1882W        W17691  19.016  16.497   3.652  0.0549  0.2199  0.1292
 1883W        W17692  15.837   1.496   4.896 -0.1789 -0.1772  0.3004
 1884W        W17693  16.843   9.649   1.203  0.2141 -0.0293 -0.1116
 1885W        W17694   9.391  16.786  12.108  0.2209  0.1151  0.0912
 1886W        W17695   6.131  16.082  10.168  0.5622  0.0879  0.3058
 1887W        W17696  10.811  13.004   2.592  0.3715 -0.0991  0.0264
 1888W        W17697  16.499   4.360   3.016 -0.0753  0.3379 -0.3613
 1889W        W17698   5.124  10.027   3.897  0.1761 -0.2817 -0.0968
 1890W        W17699   3.769  18.881   9.463 -0.2768 -0.0546 -0.1664
 1891W        W17700   6.022   2.092  14.547  0.1510 -0.2567  0.0088
 1892W        W17701   9.117   9.977   2.328  0.0930 -0.1754  0.1943
 1893W        W17702  11.831  12.717  14.324 -0.0222  0.0607 -0.1222
 1894W        W17703  18.899  11.463   3.495  0.3338 -0.0353 -0.0949
 1895W        W17704  16.631  12.158   3.591  0.3860 -0.1677  0.1144
 1896W        W17705   2.175   3.063   0.890 -0.0867 -0.1593 -0.0361
 1897W        W17706  14.958  17.873   2.500 -0.1852  0.1908 -0.4159
 1898W        W17707   8.608   3.210   4.363 -0.1273 -0.2251 -0.1825
 1899W        W17708   6.591  14.581   1.211 -0.1851 -0.0887 -0.1073
 1900W        W17709   6.884   3.103  13.279 -0.0214  0.1616 -0.1198
 1901W        W17710  10.370  14.388   0.849 -0.1294 -0.3169  0.1744
 1902W        W17711   4.952  12.904  11.105 -0.0952 -0.2654  0.0268
 1903W        W17712  11.924  15.711   2.410 -0.1016 -0.0750 -0.0713
 1904W        W17713  18.932   5.059  13.037  0.2123  0.2212  0.2903
 1905W        W17714   7.143   8.308  10.685  0.0963 -0.1505 -0.1642
 1906W        W17715  18.986   6.351  11.204  0.2754  0.4328 -0.0430
 1907W        W17716   9.888   2.668  12.102 -0.3912  0.1624  0.3472
 1908W        W17717  10.198   1.935   0.604  0.2171  0.2104 -0.2150
 1909W        W17718  17.741   1.668   4.444 -0.3623  0.0192 -0.3446
 1910W        W17719   4.956  14.883  12.160 -0.2181 -0.1221 -0.0430
 1911W        W17720  16.086   6.985   5.873 -0.0480  0.1835  0.0248
 1912W        W17721  17.570  12.683   1.469  0.3882  0.0491 -0.0504
 1913W        W17722  10.991   3.216   0.947  0.0799  0.0288  0.2127
 1914W        W17723   0.119  15.791  14.369  0.2420 -0.0984 -0.0358
 1915W        W17724   4.332  14.530  12.847 -0.1903 -0.0318 -0.2330
 1916W        W17725  18.161   0.064  10.638  0.3826 -0.5828 -0.0777
 1917W        W17726  15.825   9.752   4.392  0.2823  0.0833 -0.0714
 1918W        W17727   9.150  15.236   4.023  0.0883 -0.2317  0.0522
 1919W        W17728  15.438   1.536   3.595  0.0284  0.1709 -0.1124
 1920W        W17729  15.947   8.075   4.086 -0.1349 -0.1233  0.0218
 1921W        W17730   6.555  13.608  14.867  0.0200 -0.1545  0.1743
 1922W        W17731  13.671   2.504  11.913  0.0971  0.1023  0.2917
 1923W        W17732   5.377   0.677   4.516  0.2943 -0.1289 -0.1516
 1924W        W17733   9.992  11.657   2.010 -0.0855  0.0135 -0.2746
 1925W        W17734  15.833   3.328   2.414  0.4059  0.1550 -0.0048
 1926W        W17735  11.839   8.954  14.739  0.0217 -0.2717 -0.0769
 1927W        W17736   8.951  16.515   0.081  0.0678 -0.0425  0.1595
 1928W        W17737   0.052  11.871   3.279  0.1365 -0.0726  0.0959
 1929W        W17738   7.947   5.312   3.619 -0.1502  0.1137 -0.0623
 1930W        W17739  17.467  16.376  10.466  0.2539 -0.0458 -0.4937
 1931W        W17740   2.401  16.738  11.192 -0.1617 -0.0589 -0.4968
 1932W        W17741   5.904  10.658  10.283 -0.1856 -0.0204  0.2339
 1933W        W17742  13.376  13.302   2.772 -0.2781 -0.1694  0.0246
 1934W        W17743  16.420   8.232   5.151 -0.1706 -0.0588 -0.1095
 1935W        W17744   0.690   6.437   9.412 -0.2117  0.1128  0.0046
 1936W        W17745   6.911   7.644   2.053  0.1212 -0.2866 -0.2740
 1937W        W17746   6.699   2.856  11.263  0.0680  0.3201 -0.1240
 1938W        W17747   7.456  11.854  10.865  0.0923  0.2384  0.3326
 1939W        W17748  18.496  16.908  11.919  0.3752  0.2273 -0.2709
 1940W        W17749   8.482  13.487   3.548 -0.0756  0.0220 -0.1113
 1941W        W17750   0.121  12.035  10.574 -0.0453 -0.2518 -0.1590
 1942W        W17751   8.705  12.529   5.048  0.5477  0.0417 -0.1013
 1943W        W17752   6.833  11.944  13.834  0.4371  0.1783  0.0482
 1944W        W17753  11.844  13.291  14.119 -0.2688  0.0945  0.1029
 1945W        W17754  10.413  14.025  14.802 -0.0362 -0.4586  0.0811
 1946W        W17755  16.074   7.451  13.935  0.0301  0.0702 -0.2240
 1947W        W17756  10.608  11.338  11.420  0.0218 -0.0318 -0.2457
 1948W        W17757  13.446  14.202  14.061 -0.1583 -0.1355 -0.2612
 1949W        W17758   7.645   3.549   0.725 -0.1008  0.0365 -0.2077
 1950W        W17759  16.904  13.769  14.297 -0.1708 -0.1112 -0.1613
 1951W        W17760  13.245   6.059   1.636 -0.0345 -0.0592 -0.0005
 1952W        W17761  11.348   6.150   3.489 -0.1287  0.2645  0.0785
 1953W        W17762   4.185  15.725  12.620  0.0756 -0.3879  0.1684
 1954W        W17763   1.839  13.609   4.005  0.2212 -0.0740 -0.2295
 1955W        W17764   1.313  17.135  11.124 -0.1549  0.1149 -0.1788
 1956W        W17765   6.671  16.384  13.158  0.1737 -0.1109  0.4533
 1957W        W17766   1.700  11.740  13.048 -0.1925  0.2228  0.2640
 1958W        W17767  10.364  16.262   1.089  0.1922  0.1083  0.1014
 1959W        W17768   6.329  11.664  10.610 -0.1430  0.0854 -0.1901
 1960W        W17769   5.173   9.645  14.394 -0.0304  0.0316  0.0501
 1961W        W17770   0.196   9.878   3.313  0.2341  0.1520  0.0374
 1962W        W17771   1.707  18.550   3.051  0.0661  0.3840  0.1256
 1963W        W17772   8.268   9.385   4.789 -0.2548  0.4032 -0.1643
 1964W        W17773   1.977  14.924   4.421 -0.0678  0.1393 -0.2249
 1965W        W17774  16.988  12.650   0.702  0.1690 -0.0078 -0.0486
 1966W        W17775   7.197  18.376  13.245  0.3401 -0.0215  0.2276
 1967W        W17776  18.181   6.546  11.449  0.0002  0.1360  0.0502
 1968W        W17777   0.165  13.194  12.853  0.1573  0.0307 -0.0328
 1969W        W17778   6.807  16.963   2.027  0.1020 -0.0226 -0.2696
 1970W        W17779  12.633   8.499  13.696  0.2156 -0.4665 -0.0481
 1971W        W17780  17.397  16.285  13.212  0.1316 -0.0158 -0.0123
 1972W        W17781   6.540   3.906   4.355  0.0546  0.2595  0.0772
 1973W        W17782  12.878  10.281   4.016  0.1265  0.0650  0.2014
 1974W        W17783   0.792   3.266  10.689 -0.2090 -0.3071  0.2916
 1975W        W17784   3.939   1.635   1.850  0.2618 -0.1347  0.2735
 1976W        W17785  19.007  16.125   0.073 -0.0785 -0.3683 -0.2646
 1977W        W17786  11.341  16.515  14.012  0.2384  0.1310 -0.0306
 1978W        W17787  16.141  19.007  14.533  0.0037  0.0891  0.1496
 1979W        W17788  18.253   0.950   1.182 -0.2887  0.3421 -0.2226
 1980W        W17789   8.492   1.192  13.137 -0.2057 -0.2024 -0.1633
 1981W        W17790  12.479   2.452  11.333 -0.3475 -0.0382 -0.3097
 1982W        W17791   7.240  11.940   0.955  0.2591  0.0649 -0.2573
 1983W        W17792  11.139  14.504   3.440 -0.1185  0.1842  0.0487
 1984W        W17793  10.340  16.203  12.058 -0.1245  0.1426 -0.0310
 1985W        W17794  12.827   7.678   3.687  0.2650  0.1367  0.0019
 1986W        W17795   0.427   5.280  13.577 -0.1199 -0.3738 -0.0067
 1987W        W17796   9.711  16.893  13.026  0.1256 -0.2638  0.1956
 1988W        W17797   1.014  14.043   3.771  0.0841 -0.0160  0.2599
 1989W        W17798  12.784   1.498  14.777 -0.1232  0.1161 -0.1263
 1990W        W17799  13.155   4.339   3.707  0.0036 -0.1332 -0.0890
 1991W        W17800   7.307   7.122  15.205  0.4553 -0.1140  0.2867
 1992W        W17801  14.405   8.492  14.757 -0.1809 -0.1661 -0.0631
 1993W        W17802   8.059  12.924   4.443  0.1469  0.1224  0.0123
 1994W        W17803  14.169   0.490  12.271 -0.1400  0.0448  0.3207
 1995W        W17804  17.348  10.883   0.561 -0.0872 -0.3856  0.0891
 1996W        W17805   4.688  12.712  14.747  0.0172 -0.3691  0.1102
 1997W        W17806   5.885   9.135   3.141  0.4074  0.2875 -0.0182
 1998W        W17807  14.006   5.007   5.245 -0.1084 -0.0400 -0.1025
 1999W        W17808  11.379   1.931   2.498  0.1416  0.0264 -0.3067
 2000W        W17809  16.220   8.230  12.784  0.2227 -0.1273 -0.4494
 2001W        W17810   1.627   7.380   1.057  0.0268  0.2788  0.3438
 2002W        W17811  17.895   8.035  14.694 -0.0395  0.4123 -0.0648
 2003W        W17812   0.608   1.637  12.032  0.1246 -0.0178 -0.2348
 2004W        W17813   9.128  10.665   3.857 -0.1583  0.1673  0.1692
 2005W        W17814   5.870   9.843   2.713 -0.1417  0.3336 -0.4301
 2006W        W17815  18.962   2.552   5.142  0.2151  0.2625 -0.0545
 2007W        W17816   2.451   1.817   3.904  0.0246 -0.0045 -0.1597
 2008W        W17817  16.262  11.470   5.269  0.1989  0.2878 -0.1003
 2009W        W17818  17.535  18.631  14.980 -0.0800  0.2067 -0.0299
 2010W        W17819   7.407   8.780  14.059  0.0570 -0.3324  0.1989
 2011W        W17820  13.115  16.855  13.509  0.1435  0.1152 -0.1557
 2012W        W17821   4.013   2.691  14.601  0.1906  0.1429  0.0292
 2013W        W17822  16.508  10.888   0.225 -0.1021 -0.0247 -0.0146
 2014W        W17823   7.889  17.425  13.748  0.1936  0.3675 -0.0529
 2015W        W17824  12.829   3.600   4.660 -0.0423  0.3488  0.1592
 2016W        W17825   6.977   2.747  12.754  0.0594  0.1621 -0.1011
 2017W        W17826  18.635   9.482  14.322  0.0165 -0.0040  0.2020
 2018W        W17827   2.258  10.629  11.220 -0.4786  0.3570  0.2044
 2019W        W17828  12.610   6.902  13.235  0.0020  0.2278 -0.0181
 2020W        W17829  13.401   0.091  11.783 -0.0377 -0.1058 -0.0573
 2021W        W17830  18.826   2.681   1.014 -0.1914 -0.4476 -0.1679
 2022W        W17831  16.940  16.357  13.031 -0.1412 -0.1307  0.1430
 2023W        W17832   3.583  10.925   3.333 -0.0680  0.2072  0.1924
 2024W        W17833   8.051   0.997  13.089  0.0612 -0.0962 -0.0159
 2025W        W17834  15.705   5.604  10.375 -0.2385 -0.1799 -0.0551
 2026W        W17835  15.168   5.771   4.667 -0.1260 -0.1667 -0.1945
 2027W        W17836  13.014  18.204   2.953  0.1753  0.2606 -0.2106
 2028W        W17837  11.421   7.530   1.410 -0.1032 -0.1639  0.0842
 2029W        W17838  12.390   0.996  13.008  0.0623  0.2007  0.0111
 2030W        W17839   7.310   6.534  11.084  0.3822 -0.0881  0.0680
 2031W        W17840  13.463  16.379  14.741  0.1755 -0.3617  0.0662
 2032W        W17841  17.261  16.446   3.221 -0.1083  0.1365  0.0388
 2033W        W17842   3.255  17.705  11.069  0.0967 -0.2611 -0.1009
 2034W        W17843  16.600  15.014   1.287  0.4113 -0.0340 -0.1017
 2035W        W17844  11.290   5.795   3.868 -0.2734  0.0918  0.0431
 2036W        W17845  15.767  17.262   3.679  0.1813  0.1405  0.1057
 2037W        W17846  14.365   2.305  14.525 -0.3083  0.1664 -0.2753
 2038W        W17847   3.687  15.485   3.676 -0.0529  0.2157  0.2097
 2039W        W17848   3.859  14.311   1.973 -0.2814 -0.0140  0.4137
 2040W        W17849   8.517   1.346   1.404  0.1030  0.1166 -0.2998
 2041W        W17850  12.091  14.847   3.558  0.1501  0.0696  0.0252
 2042W        W17851   1.245   0.530   2.632  0.0557 -0.0288 -0.1014
 2043W        W17852   2.138  17.135  11.362  0.0280 -0.2854  0.0239
 2044W        W17853   1.069  13.207   1.296  0.1571  0.0272 -0.1356
 2045W        W17854  16.834   5.426   3.888  0.0818  0.0815  0.0221
 2046W        W17855   2.487  11.640  10.365 -0.0120 -0.1440  0.1551
 2047W        W17856  14.406  13.280  13.488 -0.1572 -0.2977  0.1084
 2048W        W17857   0.109   5.807  10.497  0.1933  0.2037 -0.1000
 2049W        W17858  17.529   0.452   3.464  0.1135 -0.2080 -0.4914
 2050W        W17859  15.028  13.602   4.450 -0.0047  0.3028  0.3478
 2051W        W17860   6.283   8.727   0.964  0.3875  0.0061  0.0148
 2052W        W17861  16.411   1.460   0.021  0.3683 -0.1044 -0.2993
 2053W        W17862  13.776  16.756   2.633 -0.4214  0.0934  0.0302
 2054W        W17863   3.013   4.580   0.431  0.0173  0.1090 -0.1264
 2055W        W17864  18.316   7.962  14.994 -0.1075  0.1558 -0.0962
 2056W        W17865  15.676   9.260  13.333  0.0374 -0.0907  0.0449
 2057W        W17866   5.050   5.740   0.755 -0.2577  0.0069 -0.1568
 2058W        W17867  17.332   4.765   2.215 -0.0634 -0.0845 -0.1154
 2059W        W17868   7.621   4.363   5.008  0.2759 -0.2689  0.2009
 2060W        W17869  19.105   6.765   4.794 -0.2655 -0.2664 -0.1963
 2061W        W17870  15.653  10.025  14.229 -0.3488  0.4785 -0.0052
 2062W        W17871  18.654  10.093   3.207  0.1587 -0.0281 -0.3822
 2063W        W17872   9.210  13.810   2.418  0.0941  0.0701  0.1958
 2064W        W17873  15.062   2.475  12.660 -0.0201 -0.2359 -0.2751
 2065W        W17874   3.496  14.143   0.868 -0.3006 -0.2400  0.1069
 2066W        W17875   8.237   9.090  11.292  0.1527 -0.2047  0.2420
 2067W        W17876  11.208   3.103  14.731 -0.0649  0.4192 -0.1115
 2068W        W17877   9.438  16.807   5.449 -0.1258 -0.0739 -0.2644
 2069W        W17878  17.568  11.897  14.639  0.2803  0.2069 -0.1400
 2070W        W17879   2.058  16.940   5.209 -0.0392 -0.2177  0.0211
 2071W        W17880   9.550  14.982  11.877  0.3470 -0.1269 -0.3166
 2072W        W17881  15.766   4.246  12.966  0.2992 -0.1692 -0.0979
 2073W        W17882  10.098   6.585  10.858 -0.0003  0.2693  0.3364
 2074W        W17883   2.185  13.376   3.049  0.3290 -0.1378  0.1774
 2075W        W17884   3.151  12.535  13.102 -0.1337 -0.1009  0.1321
 2076W        W17885  18.303  14.039   3.520 -0.1315  0.0967  0.3705
 2077W        W17886   3.660   2.594   4.016  0.0610  0.0811 -0.5083
 2078W        W17887   7.043   0.513  14.108 -0.2549 -0.2185  0.0993
 2079W        W17888   1.201  17.128   0.346 -0.0194 -0.1194 -0.2825
 2080W        W17889   8.587   8.072  10.894  0.3826 -0.1685  0.2592
 2081W        W17890  17.725   5.595   4.348  0.1473  0.0331  0.2763
 2082W        W17891  12.201  12.106   3.175 -0.1750  0.0034 -0.0956
 2083W        W17892  15.220  16.317   0.616  0.2618  0.0220 -0.0553
 2084W        W17893  16.978   5.895   1.622  0.0184 -0.0653 -0.5031
 2085W        W17894   1.768  12.731  13.906  0.0233 -0.1526 -0.1274
 2086W        W17895   1.424  14.530   1.931 -0.0353 -0.2053 -0.0487
 2087W        W17896   9.483   6.160   0.484 -0.0497 -0.4333 -0.0349
 2088W        W17897   8.268  13.090   3.835  0.2149  0.0174 -0.0833
 2089W        W17898   1.747  17.729  14.128 -0.0725 -0.0487 -0.2933
 2090W        W17899  14.695  11.452   5.907 -0.4880 -0.0586  0.0207
 2091W        W17900   5.307  17.024   4.730 -0.3429 -0.1740 -0.0019
 2092W        W17901  17.483   7.724   0.307  0.1488  0.0503 -0.0624
 2093W        W17902   6.770   3.490  13.882 -0.0846  0.0415 -0.0757
 2094W        W17903   7.724   9.566  13.555 -0.0668 -0.0541 -0.1851
 2095W        W17904   3.838  15.689   2.238  0.0863 -0.0087 -0.0991
 2096W        W17905   0.669   9.616   3.999  0.1536 -0.0571 -0.0571
 2097W        W17906   8.055  18.078   2.890 -0.0538  0.2554  0.0093
 2098W        W17907   1.132   2.655   4.931 -0.4147  0.0906 -0.0502
 2099W        W17908  11.658  12.199   3.153  0.2390 -0.2308  0.2637
 2100W        W17909   6.195  18.314   4.565  0.0515  0.0465 -0.1702
 2101W        W17910  15.569   6.785   4.756  0.0305  0.2186 -0.0167
 2102W        W17911   4.199  17.971  10.333 -0.0370  0.2726 -0.1526
 2103W        W17912  13.460   4.817  13.706  0.1079 -0.1368  0.0484
 2104W        W17913  11.978   9.733   3.745 -0.1850  0.2410  0.3040
 2105W        W17914  15.235   1.319  12.555  0.1076 -0.1412  0.1967
 2106W        W17915  15.536   1.083   3.776  0.0904 -0.1762  0.3114
 2107W        W17916  15.204   6.278   5.144  0.1530 -0.1566  0.3018
 2108W        W17917   1.626   6.057   3.441 -0.0352 -0.0385 -0.2102
 2109W        W17918  15.494  11.602  11.936 -0.0438  0.3190 -0.0775
 2110W        W17919   1.747  18.703   4.606  0.1442 -0.1792  0.1695
 2111W        W17920   9.649  12.092  11.223 -0.2375  0.3360 -0.3660
 2112W        W17921  19.147  12.755   0.214  0.2697  0.0984  0.0942
 2113W        W17922  12.443   4.619  13.398 -0.1399  0.2461 -0.1760
 2114W        W17923  10.707   1.551  13.769 -0.1219 -0.0758  0.0907
 2115W        W17924  15.792  10.804   3.960 -0.0792  0.2368  0.2855
 2116W        W17925   7.243   0.641   5.526 -0.0541  0.1354  0.2256
 2117W        W17926   1.827   6.105   1.107  0.1410 -0.1243  0.1364
 2118W        W17927   1.979   9.306   0.084  0.0253  0.0984 -0.1962
 2119W        W17928   6.111  10.460   1.580 -0.0947  0.1232  0.0918
 2120W        W17929  10.116   4.037   0.607 -0.0714  0.0779 -0.1509
 2121W        W17930  10.716  18.011  14.611  0.0396  0.0270 -0.1314
 2122W        W17931  14.278  13.754  11.389  0.0544 -0.3258 -0.0233
 2123W        W17932   3.440   7.306   1.853  0.0034 -0.0273 -0.0915
 2124W        W17933   0.742  12.229  11.731  0.2479  0.0403  0.2581
 2125W        W17934   9.349  13.557   2.864  0.1763  0.1377 -0.0370
 2126W        W17935   2.588  14.730  14.101  0.0979 -0.0161  0.2817
 2127W        W17936   4.021   0.949   0.125  0.0183 -0.1254 -0.1896
 2128W        W17937   9.008  17.785   1.418 -0.1408 -0.3756  0.2042
 2129W        W17938   2.803  19.067  14.758  0.0681  0.0013  0.1785
 2130W        W17939   3.458   6.000   4.170  0.0925  0.3164  0.1063
 2131W        W17940  17.164   0.101   2.110  0.1714  0.1758  0.0977
 2132W        W17941  11.048   0.123  11.035  0.1392  0.2709 -0.0526
 2133W        W17942   1.921  16.480  13.341 -0.0131  0.2856  0.4168
 2134W        W17943   0.374   2.127  14.055  0.1910 -0.0698  0.2609
 2135W        W17944   6.340  11.991  12.542  0.1239  0.2503 -0.1332
 2136W        W17945  15.587   5.315   1.085 -0.0662  0.1031  0.1037
 2137W        W17946   0.123   7.261   2.957 -0.2710 -0.2311  0.2096
 2138W        W17947   4.249  11.508  10.860  0.1042  0.0117  0.1630
 2139W        W17948  17.981  15.627  13.203  0.2337  0.0150  0.0080
 2140W        W17949   8.270   2.739  11.893  0.6221  0.0929 -0.0193
 2141W        W17950  15.866  12.805  13.561  0.1776 -0.1669  0.0370
 2142W        W17951   1.525  11.071   0.370  0.2490  0.0032  0.0030
 2143W        W17952   0.788   4.223   3.537 -0.0432  0.1709 -0.0374
 2144W        W17953  17.464  17.936   1.351 -0.1625 -0.1105 -0.5981
 2145W        W17954   8.229  11.835   3.246 -0.4675 -0.0423 -0.1908
 2146W        W17955   6.147   5.961   3.225  0.1347  0.1593  0.0971
 2147W        W17956   5.353  13.485  13.422 -0.0311  0.1516 -0.2711
 2148W        W17957  13.175   7.467   2.303  0.2445  0.0482  0.5492
 2149W        W17958   7.668   6.999  14.118  0.2192  0.1608  0.2311
 2150W        W17959   8.576   4.910   3.681 -0.0634 -0.0108  0.2551
 2151W        W17960  13.239   9.584   2.588  0.0631  0.1855  0.0788
 2152W        W17961   8.154   9.351  14.958 -0.1433  0.2368  0.1686
 2153W        W17962   7.208   2.636  14.641  0.1004  0.0782  0.2032
 2154W        W17963   7.504  11.524   4.002 -0.1174 -0.0037 -0.1826
 2155W        W17964  15.245  14.979  15.012 -0.3017  0.1873 -0.0797
 2156W        W17965   8.421   3.942   3.198  0.0750  0.0325  0.4257
 2157W        W17966   0.647   2.761   1.919 -0.0354 -0.1534  0.0771
 2158W        W17967  13.004  17.180   2.356  0.1658 -0.0173 -0.0959
 2159W        W17968  10.410  19.082   1.740 -0.0475 -0.2677 -0.1641
 2160W        W17969   9.926   8.498  11.364 -0.0128 -0.0939  0.2658
 2161W        W17970   5.740   2.321   4.226 -0.0589 -0.1028 -0.1994
 2162W        W17971  13.282   2.677   2.341 -0.1848 -0.1117  0.1015
 2163W        W17972   0.582  14.497   3.143 -0.0287 -0.0510  0.1668
 2164W        W17973  14.708  16.960   0.203  0.1402 -0.0218  0.3109
 2165W        W17974   9.264   0.273  13.454 -0.0702 -0.1531 -0.1369
 2166W        W17975  11.632  18.417  12.674  0.1145 -0.2106 -0.0728
 2167W        W17976  16.089   5.726   4.505 -0.1838  0.3607  0.4232
 2168W        W17977   6.658  13.892  14.063  0.3703 -0.2392  0.0431
 2169W        W17978   3.640  17.298  12.559  0.1674  0.0302  0.2827
 2170W        W17979   7.971  13.781   0.869  0.2897  0.2193  0.0047
 2171W        W17980  19.141  11.004   3.063 -0.0269 -0.1627  0.0474
 2172W        W17981   4.085  15.373   9.629  0.0335 -0.0188  0.2586
 2173W        W17982   6.788  17.036  10.610 -0.2228 -0.0588  0.1014
 2174W        W17983   3.176   1.046  15.195  0.3022 -0.3244 -0.5633
 2175W        W17984  15.548  11.696  11.383  0.0611 -0.2467 -0.0080
 2176W        W17985   6.515   7.735   3.975 -0.0499  0.2588 -0.0697
 2177W        W17986  16.593  17.462   0.754 -0.2371 -0.0649 -0.0926
 2178W        W17987   6.732  13.172  12.926 -0.1892  0.1499  0.1041
 2179W        W17988  14.947  13.558   5.308 -0.0485 -0.0421 -0.3326
 2180W        W17989  14.673   0.836   3.297  0.2260 -0.2999  0.0031
 2181W        W17990   3.721  18.732  14.031 -0.1224 -0.2320 -0.4375
 2182W        W17991  14.244   4.598   1.078 -0.3368 -0.1994 -0.0043
 2183W        W17992  11.672  13.524   3.448  0.2322 -0.0314  0.1315
 2184W        W17993   7.130   4.864  11.292  0.2369  0.2375  0.3432
 2185W        W17994   1.344   7.943  10.724 -0.1099  0.0257 -0.3705
 2186W        W17995   1.106   8.947   1.448  0.0325 -0.1727  0.0248
 2187W        W17996  10.093   9.070  10.208 -0.1098 -0.1750  0.0021
 2188W        W17997   3.797   7.113   2.903  0.0160  0.2525  0.1224
 2189W        W17998  12.620   2.245  10.647  0.0298 -0.1552 -0.0045
 2190W        W17999   4.372   0.530  10.902  0.0890  0.2160  0.0919
 2191W        W18000  15.117   7.570   0.426 -0.0151  0.1084 -0.2845
 2192W        W18001   4.334  10.299   0.826 -0.0028 -0.0910  0.1851
 2193W        W18002  16.868   7.980  13.671 -0.1195  0.3565 -0.2110
 2194W        W18003  14.733   7.629  11.361 -0.2416  0.0855 -0.2166
 2195W        W18004   7.809  12.135  13.558  0.1502 -0.1021 -0.0881
 2196W        W18005  14.614   8.467   1.275  0.1215 -0.1940  0.0825
 2197W        W18006  15.622   7.434  10.427 -0.1343 -0.0470  0.0899
 2198W        W18007  11.888   5.286  10.719 -0.0108  0.1468 -0.2200
 2199W        W18008  10.640  12.040   1.396 -0.0820 -0.0283  0.0523
 2200W        W18009  15.272  14.087  14.308 -0.0696 -0.2415 -0.2481
 2201W        W18010  18.719  19.077  11.102 -0.1712 -0.0587  0.0898
 2202W        W18011  18.859  10.957   9.204  0.0657 -0.2057  0.1288
 2203W        W18012   7.012   7.240  11.041 -0.0352 -0.1168  0.0538
 2204W        W18013  11.066   7.513  10.358  0.1167 -0.1115 -0.0991
 2205W        W18014   0.871   8.711   0.217 -0.0518 -0.2168 -0.2923
 2206W        W18015  12.796  17.679   4.802 -0.1659  0.0513 -0.3683
 2207W        W18016   2.277   7.396   1.593  0.0941  0.2308  0.3435
 2208W        W18017   8.997   0.255   3.235  0.1238 -0.2044  0.2030
 2209W        W18018  11.358  16.494   1.018  0.0133  0.1454  0.2207
 2210W        W18019   3.642  13.093  10.526 -0.1484  0.0549  0.1130
 2211W        W18020   0.573   5.211  10.545 -0.0250  0.2714  0.1242
 2212W        W18021   7.088  11.797   3.686  0.1981 -0.0747  0.1098
 2213W        W18022  12.394  12.471   1.137 -0.0915 -0.0767 -0.1439
 2214W        W18023   8.397  13.053  13.866  0.2069 -0.0606  0.2185
 2215W        W18024  11.418  16.063   2.281 -0.0358 -0.1305 -0.1479
 2216W        W18025  11.486   6.036  12.918  0.0551 -0.0935 -0.2310
 2217W        W18026   0.353  17.684   4.585  0.4351 -0.0290  0.1662
 2218W        W18027   4.610  11.865  14.404 -0.0480 -0.1327  0.0951
 2219W        W18028  12.689   2.349  13.149 -0.3696 -0.0233 -0.2824
 2220W        W18029  18.956   1.069   1.944  0.4063  0.0195  0.0605
 2221W        W18030  13.687  10.914   1.862  0.1024  0.0413 -0.1028
 2222W        W18031  16.252   9.969   4.289 -0.3028  0.0376  0.1082
 2223W        W18032   0.068   0.737   3.214  0.0590  0.3355 -0.0506
 2224W        W18033  16.545  12.845   1.910  0.0151  0.2318  0.2851
 2225W        W18034   8.355   8.869   1.575  0.0422 -0.2463 -0.0298
 2226W        W18035  17.055   5.367  10.833  0.0625  0.0082 -0.0907
 2227W        W18036   9.235  18.511  14.934  0.1364  0.0531  0.1303
 2228W        W18037   2.103  17.683   1.902 -0.4021 -0.3145  0.2811
 2229W        W18038  12.901  13.476   5.276 -0.0660  0.0712 -0.1082
 2230W        W18039   6.083  18.975  14.953 -0.5009  0.1569  0.0719
 2231W        W18040   2.642   8.412  15.063  0.2268  0.2486  0.1695
 2232W        W18041   9.711   9.290   0.111  0.0765 -0.0966  0.0001
 2233W        W18042  11.957   2.218  12.799  0.1165  0.1193 -0.1844
 2234W        W18043   2.132   3.142   5.106  0.0835  0.5055  0.2697
 2235W        W18044  13.097   5.117   3.089 -0.2286 -0.4691  0.0335
 2236W        W18045   2.337   5.073  11.574 -0.1188 -0.1788  0.0152
 2237W        W18046   6.608   2.881   1.318 -0.4207 -0.3942 -0.5059
 2238W        W18047  15.973  12.278  13.334  0.3660  0.0549  0.1197
 2239W        W18048  10.472  17.655  10.633  0.0796  0.5219  0.1679
 2240W        W18049   0.047  15.285   2.949  0.3772  0.1326 -0.1701
 2241W        W18050   1.700   2.423  11.597  0.0115  0.0658  0.0748
 2242W        W18051   5.402   6.033  10.588  0.1815 -0.0198  0.0755
 2243W        W18052   6.258  10.036   1.063  0.4089 -0.1589 -0.0739
 2244W        W18053   6.532  17.948   3.966  0.1048 -0.2335  0.2095
 2245W        W18054  13.796   9.163  12.635  0.0321  0.0866  0.0357
 2246W        W18055  13.617  11.011  11.432 -0.0165  0.0024  0.1955
 2247W        W18056   0.142   9.414  11.921  0.2928 -0.2060  0.0967
 2248W        W18057   4.960  11.333   3.418  0.0440 -0.0949 -0.0108
 2249W        W18058  16.488   1.044   0.736  0.1115 -0.1196 -0.4102
 2250W        W18059   1.630  11.010  12.750 -0.1978  0.1091  0.2390
 2251W        W18060   2.143   8.094  12.703 -0.1062  0.0351 -0.1921
 2252W        W18061  11.930   4.138  14.151  0.4418  0.0698  0.0228
 2253W        W18062   9.618  17.985  10.818  0.2416  0.1110  0.1736
 2254W        W18063   2.515   3.914   2.375  0.0912 -0.2814 -0.1088
 2255W        W18064  15.108  18.230   0.856  0.1960  0.2524  0.3787
 2256W        W18065  16.831   7.546  11.576  0.2675  0.3788  0.0286
 2257W        W18066   0.612   0.581   0.612  0.0962  0.1724 -0.0974
 2258W        W18067   0.306   5.524  12.305  0.0657  0.1456  0.0784
 2259W        W18068  13.279  17.013   4.693  0.1108  0.1636  0.0684
 2260W        W18069   9.388   6.972  14.567  0.0158 -0.1757  0.1140
 2261W        W18070   6.446  11.228  10.373 -0.1285 -0.0289  0.2535
 2262W        W18071  10.728  13.052  10.320  0.1213 -0.0130  0.0525
 2263W        W18072   9.177   2.346   3.193 -0.4666 -0.1320 -0.2342
 2264W        W18073   0.742  14.261  15.010 -0.0848  0.0102  0.0676
 2265W        W18074   1.819   7.082   0.031 -0.2304 -0.1894  0.0518
 2266W        W18075   8.523   4.554   0.699 -0.1842  0.2085 -0.0284
 2267W        W18076   0.759  12.363   2.380 -0.0736  0.5841  0.0989
 2268W        W18077   3.973  10.754   4.735  0.1323 -0.0690  0.2482
 2269W        W18078  14.538   4.387  14.734 -0.2949 -0.2917 -0.1977
 2270W        W18079  16.732   9.301   4.609  0.2915 -0.3613  0.2237
 2271W        W18080  17.991   7.337   0.073 -0.0415 -0.1571  0.4216
 2272W        W18081  15.633  16.360   4.407 -0.2741 -0.0699 -0.2432
 2273W        W18082   3.979   3.708   3.517  0.1956 -0.0574  0.1043
 2274W        W18083   5.818   9.304  10.011  0.1075 -0.0558 -0.2577
 2275W        W18084  12.811   3.730   2.914 -0.0924 -0.0274 -0.1703
 2276W        W18085   1.686  15.973   9.200 -0.0555 -0.1934  0.0197
 2277W        W18086  11.894   2.867   1.425 -0.0366 -0.1660  0.0045
 2278W        W18087  12.884   3.453  10.680  0.3774  0.1664  0.0508
 2279W        W18088  16.643  16.340   0.717 -0.2043 -0.0309  0.4840
 2280W        W18089   0.156  13.038  11.829  0.0575  0.0649  0.0834
 2281W        W18090  18.960   8.959   4.899 -0.0369  0.0644  0.0037
 2282W        W18091  14.023   1.155   5.352 -0.2954 -0.1262 -0.0084
 2283W        W18092   5.005   4.424   3.789 -0.3281 -0.3371 -0.0342
 2284W        W18093  17.525   6.940  10.995 -0.1059  0.1756 -0.0568
 2285W        W18094  18.912   7.948  11.527  0.0826  0.3302  0.2916
 2286W        W18095  18.188   9.625  10.598  0.4583 -0.2963 -0.1783
 2287W        W18096  10.236  11.988   0.107  0.0311 -0.3755 -0.1071
 2288W        W18097   7.852   2.423  13.154  0.2983 -0.1123 -0.1570
 2289W        W18098   5.220  16.036   2.176  0.4052  0.0228 -0.1010
 2290W        W18099   4.702   8.834   3.995 -0.3272  0.0126  0.0538
 2291W        W18100   3.513  15.115  12.418  0.0933  0.1712  0.0341
 2292W        W18101  18.957   4.372  14.929  0.1421  0.1772 -0.0509
 2293W        W18102   7.685  17.316   1.975 -0.0290 -0.0328  0.0391
 2294W        W18103  15.366   7.360   4.175 -0.2785 -0.2246  0.1760
 2295W        W18104   1.783   1.755  12.751  0.0208 -0.1632  0.1435
 2296W        W18105  13.604  15.368   0.898 -0.2463  0.1464 -0.2979
 2297W        W18106   8.773   2.691  12.210  0.0171 -0.0200  0.1100
 2298W        W18107   4.858  14.585   3.057 -0.1234  0.4773 -0.0469
 2299W        W18108  13.325   7.693  14.872  0.1764  0.0491 -0.0625
 2300W        W18109   4.660   2.894   0.666  0.0187 -0.3500  0.1488
 2301W        W18110   8.789  16.544  12.498 -0.1691  0.2700 -0.1480
 2302W        W18111   3.544   8.272   3.825  0.1309 -0.0410 -0.0106
 2303W        W18112   2.098  11.886  12.762 -0.2356  0.1748 -0.0055
 2304W        W18113  12.927   5.518   0.271  0.4045 -0.2974  0.3078
 2305W        W18114  10.623   9.205   3.113 -0.1963 -0.0159  0.2091
 2306W        W18115   9.597  14.590  14.171  0.0537  0.2941  0.0395
 2307W        W18116  13.906  12.337  14.468 -0.1669 -0.1889 -0.0254
 2308W        W18117  11.842   4.675  14.246  0.1338 -0.1701  0.0963
 2309W        W18118   5.864  15.295  11.272 -0.1291 -0.1192  0.2363
 2310W        W18119  12.004   8.328   2.409  0.0079 -0.2279  0.0636
 2311W        W18120   4.791  11.055  12.405 -0.1534  0.0851 -0.1329
 2312W        W18121   4.947   4.327   3.280  0.2005  0.2137 -0.0498
 2313W        W18122  10.804  11.157  14.148  0.1428  0.0663 -0.0758
 2314W        W18123  19.108  11.123   0.039  0.0951 -0.3009 -0.1482
 2315W        W18124   3.991  12.564  13.262  0.2851  0.2273 -0.1624
 2316W        W18125   8.003   1.905  12.406  0.1423  0.0176  0.1668
 2317W        W18126  14.686  17.164   1.905  0.4806 -0.2489 -0.1506
 2318W        W18127  10.084   9.811   0.182  0.4303  0.1888  0.2852
 2319W        W18128  17.089  17.804  13.211  0.0625 -0.1089 -0.3567
 2320W        W18129  16.035  14.619   0.777 -0.1902  0.0439 -0.2443
 2321W        W18130  15.609  10.815   2.287 -0.2279 -0.1520 -0.1280
 2322W        W18131  14.909   2.029   1.753 -0.0663  0.0486  0.1265
 2323W        W18132  13.589  11.422   2.494 -0.4521 -0.0479  0.2158
 2324W        W18133   8.423   1.920   2.590  0.1915 -0.1408 -0.0407
 2325W        W18134   4.786  15.009  14.361 -0.1659  0.1665  0.0561
 2326W        W18135  16.008   2.030  12.730 -0.1912 -0.2807 -0.2337
 2327W        W18136  13.143  16.090  13.051 -0.0866 -0.0936  0.0380
 2328W        W18137   4.671  15.177  10.450  0.0547  0.1543  0.0721
 2329W        W18138   0.661  11.181  10.070 -0.1653  0.3621 -0.2297
 2330W        W18139  17.522  17.845  13.858  0.1236 -0.3255 -0.1117
 2331W        W18140  18.831   3.757   3.865  0.0311 -0.5509 -0.1920
 2332W        W18141  10.168   7.513  13.033 -0.0463 -0.1180 -0.0660
 2333W        W18142  17.365  17.421   1.309 -0.0955  0.1657  0.0473
 2334W        W18143  18.241  14.576   4.912  0.0219 -0.1674 -0.1286
 2335W        W18144   8.403   5.332  12.907 -0.0775  0.0096  0.0094
 2336W        W18145   0.054   3.507  11.396 -0.2140  0.1360  0.0553
 2337W        W18146   9.052   5.975   1.734  0.2851  0.0583  0.1245
 2338W        W18147   8.985   2.312   3.643 -0.4581 -0.1735 -0.4066
 2339W        W18148   5.908  11.627  12.843  0.0146 -0.3538  0.0172
 2340W        W18149   5.075  10.820  10.803 -0.0781 -0.2800  0.2077
 2341W        W18150  10.690   8.924  13.885 -0.1567 -0.2546 -0.0782
 2342W        W18151   0.466   7.380  10.772  0.4769  0.1483  0.3504
 2343W        W18152  10.987  13.536   0.649 -0.2468  0.1328 -0.4196
 2344W        W18153  14.380  14.568   6.372 -0.1648 -0.2079 -0.1379
 2345W        W18154   9.555  14.109   5.592 -0.0040  0.0258  0.5259
 2346W        W18155  10.517  11.934  14.439 -0.2350  0.2987 -0.0587
 2347W        W18156   9.121   4.095   1.229  0.4840  0.1310 -0.0294
 2348W        W18157  16.827  16.093  10.974 -0.0015 -0.2497 -0.4076
 2349W        W18158   6.853   8.972   3.407  0.2238 -0.2098  0.1053
 2350W        W18159   1.706   0.289   4.025 -0.1897  0.0004 -0.2037
 2351W        W18160   4.630  13.641   1.450 -0.5204  0.1882  0.2760
 2352W        W18161  11.671  10.820  12.464 -0.1593  0.1385 -0.1080
 2353W        W18162  10.711  15.303   5.204  0.1660 -0.1820  0.2358
 2354W        W18163  13.875   9.247   3.976 -0.2989 -0.3454 -0.1949
 2355W        W18164   9.521  14.606   5.355  0.1647 -0.1576 -0.0779
 2356W        W18165  14.095  10.915   5.542  0.0567 -0.2037 -0.3550
 2357W        W18166   7.723  17.591   3.711  0.2804  0.4290 -0.1656
 2358W        W18167   4.100  18.590  14.825  0.1103 -0.2035  0.1686
 2359W        W18168   6.952   5.726  12.756 -0.2096 -0.3183  0.3150
 2360W        W18169  18.953   4.340  12.587  0.0864 -0.1111 -0.0061
 2361W        W18170   5.066  16.980  13.909 -0.2728 -0.1012  0.0507
 2362W        W18171   1.613   3.228  13.061  0.4358  0.0071  0.1558
 2363W        W18172   0.123  11.833   4.415  0.2292  0.1436 -0.2442
 2364W        W18173   5.042  18.067   3.130  0.0387 -0.2666  0.4861
 2365W        W18174  19.088   3.245  11.817 -0.3521  0.1826 -0.0050
 2366W        W18175  10.079   0.410   1.873 -0.0168  0.1719  0.3945
 2367W        W18176  12.567  17.058  14.895  0.3825  0.0479  0.0679
 2368W        W18177  18.869  12.046  10.271  0.0833 -0.1073  0.2136
 2369W        W18178  14.378  14.519  12.665  0.3479 -0.1514 -0.0842
 2370W        W18179   4.473  11.250   4.734 -0.0735  0.3483  0.0545
 2371W        W18180   7.463   7.514   4.259  0.0370  0.3955  0.0914
 2372W        W18181  10.760  18.466  11.714 -0.0371  0.2283 -0.0749
 2373W        W18182  11.771  11.521  10.699 -0.0316 -0.1270 -0.1451
 2374W        W18183   9.436   6.944  13.680 -0.3489  0.4557 -0.2050
 2375W        W18184   7.677  10.904   0.571  0.1342  0.0708 -0.3834
 2376W        W18185  10.731   0.825  12.221 -0.1187 -0.2975  0.2305
 2377W        W18186   1.309   9.277  10.077 -0.0150 -0.0155 -0.1762
 2378W        W18187  16.319   7.673   5.018  0.2692  0.2475  0.2756
 2379W        W18188  17.724   5.067   0.552  0.2370  0.0324 -0.2481
 2380W        W18189  12.298  16.816  11.017  0.0380 -0.3627 -0.1893
 2381W        W18190  15.106  18.952   2.313 -0.1715  0.0512 -0.0319
 2382W        W18191  12.736   3.149   0.928 -0.0391 -0.0138  0.0791
 2383W        W18192  14.609  12.383   3.362 -0.0854  0.0489 -0.0719
 2384W        W18193  12.452   4.100   1.612  0.0164 -0.0794 -0.4897
 2385W        W18194  18.042  14.377   1.079 -0.2551  0.1151 -0.1905
 2386W        W18195   0.385  17.795   1.760  0.1947  0.5966 -0.0844
 2387W        W18196   2.663  13.432  11.207 -0.0668 -0.1518  0.0787
 2388W        W18197   6.706   6.506   3.743  0.2556 -0.1545  0.2740
 2389W        W18198   3.003   9.318   1.690  0.0806 -0.1047 -0.0100
 2390W        W18199  18.245   8.906  14.949  0.0360  0.1568  0.3963
 2391W        W18200  13.565  17.446   0.757  0.0242 -0.1923 -0.1129
 2392W        W18201  16.658   6.662   1.554  0.0171  0.1868 -0.2290
 2393W        W18202  14.656   5.490   1.254 -0.0215 -0.3917  0.2471
 2394W        W18203   2.831   8.994   0.689 -0.0558 -0.0226 -0.2453
 2395W        W18204   3.034  18.178  12.394 -0.1560  0.2202 -0.0974
 2396W        W18205   1.915  13.064  12.521  0.1422  0.2211 -0.1270
 2397W        W18206   7.837   7.609   0.201  0.0641 -0.0309 -0.0193
 2398W        W18207   9.186   5.290  11.278 -0.0682 -0.1363  0.3900
 2399W        W18208   7.866   4.440  11.821 -0.2050  0.3623  0.0600
 2400W        W18209   1.562   4.855  11.466 -0.2353 -0.1089  0.2981
 2401W        W18210  10.918   3.844  14.044 -0.3462  0.1474 -0.0054
 2402W        W18211   0.730  14.068   2.874 -0.0665  0.0242  0.1728
 2403W        W18212  11.446   0.048   2.101 -0.2389 -0.1788  0.2324
 2404W        W18213  14.992   2.974  13.525  0.3623 -0.0689 -0.1626
 2405W        W18214  16.647  12.283  15.110 -0.0551 -0.0756  0.3029
 2406W        W18215   4.649  15.463  12.956  0.2716  0.0066 -0.3341
 2407W        W18216   1.376   0.230   3.551 -0.1320 -0.0460  0.0543
 2408W        W18217  13.681   9.336   9.380 -0.0149  0.1423  0.0474
 2409W        W18218   8.022  14.826   3.082 -0.0091 -0.1518  0.0424
 2410W        W18219  13.989   4.105  11.926  0.0581  0.2817 -0.2445
 2411W        W18220   8.864  12.675  14.940  0.0828 -0.1105  0.0370
 2412W        W18221  14.832   1.014   0.869 -0.3831 -0.1670  0.2626
 2413W        W18222  13.371  13.822   0.781  0.6803 -0.0481  0.0434
 2414W        W18223  12.817   8.493  13.208  0.1641 -0.1641 -0.0298
 2415W        W18224   0.974   7.619   1.768  0.4706  0.1123 -0.1077
 2416W        W18225  15.621  12.876  14.238 -0.2964  0.1884 -0.1052
 2417W        W18226  17.624   8.330  13.269 -0.0758 -0.2038 -0.2865
 2418W        W18227  18.595   8.709   3.618  0.1773 -0.0349  0.3069
 2419W        W18228   8.219   8.105   0.975  0.1397 -0.0355  0.4644
 2420W        W18229   3.932  16.721   3.258 -0.3085  0.1448  0.0888
 2421W        W18230   7.316   7.213   1.444  0.2342 -0.2341  0.0604
 2422W        W18231   2.470  18.181  13.236  0.1181 -0.1627 -0.0371
 2423W        W18232   5.859  10.942   1.143  0.3658  0.0336 -0.3900
 2424W        W18233   2.242   9.406  11.223  0.1276 -0.0711  0.1571
 2425W        W18234  13.804  12.122   0.636  0.0176 -0.1555  0.2666
 2426W        W18235   3.839  17.014   2.395  0.0149 -0.0376 -0.1115
 2427W        W18236  15.183  12.022  11.135 -0.2379  0.1666  0.0561
 2428W        W18237  12.492  18.356   1.539 -0.1993  0.0361 -0.2038
 2429W        W18238  14.177   5.281   1.083 -0.2564  0.0474 -0.1199
 2430W        W18239  14.728   2.166   5.959 -0.4164  0.0020  0.0102
 2431W        W18240  13.798  14.253   3.605 -0.1410 -0.2852  0.1372
 2432W        W18241  11.440   9.295   4.503 -0.0655 -0.1614 -0.1383
 2433W        W18242  17.988   1.210  12.090  0.0584 -0.5391  0.0004
 2434W        W18243   3.209  11.511  12.079 -0.1108  0.3201  0.0946
 2435W        W18244   5.151   1.055   4.002  0.1377  0.4219  0.0419
 2436W        W18245   7.347  13.887  13.334 -0.2559 -0.2932 -0.1358
 2437W        W18246  16.713  11.686  13.984 -0.3475  0.1974  0.3138
 2438W        W18247   7.352  17.509  13.743  0.1236 -0.0868 -0.1132
 2439W        W18248  13.262   2.822  15.169 -0.2171  0.0393 -0.2390
 2440W        W18249  12.072   8.388   3.938 -0.0599  0.0016  0.0229
 2441W        W18250   2.520   8.250  13.692 -0.2514  0.0699 -0.2434
 2442W        W18251   6.323  18.834  10.991  0.2520 -0.4692 -0.2472
 2443W        W18252   3.228   9.594  14.517  0.0152 -0.1279 -0.1232
 2444W        W18253  15.692  14.596  12.019 -0.0030 -0.1444 -0.0109
 2445W        W18254  12.824  17.367   0.237  0.1489  0.2887 -0.4701
 2446W        W18255   5.686  16.340  11.353  0.1229 -0.1051  0.0459
 2447W        W18256   3.718   7.283   0.140 -0.1382  0.1814  0.0248
 2448W        W18257   2.115   4.216   0.084 -0.1828  0.0215  0.0802
 2449W        W18258  16.943  17.887   2.115 -0.0014  0.2083 -0.0750
 2450W        W18259  11.448   5.309   2.984  0.3235  0.4143 -0.2021
 2451W        W18260  14.228   0.731  15.126 -0.4007 -0.0903 -0.0827
 2452W        W18261   3.305   8.229   9.345  0.1221 -0.2430 -0.5383
 2453W        W18262   1.742   8.627   9.707  0.0340 -0.4437 -0.0357
 2454W        W18263   4.479  11.991   4.257 -0.3084 -0.2135 -0.0902
 2455W        W18264   2.210   2.490  10.676 -0.2156  0.3666  0.1486
 2456W        W18265   5.645   5.015  11.856  0.1526  0.1126  0.0814
 2457W        W18266   6.306  11.423   3.185 -0.0372  0.0063 -0.0380
 2458W        W18267  11.456   3.157   0.363 -0.1897  0.0158  0.3394
 2459W        W18268   0.219  17.942  13.880  0.1955  0.2857 -0.2176
 2460W        W18269   1.129  15.283   3.240  0.1264 -0.2165 -0.0911
 2461W        W18270  15.380  15.207   5.293  0.0899  0.2231  0.2144
 2462W        W18271   1.197   4.042   2.329 -0.0240  0.1974 -0.0191
 2463W        W18272  17.912  12.855  11.427 -0.0103  0.3138  0.1731
 2464W        W18273  10.651  12.045  10.169 -0.0527 -0.0823  0.1840
 2465W        W18274  19.143  14.431   3.200  0.1195  0.0128  0.1445
 2466W        W18275  18.974   0.549  14.926  0.1755  0.2799  0.1244
 2467W        W18276   3.979   4.684   0.307 -0.0758  0.0081 -0.0176
 2468W        W18277   8.376  18.842   1.921 -0.1359  0.0227 -0.0581
 2469W        W18278  11.818  12.717   4.344 -0.4226 -0.2587 -0.0772
 2470W        W18279  14.118  11.450  14.151  0.0606 -0.0960  0.1808
 2471W        W18280   3.579   8.096  10.653  0.2423 -0.0337  0.0783
 2472W        W18281  13.604  17.410   1.966 -0.1950  0.0450  0.2288
 2473W        W18282  12.602   3.317   2.627  0.1398  0.0875  0.2097
 2474W        W18283   8.614  16.898   3.458 -0.0243  0.2416  0.2284
 2475W        W18284  15.342   8.666  11.937 -0.0262 -0.1551  0.0293
 2476W        W18285  14.377   3.347   3.983 -0.1444  0.1898  0.0171
 2477W        W18286  15.910  14.911  14.144  0.0566 -0.0830 -0.0448
 2478W        W18287  16.129   5.340   3.351  0.0112 -0.0550  0.3672
 2479W        W18288  17.941  11.521  14.480  0.0936  0.3304 -0.0535
 2480W        W18289  15.975   7.252   3.070 -0.2563 -0.0713  0.1674
 2481W        W18290   6.568  11.485  14.508 -0.1618  0.1587  0.0644
 2482W        W18291  15.622   1.699   1.344 -0.2017 -0.1065 -0.0750
 2483W        W18292  17.178  10.128  12.411 -0.1789 -0.1654  0.2464
 2484W        W18293   2.284   3.958  13.312  0.0352  0.0263  0.1544
 2485W        W18294   9.409   3.723  12.337 -0.0508  0.0809 -0.7625
 2486W        W18295   6.936   9.807   3.628 -0.0341 -0.3538  0.0449
 2487W        W18296   7.345  11.116   3.623 -0.2070  0.1914 -0.3057
 2488W        W18297  11.620  12.372  14.641 -0.2790  0.3161  0.0786
 2489W        W18298   4.595   3.241  14.956 -0.3419 -0.0669  0.0330
 2490W        W18299   5.231  12.383  10.477  0.0789  0.0273 -0.1885
 2491W        W18300   7.050   4.155   3.000  0.0300  0.0445  0.0506
 2492W        W18301   9.006   3.494  11.873  0.0541 -0.0444 -0.1793
 2493W        W18302  12.712   1.105   2.184 -0.2504 -0.0248  0.1664
 2494W        W18303  13.032  10.775   3.277 -0.1344 -0.0116  0.1965
 2495W        W18304  12.833  11.703  15.069 -0.0734 -0.1225  0.2364
 2496W        W18305   0.758   0.422   2.888  0.1469 -0.1662 -0.1117
 2497W        W18306   8.106   5.566   1.287 -0.2880  0.1388  0.3846
 2498W        W18307   5.999   7.785  11.702 -0.5177 -0.2865  0.2599
 2499W        W18308   2.216  17.391  14.112 -0.3382  0.2192  0.0358
 2500W        W18309  14.637  15.259   0.950  0.1512 -0.2465 -0.1039
 2501W        W18310   7.058   4.222   1.923 -0.0640 -0.0651  0.1719
 2502W        W18311   3.370  15.512   1.576  0.1138  0.3090 -0.1199
 2503W        W18312  18.128   5.031  12.634  0.1136  0.0644  0.0546
 2504W        W18313  11.138  13.769   2.416 -0.0099 -0.1551  0.2060
 2505W        W18314  15.746   2.150   2.166 -0.2144  0.1654  0.0156
 2506W        W18315  18.512  13.425  13.051  0.1012  0.4020  0.2181
 2507W        W18316  17.766   0.866   2.183  0.1135 -0.2450 -0.1197
 2508W        W18317  14.427  16.850  12.749  0.2042  0.2619  0.0761
 2509W        W18318   6.348   8.061   3.430  0.3868 -0.4052 -0.0349
 2510W        W18319  15.730   7.116  11.770  0.2528  0.2250 -0.1264
 2511W        W18320  14.084   4.204   0.465 -0.2605  0.2386  0.1183
 2512W        W18321   1.353  13.631   2.726  0.3734  0.3053  0.0203
 2513W        W18322  12.100  12.734   2.213  0.0140 -0.1728 -0.1980
 2514W        W18323  13.148   1.148   3.254  0.0607  0.1018  0.2188
 2515W        W18324  12.950   2.137  12.094 -0.0427  0.0115  0.0955
 2516W        W18325  14.577  16.356  11.777  0.1423 -0.1159  0.2846
 2517W        W18326   7.544   0.870  11.539  0.2744  0.0569 -0.0539
 2518W        W18327  18.330  17.331   2.783 -0.1415  0.3279 -0.4961
 2519W        W18328   2.165  18.689   3.844  0.2267 -0.0658  0.2159
 2520W        W18329   9.231  13.309  13.019  0.4683  0.3292  0.0683
 2521W        W18330   1.764   2.629  12.202  0.0575  0.0481  0.3854
 2522W        W18331   1.670  11.686   9.902 -0.2561  0.0222 -0.0215
 2523W        W18332  11.663  18.910   5.310 -0.1979  0.2636  0.0515
 2524W        W18333  13.699  17.017   4.969  0.2510 -0.0557  0.0480
 2525W        W18334  16.034  15.749   1.188  0.1751 -0.0804 -0.0351
 2526W        W18335  15.166   4.372   3.804  0.1261 -0.1566 -0.1542
 2527W        W18336   9.533   1.365  12.263  0.0215 -0.2290 -0.0707
 2528W        W18337  18.534   2.436   1.583  0.2602  0.2317  0.2008
 2529W        W18338   7.259   8.722   2.523  0.0825  0.2430 -0.2969
 2530W        W18339  13.410  14.955   3.012 -0.0766 -0.0456  0.0379
 2531W        W18340   4.389   8.510  11.504  0.0611  0.0225 -0.0243
 2532W        W18341  16.126  17.565  11.613 -0.0086 -0.0863  0.1730
 2533W        W18342   5.222  15.340   0.541 -0.1338 -0.2178  0.5707
 2534W        W18343  18.922   8.906   0.758 -0.0488  0.0220 -0.2411
 2535W        W18344  16.557   4.232  14.897 -0.0293 -0.0749 -0.1643
 2536W        W18345   2.003  13.153   8.988  0.0176 -0.3786  0.0688
 2537W        W18346   3.069  15.936   5.130  0.2297  0.2536  0.0208
 2538W        W18347   8.498  14.748  10.796  0.1271 -0.1867  0.2096
 2539W        W18348  13.656   8.050  14.905  0.0101 -0.0357 -0.2497
 2540W        W18349  10.605  17.436   5.129 -0.2242 -0.0038 -0.0249
 2541W        W18350   7.592   0.473   3.338 -0.1041  0.2584 -0.2506
 2542W        W18351   3.946  10.691   2.937 -0.0524 -0.2436  0.1271
 2543W        W18352  10.688   2.109  14.610 -0.0709 -0.0369 -0.0945
 2544W        W18353  16.249  15.179  13.052 -0.0706  0.1396 -0.0301
 2545W        W18354  15.268  12.509  10.771 -0.1728 -0.1281  0.0891
 2546W        W18355   0.942   4.756  14.617 -0.0194  0.1794  0.1905
 2547W        W18356   5.887   5.698  10.655 -0.1965  0.1129 -0.2057
 2548W        W18357   9.218   1.647   4.229 -0.2167 -0.1469 -0.3799
 2549W        W18358  13.798  17.305  13.756 -0.0059 -0.2167 -0.0338
 2550W        W18359   6.430  12.277  13.559 -0.2351 -0.0489  0.4099
 2551W        W18360   8.900  17.141   4.780  0.3858 -0.2116 -0.0391
 2552W        W18361  11.332   9.773  11.740  0.4133 -0.2301  0.2076
 2553W        W18362   6.339   1.665  13.260 -0.1540 -0.0903 -0.0385
 2554W        W18363  18.081  16.026   3.295  0.0452 -0.0175 -0.2403
 2555W        W18364  10.273   7.406   0.276 -0.0579 -0.0529 -0.0244
 2556W        W18365   0.681   8.242  10.024 -0.0278  0.1681  0.0676
 2557W        W18366   5.806  18.648  10.949 -0.2118 -0.2667  0.0567
 2558W        W18367   8.067   9.386   0.528 -0.0507  0.3841 -0.1176
 2559W        W18368   9.312  13.770   1.472  0.1753 -0.0866  0.1970
 2560W        W18369   5.114  16.596  11.617  0.0348 -0.1284 -0.0664
 2561W        W18370  15.959  12.811   2.002  0.0387 -0.1904  0.0340
 2562W        W18371   0.121   7.622   4.667  0.0242 -0.0043  0.1108
 2563W        W18372  12.888   0.871   0.772  0.1685 -0.2222  0.1919
 2564W        W18373  11.467  16.135  12.445 -0.0820  0.1679 -0.1824
 2565W        W18374   2.623  15.641  11.676 -0.1238  0.2955  0.0026
 2566W        W18375   8.207  17.522  13.240  0.2324 -0.3582 -0.0419
 2567W        W18376   5.029   1.862   3.723  0.0658  0.1060  0.0321
 2568W        W18377   0.645   5.701   1.702 -0.1030  0.0773 -0.1753
 2569W        W18378  16.688  11.919  11.139  0.2289 -0.0822 -0.3434
 2570W        W18379   4.368  15.003   9.538  0.0668  0.2021  0.2200
 2571W        W18380  18.386   2.179  13.113 -0.3571  0.1984  0.1582
 2572W        W18381   0.530   1.160  13.922 -0.1143 -0.1668 -0.1271
 2573W        W18382   5.432   7.700   4.328 -0.3031 -0.0893 -0.0909
 2574W        W18383   7.745  12.900   5.723  0.1685  0.2369 -0.1309
 2575W        W18384  14.880   2.025  13.767 -0.2995  0.1072  0.0202
 2576W        W18385   4.471   0.771   0.467  0.1739 -0.0697  0.1628
 2577W        W18386  17.129   3.642  11.131 -0.4100 -0.3435  0.0341
 2578W        W18387  13.866   1.086   5.819 -0.0791 -0.0837  0.1672
 2579W        W18388  17.172   0.792  14.795 -0.1142 -0.0863 -0.0067
 2580W        W18389  18.555  10.557   9.888  0.2993  0.2038  0.1733
 2581W        W18390   6.571  15.016  14.957 -0.0442  0.0796 -0.0505
 2582W        W18391  13.298   9.986   0.580  0.0288 -0.2538  0.1590
 2583W        W18392  10.982   2.342   0.435  0.2219  0.0215 -0.0366
 2584W        W18393   0.352  11.310  13.436 -0.0544  0.1346  0.2241
 2585W        W18394   1.442   1.351  10.864  0.0132  0.1473  0.0880
 2586W        W18395   1.980  12.572  11.118  0.1314 -0.0911  0.0035
 2587W        W18396   0.268   1.488   5.261 -0.1717 -0.0411 -0.2485
 2588W        W18397   7.517   8.558   1.241 -0.0602  0.0290 -0.1758
 2589W        W18398   7.373   5.407   1.765 -0.0803 -0.1318  0.4846
 2590W        W18399   4.359   5.066  11.129  0.0326 -0.1040  0.2039
 2591W        W18400  16.765   9.535  15.096  0.1957 -0.1911  0.0129
 2592W        W18401  16.155   5.833   3.215  0.0226 -0.0294 -0.0221
 2593W        W18402  11.402  13.137   3.165 -0.1495  0.3834 -0.1812
 2594W        W18403   0.064  11.732   3.887 -0.4164 -0.2487  0.0038
 2595W        W18404  12.518   8.699  10.251 -0.2831  0.1138 -0.3361
 2596W        W18405   4.081   6.772  14.948  0.2559  0.0528  0.1104
 2597W        W18406   5.962   6.425   4.325  0.1209 -0.0086 -0.1925
 2598W        W18407  14.814  14.024   1.185 -0.0229 -0.0012 -0.2609
 2599W        W18408  16.058  12.455   3.018 -0.1968 -0.1422 -0.3034
 2600W        W18409  15.064  16.865   4.421  0.0799 -0.1555 -0.0125
 2601W        W18410  12.032   1.096  14.911  0.2340 -0.2540  0.0513
 2602W        W18411  15.468   2.733  12.832  0.0129 -0.0582  0.0510
 2603W        W18412   7.623  14.808  10.842  0.0243 -0.0686  0.2195
 2604W        W18413  11.666  13.391   2.797  0.4089  0.1317 -0.1449
 2605W        W18414  15.976  16.022   0.201 -0.0042  0.1478  0.4721
 2606W        W18415  18.686  16.110   9.621  0.1572  0.0162 -0.1105
 2607W        W18416  14.775  16.075   3.307  0.2221  0.1145  0.0199
 2608W        W18417  15.009   5.224   4.342  0.2857  0.0144 -0.0353
 2609W        W18418   6.573   9.510   3.331  0.0582 -0.0868 -0.0849
 2610W        W18419  12.703  18.305  11.211 -0.2012 -0.0726 -0.1860
 2611W        W18420   2.551   5.574   3.594  0.1557  0.1118  0.1061
 2612W        W18421  11.402   2.533  11.868  0.0877 -0.2022  0.0755
 2613W        W18422  11.630  16.744  14.735 -0.5907  0.2792 -0.4342
 2614W        W18423  12.943  12.763  11.400  0.0521  0.0003 -0.2182
 2615W        W18424  11.465  18.653  14.876  0.0925 -0.3001  0.2412
 2616W        W18425  13.654  14.883   3.573 -0.1039  0.2608  0.3452
 2617W        W18426  12.619   8.073   2.803  0.0470 -0.0538  0.1935
 2618W        W18427   7.925   4.295   3.590 -0.2095 -0.2053 -0.0370
 2619W        W18428   4.895   4.458   9.884  0.0378  0.0632  0.2148
 2620W        W18429  16.501  11.109   3.537 -0.1923 -0.1978  0.3347
 2621W        W18430  13.143   6.978   2.307  0.3159 -0.0414 -0.0174
 2622W        W18431  18.916  11.752  14.466  0.0743 -0.2885  0.1107
 2623W        W18432  17.258   4.500   1.824 -0.1096 -0.0569 -0.0106
 2624W        W18433  17.485  13.456   3.195  0.1378  0.0628  0.3806
 2625W        W18434   2.485   4.140  12.575  0.4643  0.0949  0.0084
 2626W        W18435  16.218  13.650  11.916 -0.0497 -0.0519 -0.2541
 2627W        W18436   3.667   9.774  10.683  0.0813  0.0377  0.2478
 2628W        W18437   1.694  11.359  11.534  0.3372 -0.1001  0.2394
 2629W        W18438  15.845   3.636   4.255  0.1027  0.1258 -0.2141
 2630W        W18439   8.538  14.058  14.819  0.0709 -0.0899  0.1418
 2631W        W18440   4.970   7.883  11.603 -0.0020  0.2414 -0.0036
 2632W        W18441   9.772  15.574   0.229  0.0990  0.0944 -0.2420
 2633W        W18442  11.919   3.066   4.255 -0.1035  0.0398  0.1057
 2634W        W18443   8.411   4.913  14.094 -0.1269 -0.2981  0.2745
 2635W        W18444  16.329   8.383  11.812  0.2803  0.0379  0.0813
 2636W        W18445  13.657   6.145  14.024  0.2328 -0.1149  0.2437
 2637W        W18446   3.047  16.370  11.239  0.1454  0.1717  0.0329
 2638W        W18447  14.761  14.336  11.918  0.2567 -0.2824 -0.1582
 2639W        W18448   5.701  11.066  10.243 -0.0980 -0.3264 -0.4521
 2640W        W18449   3.674  19.135   0.637 -0.3542  0.3658  0.4363
 2641W        W18450   1.362  11.552  13.885 -0.0917 -0.0607 -0.2217
 2642W        W18451   2.024  16.017   0.447 -0.0173 -0.0378 -0.0281
 2643W        W18452   3.405  16.069   0.832 -0.0870 -0.0023  0.1189
 2644W        W18453  12.954  10.229  13.976 -0.0115 -0.1798 -0.1450
 2645W        W18454  11.187   1.929  15.173 -0.0310  0.3498  0.0687
 2646W        W18455   7.240   3.529   0.350 -0.1547  0.1474  0.2340
 2647W        W18456  17.877   8.287   3.922 -0.0489  0.1226  0.0577
 2648W        W18457   7.319  15.887   1.087 -0.5573  0.2476 -0.1956
 2649W        W18458   9.613   1.803  12.535  0.1019 -0.2174 -0.1342
 2650W        W18459  18.860   9.193  14.702  0.2133 -0.0055 -0.0287
 2651W        W18460   1.393   2.509   4.060  0.0170  0.0867  0.0306
 2652W        W18461  11.480  17.543  12.596 -0.1967  0.2441 -0.2132
 2653W        W18462   7.181  11.097  11.467 -0.1687 -0.2025  0.0139
 2654W        W18463   7.514  15.762   5.342  0.3194 -0.3035  0.3458
 2655W        W18464   1.948   4.952   2.829 -0.1306  0.0516 -0.1519
 2656W        W18465  18.570   8.661   5.085  0.0386 -0.1699  0.2404
 2657W        W18466  17.116  17.547  13.650 -0.2304 -0.3132  0.2476
 2658W        W18467  18.039   9.930  13.723  0.0242 -0.1749  0.3778
 2659W        W18468   3.511  13.708   3.942 -0.2770 -0.1720  0.1733
 2660W        W18469  18.598  10.702  14.272  0.1363 -0.1628  0.0154
 2661W        W18470  15.948  15.032   0.068  0.1405 -0.0823  0.2681
 2662W        W18471  13.569  16.322   2.528 -0.0388 -0.0726  0.0140
 2663W        W18472  11.066   9.754   1.958  0.1287 -0.2260  0.0171
 2664W        W18473   5.887  14.324  10.038 -0.1357  0.5846  0.0026
 2665W        W18474  13.470  16.908   2.217  0.2668 -0.0508 -0.4356
 2666W        W18475   1.826   0.033  11.489  0.3139 -0.0746  0.1083
 2667W        W18476   2.096  14.456   4.355 -0.2128  0.0352 -0.0061
 2668W        W18477   4.160   9.638  14.522  0.1014 -0.1098  0.0606
 2669W        W18478  11.036   6.642   3.065 -0.0059 -0.2560 -0.2481
 2670W        W18479  13.841   7.189  14.730  0.0881  0.1443  0.2196
 2671W        W18480   2.711   9.094  13.838 -0.0132 -0.2920  0.3054
 2672W        W18481   8.863   7.628  13.992 -0.0573 -0.1652  0.0035
 2673W        W18482   6.494   4.650   4.645 -0.1596  0.3674 -0.1120
 2674W        W18483   6.667  12.351  11.103  0.1907  0.2893  0.2097
 2675W        W18484  10.443  19.069  13.325 -0.0990  0.1169 -0.0787
 2676W        W18485  17.320  13.499  14.409 -0.3130  0.2290  0.3106
 2677W        W18486  15.960   2.898   2.639 -0.0880 -0.1470  0.1251
 2678W        W18487  13.748   8.441  10.752 -0.0572  0.0497  0.0165
 2679W        W18488   6.416  11.393   4.206  0.2199  0.1784  0.1086
 2680W        W18489   8.793   7.063   0.128  0.0670 -0.3920 -0.1678
 2681W        W18490   5.835   4.197  12.684  0.2835 -0.0096  0.0673
 2682W        W18491   3.877  12.051   0.692 -0.1141  0.2951 -0.2524
 2683W        W18492  16.987  15.810  11.848  0.2982 -0.3265 -0.0172
 2684W        W18493   8.184   3.259   1.022 -0.0607  0.1006 -0.0266
 2685W        W18494  11.181  13.609   6.128  0.3275  0.3227  0.0538
 2686W        W18495   5.262  11.746   3.775 -0.0825 -0.1886 -0.1160
 2687W        W18496  13.027   3.307  12.130 -0.1263  0.0638 -0.2568
 2688W        W18497  15.250  18.179  12.264 -0.2536  0.2334 -0.2410
 2689W        W18498  18.103  11.845   0.782  0.0194  0.0821  0.1021
 2690W        W18499   0.675   0.991   4.872  0.0182  0.0060 -0.1070
 2691W        W18500   9.086   3.054  10.757  0.0081 -0.1369 -0.1460
 2692W        W18501  16.478   6.806   5.132 -0.0506 -0.0843 -0.1896
 2693W        W18502  16.002   8.980   5.394 -0.1451  0.2023  0.0884
 2694W        W18503  11.374   7.883   1.850 -0.1391 -0.2306  0.0345
 2695W        W18504   7.482   6.310   2.180 -0.1036  0.1448  0.3586
 2696W        W18505  17.793  13.655  10.005 -0.0304 -0.2604  0.1019
 2697W        W18506  12.375  10.394   5.893  0.1384  0.4016 -0.1597
 2698W        W18507   1.580  17.732  12.337  0.1232 -0.0161 -0.1461
 2699W        W18508  10.705   5.937   2.741 -0.1560  0.2051 -0.0950
 2700W        W18509  16.104  10.799   1.406  0.1568  0.0189 -0.0892
 2701W        W18510  12.018  13.672  10.448  0.2113 -0.0862 -0.1370
 2702W        W18511   5.916   0.571   5.162  0.0845 -0.0661 -0.0304
 2703W        W18512  15.703  17.351   2.566  0.1169  0.0508  0.0326
 2704W        W18513  18.145   8.706   4.772 -0.1684 -0.0079 -0.1682
 2705W        W18514  15.366  10.671   3.733 -0.2411 -0.2440 -0.0712
 2706W        W18515   4.564   3.666  11.964  0.0804 -0.3015  0.1151
 2707W        W18516  15.886  15.399  14.478 -0.0209 -0.1381  0.1490
 2708W        W18517  13.806  14.125   2.881  0.1924  0.2550 -0.2026
 2709W        W18518  14.320  15.273   2.152 -0.0531 -0.0688 -0.2913
 2710W        W18519  18.499   3.491   2.820  0.1974  0.4544 -0.1354
 2711W        W18520  11.894  11.092   5.140 -0.2697 -0.1765  0.2033
 2712W        W18521  14.825  13.511   1.801 -0.1129 -0.1968  0.1119
 2713W        W18522  10.528   9.319  11.444 -0.1491  0.1314 -0.0076
 2714W        W18523   3.888  17.717   0.840  0.2011 -0.0281 -0.0349
 2715W        W18524   8.245   9.170   5.315  0.1178  0.3856 -0.0184
 2716W        W18525   4.151  15.827  15.110  0.0487  0.0142  0.2947
 2717W        W18526  17.075  14.536  11.753 -0.3037 -0.1694 -0.1333
 2718W        W18527   0.222  11.701  11.699 -0.0214  0.1167  0.2437
 2719W        W18528  14.864  17.417  12.183 -0.1742 -0.1009  0.4198
 2720W        W18529   5.192  18.755   0.576  0.0811  0.0843  0.1010
 2721W        W18530  12.533   8.026  10.433  0.0309  0.0633  0.1583
 2722W        W18531   6.413  10.847  13.692  0.0651 -0.1679 -0.0053
 2723W        W18532  13.192   6.362  13.810 -0.1680  0.1710 -0.0475
 2724W        W18533  11.057  18.922   0.522 -0.0957 -0.2329  0.1533
 2725W        W18534   5.103   5.686   2.134 -0.0334  0.0718 -0.2150
 2726W        W18535  18.648  14.997   4.173  0.1927  0.1170 -0.2031
 2727W        W18536  11.425  12.828   4.668  0.1891  0.3236  0.0161
 2728W        W18537  10.254  16.011   1.589  0.0631  0.1996  0.0382
 2729W        W18538   8.309  12.938  12.024  0.2887 -0.1603 -0.2007
 2730W        W18539   5.961   5.974   1.820 -0.1784  0.0528  0.1085
 2731W        W18540  14.172   9.421  13.695  0.1196  0.1824 -0.1107
 2732W        W18541  16.276  17.031  11.894  0.1422  0.0923 -0.2424
 2733W        W18542  13.789  18.633  12.370  0.1764  0.1566  0.0263
 2734W        W18543   7.891  11.102  11.194  0.0133 -0.0505  0.0750
 2735W        W18544  17.187  11.369   0.694 -0.1344  0.3820  0.0229
 2736W        W18545   2.952   5.976   2.188 -0.0103 -0.0486  0.0533
 2737W        W18546  14.613  18.719  13.941  0.3518  0.0102 -0.1079
 2738W        W18547  14.552   6.700  11.755 -0.1804 -0.0585  0.1834
 2739W        W18548  14.865   8.392  14.522  0.2238  0.3788 -0.2795
 2740W        W18549  13.007  13.152  15.124  0.1566  0.0495 -0.1375
 2741W        W18550   0.605  16.288   1.274  0.2837 -0.0999 -0.1189
 2742W        W18551   0.215  11.155   1.395  0.0226 -0.0385  0.0559
 2743W        W18552  17.685  10.210  14.894  0.4306 -0.0239 -0.0460
 2744W        W18553   6.757   3.730   4.753 -0.3242  0.0113 -0.1344
 2745W        W18554  14.989  16.126   2.651 -0.1089 -0.0038 -0.1984
 2746W        W18555  13.472   4.596  13.273 -0.1949 -0.1917 -0.0643
 2747W        W18556   0.933  13.094   0.345 -0.0562 -0.3284 -0.3170
 2748W        W18557   0.396  11.958   3.661 -0.2215  0.0066 -0.2283
 2749W        W18558  16.714  14.578   1.046  0.1211 -0.0341 -0.0109
 2750W        W18559   5.395   7.562  12.641  0.1220  0.0518 -0.0974
 2751W        W18560  15.608   6.039  10.663  0.0339  0.0380  0.1626
 2752W        W18561  17.165   8.795   2.157 -0.1079 -0.0547  0.0245
 2753W        W18562  17.319  18.630   5.056  0.3579 -0.3825  0.0383
 2754W        W18563  12.688   2.617   1.126 -0.0639  0.1351  0.0032
 2755W        W18564  16.117   9.894   1.657 -0.1584  0.0510  0.3406
 2756W        W18565  14.235  17.861   5.150 -0.0260 -0.0272 -0.1242
 2757W        W18566   4.345  15.327   0.044 -0.1742  0.0327 -0.0383
 2758W        W18567   5.249   4.007  14.147  0.2947 -0.1702  0.2762
 2759W        W18568   1.515   3.938   3.334 -0.5686  0.0734 -0.0308
 2760W        W18569  17.638  10.680  11.583 -0.1512  0.0756 -0.1830
 2761W        W18570   5.838  18.514   1.705 -0.1934 -0.1072 -0.0116
 2762W        W18571  11.887  15.134  13.542  0.1735  0.0216 -0.1024
 2763W        W18572   1.615   6.132   0.151  0.2472  0.0014 -0.1990
 2764W        W18573   3.145  10.746   2.715 -0.5140 -0.1088  0.2214
 2765W        W18574  16.390  17.890   5.857  0.3215 -0.1579 -0.1604
 2766W        W18575  16.453   8.341   1.837  0.0087  0.1830  0.3686
 2767W        W18576   3.129   8.928  13.307 -0.1227 -0.0295 -0.1824
 2768W        W18577   5.963   5.896   4.491  0.1850 -0.2327  0.0180
 2769W        W18578  10.885   9.583  12.931 -0.1084 -0.1286 -0.1775
 2770W        W18579  17.653   3.777   1.355  0.3590  0.0442  0.0314
 2771W        W18580   7.496   6.614   1.553 -0.0686 -0.0585  0.5416
 2772W        W18581  11.129   9.032   0.547 -0.1387  0.3255 -0.0831
 2773W        W18582   4.007   5.105   3.592  0.0199  0.2176 -0.2115
 2774W        W18583   5.293  17.233  12.942 -0.1450  0.1267  0.0568
 2775W        W18584   2.344  10.433   0.984 -0.1962 -0.0988  0.0427
 2776W        W18585   3.891   0.706  12.744 -0.0728 -0.0408  0.4155
 2777W        W18586   4.838   9.262   1.790  0.0812 -0.3170 -0.1071
 2778W        W18587   7.709   0.275  11.804  0.0087 -0.0178 -0.0405
 2779W        W18588  15.523   9.813   4.785  0.0070  0.0604 -0.2023
 2780W        W18589   5.873  16.095  11.810 -0.0260 -0.0064  0.0796
 2781W        W18590   1.568   4.697   0.465  0.2065  0.2124 -0.1490
 2782W        W18591  15.573   1.933   2.618  0.0440 -0.0764  0.2384
 2783W        W18592  13.678  11.404  13.952 -0.2142  0.0293  0.2848
 2784W        W18593  17.570   2.762  14.913  0.1936 -0.1047  0.1245
 2785W        W18594  18.124   5.380   0.922 -0.0271  0.2424 -0.2282
 2786W        W18595   1.926  18.135   1.294 -0.0407 -0.1148 -0.1707
 2787W        W18596  14.390   8.325  10.957 -0.0330  0.0996 -0.3782
 2788W        W18597   7.405   7.910  12.401 -0.2470 -0.1961  0.0574
 2789W        W18598   5.357  15.610   2.446 -0.2631  0.0429  0.0245
 2790W        W18599   5.439   0.239  15.098  0.0704 -0.0205  0.1682
 2791W        W18600  17.466  15.939  15.115 -0.2737 -0.2083 -0.2244
 2792W        W18601  15.301   2.999   4.369  0.0488  0.0272  0.1497
 2793W        W18602   6.960   8.463   1.618 -0.0776 -0.2638 -0.0715
 2794W        W18603   0.704   9.719  15.129 -0.0386 -0.0360  0.2555
 2795W        W18604  12.208   8.454  12.951 -0.0119 -0.0768  0.1022
 2796W        W18605   6.150   9.604  12.347  0.2135  0.1652  0.1276
 2797W        W18606  18.457  18.849  14.735  0.4058 -0.2498  0.1251
 2798W        W18607  14.177  12.805   1.649  0.2252  0.2210  0.0208
 2799W        W18608   3.996  15.979   2.578 -0.1270  0.0401 -0.1923
 2800W        W18609  18.235  15.400   3.976 -0.1113  0.0489 -0.1874
 2801W        W18610   3.518  14.619   9.259 -0.1785  0.4200 -0.0455
 2802W        W18611  13.762   0.034  10.090  0.2178 -0.1657  0.2135
 2803W        W18612   1.595  18.464   5.533  0.2017 -0.0560  0.0196
 2804W        W18613  12.094   5.748   2.408  0.3363 -0.0265 -0.0061
 2805W        W18614  18.932   9.155   4.461 -0.2034  0.1127  0.0298
 2806W        W18615  16.480   7.051   5.565  0.1583  0.1953  0.3665
 2807W        W18616   7.910  17.174  13.130 -0.0204  0.0359  0.2591
 2808W        W18617   1.941  16.935  11.944 -0.0143  0.1129 -0.0792
 2809W        W18618  14.805  13.878   3.830 -0.2730 -0.2083  0.1353
 2810W        W18619  13.150   6.758  10.301 -0.1707 -0.1460 -0.0714
 2811W        W18620   8.850   7.491   2.462  0.1714  0.2175  0.0051
 2812W        W18621   8.257   3.700   2.339 -0.3272 -0.2029  0.2661
 2813W        W18622  18.249   7.354   2.773  0.0889 -0.0112  0.2092
 2814W        W18623   7.446   0.407  12.879  0.3051  0.1180  0.3494
 2815W        W18624   2.699   0.799   0.200  0.0343 -0.3798 -0.1921
 2816W        W18625  15.024   4.489  11.014 -0.1594 -0.4199 -0.0983
 2817W        W18626  11.078   5.281   0.576  0.1334  0.0507  0.2067
 2818W        W18627  17.756   2.739   3.674 -0.1681  0.0828  0.0570
 2819W        W18628  16.928  19.149  14.951 -0.1530 -0.1467 -0.1938
 2820W        W18629  10.258  17.080   0.633 -0.1938  0.1551  0.0615
 2821W        W18630  11.746  10.206   0.742  0.2065 -0.1050  0.2279
 2822W        W18631   6.890   5.535   1.723 -0.1538 -0.1164 -0.1566
 2823W        W18632   0.379   5.099   2.078 -0.0780 -0.1691 -0.0331
 2824W        W18633   5.198   5.830   1.364 -0.1316 -0.1934  0.0347
 2825W        W18634   4.521   9.549   2.274  0.2414  0.1635  0.3097
 2826W        W18635  12.588   7.582   5.318  0.0866 -0.0183  0.0134
 2827W        W18636  18.183  12.453   2.168  0.1699 -0.0037 -0.0623
 2828W        W18637   5.412  10.206   2.835 -0.0768  0.1598  0.1472
 2829W        W18638   4.251   0.354   0.039 -0.0237  0.0624  0.3594
 2830W        W18639   3.360  12.031  14.624  0.0898  0.2792 -0.1668
 2831W        W18640  18.475  11.264   1.061 -0.2010  0.1039  0.3092
 2832W        W18641   7.149   0.852  14.559  0.2009 -0.0712 -0.0599
 2833W        W18642   0.845  18.868  14.813  0.1194 -0.0178  0.0573
 2834W        W18643   0.624  13.301   1.022  0.0985  0.4366  0.0876
 2835W        W18644  11.769   5.257  13.407 -0.1505 -0.1758  0.1927
 2836W        W18645  18.845   2.244  13.785 -0.2493 -0.0366  0.0692
 2837W        W18646  10.373   3.429   3.832  0.1146 -0.2025  0.0191
 2838W        W18647   3.335  19.097  12.521 -0.1219 -0.3828  0.0337
 2839W        W18648  12.325   1.522   3.602 -0.0531  0.2116  0.1476
 2840W        W18649   7.568  15.603  10.467  0.0266 -0.3994 -0.0202
 2841W        W18650  18.806  10.803  13.799  0.0765 -0.0090  0.3498
 2842W        W18651   8.074   6.876  13.852 -0.1406 -0.1008  0.0088
 2843W        W18652   5.305   1.585   2.098  0.0782  0.2103  0.1988
 2844W        W18653   9.167  16.105   0.760  0.0456  0.0729  0.2797
 2845W        W18654   9.765   0.999  13.636 -0.2231  0.3043  0.0255
 2846W        W18655  17.678   1.104   4.735 -0.3430  0.0146  0.1461
 2847W        W18656   8.118  15.111  10.893 -0.1582 -0.0111  0.2194
 2848W        W18657  18.449   0.825  13.726 -0.3151 -0.4345  0.2369
 2849W        W18658  11.608  16.816  11.631  0.2295 -0.2041  0.0231
 2850W        W18659  13.012   4.628  13.497  0.2371  0.2732  0.0241
 2851W        W18660  17.297   1.726   4.208 -0.0409  0.1506  0.0163
 2852W        W18661   7.223  17.096  11.489 -0.1344 -0.0824 -0.1265
 2853W        W18662   4.841  15.481   0.915 -0.0284  0.4052  0.0102
 2854W        W18663  12.626   3.500  14.052  0.1263 -0.0635 -0.0293
 2855W        W18664   5.970  10.404   4.524  0.2685  0.0452 -0.0257
 2856W        W18665   3.467   5.382   0.128 -0.1939 -0.1525  0.3522
 2857W        W18666  10.183   1.052   4.512  0.0620  0.2826 -0.0648
 2858W        W18667  10.522  15.162   2.905  0.2917 -0.1689 -0.0330
 2859W        W18668   5.000  11.900  12.112  0.1127 -0.3388 -0.2758
 2860W        W18669   4.290   8.605  14.686 -0.2356  0.2093 -0.1038
 2861W        W18670  17.562   0.723  13.287  0.0749 -0.1123  0.1101
 2862W        W18671  15.924  12.377   4.112  0.0673 -0.1036 -0.1297
 2863W        W18672   3.904  16.548  13.444  0.1122  0.1091  0.1788
 2864W        W18673  12.748  12.096   1.176  0.1807 -0.1765  0.0202
 2865W        W18674   7.564   7.512  13.573 -0.2648  0.3749 -0.0300
 2866W        W18675  14.252   4.974   9.777 -0.0036  0.0307 -0.1221
 2867W        W18676  11.366   3.619   1.307 -0.0987 -0.0078  0.3761
 2868W        W18677  16.164  13.637   0.128 -0.1408 -0.1083  0.0139
 2869W        W18678   2.404   6.387  12.852 -0.0490  0.0798  0.2445
 2870W        W18679  12.365   5.823   0.230  0.0844  0.0569 -0.0576
 2871W        W18680  18.787  16.604   2.707  0.1536  0.3199 -0.2653
 2872W        W18681  16.888   3.036  14.563  0.3180  0.3871 -0.0699
 2873W        W18682   3.781  14.834  11.790 -0.0130  0.0126 -0.1661
 2874W        W18683   2.260   8.545  10.033  0.0150  0.2163 -0.3293
 2875W        W18684   1.342  18.260   3.496 -0.2226  0.3207  0.1010
 2876W        W18685   5.886   2.230   1.815  0.1755  0.2222  0.1413
 2877W        W18686   1.241   1.985   3.798  0.1874 -0.2886  0.0912
 2878W        W18687   9.478  13.852  11.226  0.1330 -0.0861 -0.1376
 2879W        W18688  13.751  16.655  14.481  0.0326  0.2445 -0.1919
 2880W        W18689   2.755  16.698  13.495 -0.3466  0.0892 -0.0153
 2881W        W18690   8.596  13.929   5.559 -0.1048  0.0804 -0.4560
 2882W        W18691   0.848  10.368   3.678 -0.0342 -0.1187  0.0114
 2883W        W18692  15.906   3.658   5.306 -0.2440 -0.1428 -0.1358
 2884W        W18693   2.773   4.453   4.547 -0.0623  0.3803 -0.3826
 2885W        W18694   6.932  10.653   2.933  0.0059 -0.4921  0.1924
 2886W        W18695   4.821  12.162   2.895  0.0842 -0.2292  0.0149
 2887W        W18696  16.169   3.373   3.356  0.1618  0.0196  0.1688
 2888W        W18697   4.316  15.008  14.098 -0.1656  0.0586 -0.1839
 2889W        W18698   7.697  18.032  14.594 -0.1202 -0.0657  0.1598
 2890W        W18699   1.283  13.103  12.725 -0.0689 -0.1358 -0.0130
 2891W        W18700  17.258  14.968  11.250 -0.0381  0.1294 -0.2430
 2892W        W18701  11.332   7.498   4.478 -0.0993  0.0857  0.1426
 2893W        W18702   8.399   6.638  10.903 -0.2010  0.1417 -0.2206
 2894W        W18703   7.757   0.678   0.534  0.0843 -0.1800 -0.1572
 2895W        W18704  17.530   9.651   2.928  0.1172 -0.0625  0.4531
 2896W        W18705   4.509  17.297  14.482 -0.2129  0.2578  0.3592
 2897W        W18706   8.062   3.815  10.990 -0.1578 -0.0212 -0.1429
 2898W        W18707  16.124   6.052   1.209  0.0843 -0.1867 -0.1774
 2899W        W18708   9.380   2.913   0.773 -0.1674 -0.2186  0.3155
 2900W        W18709  15.513   3.291  12.890 -0.3462  0.1591  0.5510
 2901W        W18710   7.806  10.415   4.573 -0.2032  0.3547 -0.5393
 2902W        W18711   7.392  10.616  15.005 -0.2402  0.0734  0.3071
 2903W        W18712  13.673   8.328   2.212  0.1454  0.3028 -0.1171
 2904W        W18713   0.388   6.471   4.131  0.0800  0.1202  0.1901
 2905W        W18714   2.207  19.091   1.059  0.0284  0.0226  0.0092
 2906W        W18715   5.926   4.463   0.563  0.0940  0.0608 -0.0010
 2907W        W18716  16.520   4.400  13.524 -0.1323 -0.3046 -0.2377
 2908W        W18717   4.710   1.298  15.013 -0.1751 -0.0408  0.1482
 2909W        W18718  17.459   4.002  14.768 -0.0021  0.0849  0.0731
 2910W        W18719   6.125   3.805   2.951  0.0337  0.1064 -0.0254
 2911W        W18720  17.695  10.836  13.912 -0.3249 -0.2735 -0.2832
 2912W        W18721   1.779  14.105   4.045  0.0832  0.3941  0.3543
 2913W        W18722   9.797   5.934  14.239  0.4830 -0.1209 -0.1681
 2914W        W18723   5.312   8.789   5.613  0.0007 -0.1130 -0.1221
 2915W        W18724   7.177  16.904  10.282 -0.0299 -0.1276 -0.1987
 2916W        W18725  16.699  11.144   2.047  0.0996  0.2935 -0.1069
 2917W        W18726  15.054   5.566   5.597  0.3803  0.0597  0.2769
 2918W        W18727   1.586  11.447  11.047  0.0772  0.2031  0.2924
 2919W        W18728  13.086  10.026  12.304  0.0062  0.1160  0.1980
 2920W        W18729  13.797  11.738   5.145  0.1470 -0.1850  0.0507
 2921W        W18730  14.910  12.461  12.842  0.0513 -0.1737 -0.0868
 2922W        W18731   9.824   1.560   0.225 -0.2021  0.0840  0.1139
 2923W        W18732  17.310  10.887   3.050 -0.3550 -0.1318  0.1127
 2924W        W18733   7.798   3.748   4.308  0.4758  0.3442  0.0689
 2925W        W18734  11.286  18.688  12.998 -0.6213 -0.2707  0.1245
 2926W        W18735  17.754   1.438  11.022  0.2047 -0.6190  0.0461
 2927W        W18736  18.152   7.309   9.590 -0.1713  0.0290 -0.0311
 2928W        W18737  10.632  16.016  13.548  0.0221  0.1562  0.3089
 2929W        W18738  12.548  13.595   2.892 -0.0219  0.0780 -0.0713
 2930W        W18739  15.064   2.303   0.288 -0.1229  0.0662  0.3789
 2931W        W18740   7.967  16.718   2.612 -0.1481 -0.1700  0.1777
 2932W        W18741   7.570   0.093  11.112  0.0850  0.0234  0.1856
 2933W        W18742   5.570  13.232   1.963  0.0857  0.4516 -0.1236
 2934W        W18743  16.472   5.642   3.581 -0.5747  0.2113  0.1668
 2935W        W18744  18.630   6.312  14.590  0.0430 -0.2457 -0.1801
 2936W        W18745  15.382   2.093   5.149 -0.0330 -0.1186 -0.3640
 2937W        W18746   5.355  14.178  11.912 -0.0513 -0.3073  0.0142
 2938W        W18747   1.511   1.434  14.263 -0.1745  0.1475  0.1036
 2939W        W18748  11.179  13.825  11.054 -0.1839  0.2283 -0.1884
 2940W        W18749  11.287   8.165  13.039 -0.1200  0.4331 -0.3044
 2941W        W18750   2.897   9.689  11.003  0.4466 -0.0804 -0.1079
 2942W        W18751   7.025   7.959   0.726  0.0753 -0.0176  0.0150
 2943W        W18752  12.734  16.478   9.726 -0.2074  0.0870 -0.1437
 2944W        W18753  18.870   1.958  11.263 -0.1957  0.3812  0.1123
 2945W        W18754  16.301   8.096   0.264  0.0391  0.4613  0.1271
 2946W        W18755  13.033  14.400  12.476  0.0432 -0.1017 -0.1008
 2947W        W18756  15.953   3.514  10.009  0.1497 -0.0400  0.0144
 2948W        W18757   3.771  12.482   4.924  0.3884  0.0557  0.3052
 2949W        W18758   6.913   6.207   2.360 -0.3132 -0.2557 -0.3889
 2950W        W18759   9.223   9.323   4.784 -0.1811 -0.1529 -0.1173
 2951W        W18760   8.789  11.821  14.242  0.2737  0.1735 -0.1270
 2952W        W18761   9.628   4.345  13.777 -0.0085  0.0068 -0.1356
 2953W        W18762  18.302   4.977   4.807  0.3995 -0.1124 -0.0339
 2954W        W18763   8.248   2.745   3.130  0.0059 -0.2154 -0.0079
 2955W        W18764  10.434  18.573   1.015 -0.3093 -0.0142 -0.1475
 2956W        W18765   7.469   9.951   4.351 -0.0134 -0.0472 -0.3339
 2957W        W18766   5.923  17.552  15.156 -0.1976 -0.2309 -0.2495
 2958W        W18767  12.362  16.624  15.152 -0.3543  0.0483  0.1350
 2959W        W18768  11.425   3.972   1.673 -0.2982  0.0675 -0.1226
 2960W        W18769  11.534   8.343   2.244  0.2423 -0.1789  0.0755
 2961W        W18770  14.945   1.109   3.674  0.0648 -0.0705  0.0686
 2962W        W18771   6.086   1.159   4.516 -0.3127 -0.0939  0.0939
 2963W        W18772   9.188   1.773   5.137 -0.4349 -0.0558  0.1410
 2964W        W18773   5.246  10.639   0.418  0.1024  0.0758 -0.1533
 2965W        W18774   5.228   0.606   1.789 -0.3173 -0.1756  0.3279
 2966W        W18775   1.277   6.117   1.121 -0.0471 -0.1630  0.0494
 2967W        W18776  15.440  17.802  13.040  0.1671 -0.0934 -0.3271
 2968W        W18777   6.901   5.522  15.044  0.2962  0.2103  0.2816
 2969W        W18778  13.923  19.088   0.534  0.2120  0.0350  0.3650
 2970W        W18779   4.942  16.207  13.312  0.0737 -0.0084  0.4212
 2971W        W18780  13.876  13.912   1.992 -0.0053  0.1119 -0.0699
 2972W        W18781  12.220   1.794   2.631  0.1820 -0.3867  0.0907
 2973W        W18782  13.862  15.623  13.375  0.5700 -0.0386  0.0425
 2974W        W18783   3.904   1.567  12.111 -0.0333  0.2135  0.2332
 2975W        W18784  10.165  11.832   3.489  0.2343 -0.0278 -0.1096
 2976W        W18785   5.181  16.826  13.422 -0.0475 -0.0698  0.0650
 2977W        W18786  10.352   5.764   2.373  0.1359  0.1187 -0.3653
 2978W        W18787   9.026  12.901   4.852  0.3279 -0.1800 -0.1115
 2979W        W18788   2.033   7.174  13.068  0.0823 -0.0308  0.0370
 2980W        W18789  14.128  15.670   3.030  0.0505 -0.2151 -0.0155
 2981W        W18790  10.341  12.933   1.720  0.0859  0.0784 -0.2295
 2982W        W18791   3.696   9.835  11.639 -0.1449 -0.0979 -0.0538
 2983W        W18792   4.366  17.633   0.401  0.2460  0.3073 -0.1184
 2984W        W18793  18.198   8.776  13.225  0.1536 -0.1340  0.0238
 2985W        W18794  17.573   3.012   4.129 -0.1406 -0.0022  0.2980
 2986W        W18795   2.884   2.274   1.201  0.1710 -0.0738  0.1032
 2987W        W18796   8.784   5.625   0.100 -0.3070 -0.0234 -0.2521
 2988W        W18797   7.278  12.505   2.812  0.0106 -0.1173 -0.1497
 2989W        W18798   3.189   8.946   4.607  0.0944 -0.2154  0.1198
 2990W        W18799   2.350   5.897   0.068  0.2221 -0.1079 -0.0964
 2991W        W18800   0.268   7.824  15.211 -0.0185 -0.2127  0.1048
 2992W        W18801   1.006   0.954  11.080 -0.0053  0.1796  0.2862
 2993W        W18802   1.276   8.506  13.284  0.1412  0.1603 -0.1439
 2994W        W18803   7.202   1.190  11.711  0.2411 -0.0881 -0.2294
 2995W        W18804  11.168   1.500  11.365  0.0628  0.0830 -0.1930
 2996W        W18805  18.565   4.659  12.470 -0.2605 -0.1924 -0.1510
 2997W        W18806  11.650   4.494  10.327 -0.0922  0.3783  0.1698
 2998W        W18807   2.885  17.588  13.654  0.1594  0.0161  0.0062
 2999W        W18808  13.786  13.941  12.171  0.1500 -0.0569  0.1046
 3000W        W18809  18.919  10.926   2.302 -0.3039  0.0765  0.1145
 3001W        W18810  15.745  10.387   1.336 -0.0288  0.0350  0.3690
 3002W        W18811  16.727   8.801  11.861  0.1890  0.0489  0.2030
 3003W        W18812  15.482   4.371  13.546  0.1192  0.3298  0.1571
 3004W        W18813   6.998  10.474   0.921  0.0321 -0.1925  0.0324
 3005W        W18814  13.907  14.748  12.552 -0.1539 -0.3592 -0.0828
 3006W        W18815   6.316  11.350  11.337  0.3600 -0.4128 -0.2654
 3007W        W18816   3.591   1.923  11.715  0.1264  0.1535  0.0374
 3008W        W18817  15.912  14.165   1.759  0.1513 -0.1027  0.4078
 3009W        W18818   5.472   4.284  10.533 -0.2176 -0.0087  0.1654
 3010W        W18819  15.088  14.446  15.092 -0.2313 -0.2456 -0.1502
 3011W        W18820   0.013   1.898  10.865  0.1173  0.1882 -0.0492
 3012W        W18821   3.802   1.563  14.795  0.1401  0.0605 -0.0847
 3013W        W18822   6.781  15.245  13.908 -0.2608  0.3051 -0.1216
 3014W        W18823  10.821  12.007  11.939 -0.1875 -0.1267  0.3855
 3015W        W18824  13.396   0.262   1.760 -0.0711  0.3568  0.1383
 3016W        W18825  16.265   7.930   2.155  0.0213 -0.1710  0.3419
 3017W        W18826  15.338  15.240   4.792  0.2272  0.0694 -0.2224
 3018W        W18827  14.397   5.066  11.330 -0.2905 -0.4463  0.0366
 3019W        W18828  16.093  14.005  13.737  0.2255  0.1707 -0.0514
 3020W        W18829  11.125  17.861   3.957 -0.1101 -0.0605  0.1785
 3021W        W18830  17.807   7.882  13.517  0.0695  0.1274 -0.0085
 3022W        W18831  15.224  15.530  12.066 -0.0653  0.0177  0.1445
 3023W        W18832   6.845   6.048   1.702  0.1508  0.0358  0.0183
 3024W        W18833  16.804  13.010   1.040 -0.1407  0.3183  0.0913
 3025W        W18834   8.628   0.684   3.115 -0.1036  0.4821 -0.0413
 3026W        W18835  16.561   4.811  13.942 -0.2203 -0.0644  0.1820
 3027W        W18836   8.263  12.605   4.015  0.2491  0.1107 -0.1250
 3028W        W18837  10.166   1.376   3.402 -0.2793  0.3103 -0.3863
 3029W        W18838  12.340  11.505   2.711 -0.2095  0.2475  0.0742
 3030W        W18839  19.093  14.555  10.512 -0.3665  0.0810  0.1308
 3031W        W18840  16.864  10.589  14.129 -0.1356 -0.3100  0.0261
 3032W        W18841  15.220   2.130  14.777 -0.0049 -0.1176  0.1960
 3033W        W18842  15.849   2.544  12.517  0.2407  0.0434 -0.2155
 3034W        W18843   8.972   7.370  10.719  0.1611 -0.3861  0.2005
 3035W        W18844   1.913  19.057   3.607 -0.3824 -0.1850  0.1220
 3036W        W18845   8.446  13.455  12.011 -0.1432 -0.0631 -0.1227
 3037W        W18846  14.854   0.131   1.005 -0.0793  0.3162 -0.0283
 3038W        W18847  18.923   7.004  13.963 -0.0825  0.2881  0.1173
 3039W        W18848  18.555  14.187  12.579  0.2695  0.1684  0.0066
 3040W        W18849   7.452   9.947   3.837 -0.0702  0.1312 -0.1847
 3041W        W18850  11.027   0.701   3.167 -0.3711 -0.4040  0.0279
 3042W        W18851  13.870  13.853  10.661  0.2255  0.2808 -0.5986
 3043W        W18852  15.930   1.484  13.702  0.0448 -0.1198 -0.2491
 3044W        W18853   1.050  14.411  14.157 -0.2950  0.4566  0.2683
 3045W        W18854  15.684   9.044   3.696  0.1190  0.1678  0.2496
 3046W        W18855   6.412   2.334   4.883  0.2780 -0.0974  0.0605
 3047W        W18856  11.356   2.150  14.738 -0.2352  0.4410 -0.2728
 3048W        W18857  13.817  10.009  14.384 -0.7362  0.0364 -0.0392
 3049W        W18858   8.059   3.689  12.148  0.4859  0.0129  0.0157
 3050W        W18859  13.620  15.352  11.862  0.0502 -0.1614 -0.1195
 3051W        W18860  15.561  11.821  15.180 -0.0333 -0.0627  0.0328
 3052W        W18861  11.805  11.824  13.927 -0.1955  0.2189  0.3459
 3053W        W18862   1.853  10.440  15.000 -0.2150  0.1681 -0.1691
 3054W        W18863   9.678   9.109  12.611  0.1685  0.4115 -0.0509
 3055W        W18864   7.461   5.840  12.888 -0.1269  0.0237  0.0515
 3056W        W18865  10.553   5.411  14.558  0.0875 -0.1816  0.0862
 3057W        W18866  18.335   9.327   2.853 -0.2005  0.1921  0.2548
 3058W        W18867  16.967   4.594   0.482 -0.2009  0.2158  0.0560
 3059W        W18868   3.666   8.699   1.155  0.1865 -0.2285 -0.2721
 3060W        W18869  12.619   7.182  12.466 -0.0109 -0.0323  0.2157
 3061W        W18870   2.482   2.574   2.539  0.3432 -0.1740 -0.3724
 3062W        W18871   6.604  14.110  13.094 -0.2258 -0.0261  0.0493
 3063W        W18872  10.901   3.235  13.917  0.2665 -0.0254  0.0728
 3064W        W18873   6.972   0.737  10.927  0.2014  0.0819  0.0979
 3065W        W18874  16.562   2.781  14.296 -0.1953  0.1449  0.0999
 3066W        W18875   3.653  17.238  10.228 -0.1409  0.0129  0.1315
 3067W        W18876  18.950  14.397  13.473  0.1986  0.5416  0.1798
 3068W        W18877   3.357   4.707  11.352  0.1949 -0.0290  0.0124
 3069W        W18878  18.105   2.155   5.496  0.0617 -0.0805 -0.1521
 3070W        W18879  15.949  14.062   4.962 -0.0989 -0.1960  0.1566
 3071W        W18880   5.646   5.860   2.868  0.0868 -0.3733 -0.4957
 3072W        W18881   7.113   4.582  14.376  0.3550 -0.0696 -0.1034
 3073W        W18882  10.090  11.988   1.064 -0.2993 -0.1916 -0.0084
 3074W        W18883   2.578   2.839  11.794 -0.0983 -0.4550  0.2851
 3075W        W18884   7.755   4.152   5.491  0.1040 -0.2950 -0.1824
 3076W        W18885  15.440   8.313  12.302  0.2674  0.0282  0.3279
 3077W        W18886  14.075  18.207  12.372  0.0242  0.2554  0.2535
 3078W        W18887   7.372   2.593  13.084 -0.1409 -0.1179 -0.0667
 3079W        W18888   2.192  12.380   3.173 -0.1036 -0.1595 -0.1278
 3080W        W18889  11.146  15.983   1.855 -0.1886  0.2538 -0.3834
 3081W        W18890  14.777   0.207   2.379 -0.0742  0.0956  0.1073
 3082W        W18891   2.940  14.597   1.468 -0.2313  0.0417  0.1911
 3083W        W18892  16.707  15.654  14.635  0.4791  0.2360 -0.3486
 3084W        W18893  16.105   9.604   3.870 -0.1605  0.0442 -0.0228
 3085W        W18894   3.386   1.702  12.082  0.1071 -0.2174  0.1092
 3086W        W18895   9.678  11.221  13.452  0.1072 -0.0700  0.0690
 3087W        W18896   7.257  11.068   3.084  0.1365 -0.2750 -0.1830
 3088W        W18897  13.622   6.368  10.228  0.0279  0.0695 -0.0651
 3089W        W18898   6.868  15.187  14.581 -0.0379 -0.2114  0.1644
 3090W        W18899   4.428   3.769   4.770 -0.1121  0.0140 -0.1328
 3091W        W18900  17.952  11.173   3.418  0.6120  0.1570  0.0031
 3092W        W18901   8.981   9.856   4.898 -0.0181 -0.2347 -0.0540
 3093W        W18902   5.569   5.927   2.273  0.1614  0.2941 -0.0431
 3094W        W18903  15.408   4.906   3.615 -0.2318 -0.1515  0.1683
 3095W        W18904  12.290   6.632  10.383 -0.0702 -0.1897 -0.0288
 3096W        W18905  12.028  12.919  12.420 -0.0681 -0.1546  0.0272
 3097W        W18906   5.201  14.845   4.868  0.4480 -0.0190  0.0045
 3098W        W18907   3.830   0.876  12.183 -0.3935 -0.1707  0.2225
 3099W        W18908   1.040  11.042  10.386  0.0778  0.1786 -0.1747
 3100W        W18909  16.151  10.965  13.639  0.0274 -0.0923 -0.1645
 3101W        W18910  13.635  12.171   1.146  0.0254 -0.1054 -0.0674
 3102W        W18911  14.583   4.645   1.629  0.2052 -0.0239  0.2041
 3103W        W18912  11.205  10.296  11.751 -0.3087  0.0376  0.0681
 3104W        W18913   3.548  13.010   5.610 -0.2132  0.0966  0.0516
 3105W        W18914   1.775   1.255   4.111 -0.0517 -0.0189 -0.4179
 3106W        W18915  12.365  17.338  13.678  0.0340 -0.0428 -0.1069
 3107W        W18916   7.132   3.934  10.910 -0.0214  0.0885  0.3588
 3108W        W18917   8.685   7.994   1.641  0.1676 -0.0170 -0.4585
 3109W        W18918   2.123   6.475   0.928 -0.0727  0.0259  0.0639
 3110W        W18919   5.508  14.244  12.968 -0.1685  0.2552 -0.1729
 3111W        W18920   1.783   9.337  13.518 -0.0569  0.1335  0.1160
 3112W        W18921   5.339  16.442   0.895  0.1062  0.1322 -0.0643
 3113W        W18922  12.539   9.797  10.901  0.2284 -0.3306 -0.1084
 3114W        W18923   2.668  15.795  12.265  0.1223 -0.0615 -0.0107
 3115W        W18924  13.056   8.289   3.601 -0.0431  0.0063 -0.1308
 3116W        W18925   2.217   6.316  13.596 -0.0364 -0.3201  0.4600
 3117W        W18926   6.946  10.265   4.737 -0.0338 -0.0972  0.1166
 3118W        W18927   8.699   9.803   3.552 -0.0226 -0.2550  0.0384
 3119W        W18928   8.549   1.717  13.027 -0.0732 -0.1567  0.2846
 3120W        W18929   9.625  16.222  14.593  0.1221 -0.0179 -0.2707
 3121W        W18930   0.047  16.917   1.407 -0.2004 -0.2444  0.0027
 3122W        W18931   2.412   7.447   4.181 -0.4328 -0.1211  0.0498
 3123W        W18932  15.384  11.140   1.932  0.3999  0.0907 -0.0826
 3124W        W18933  10.931  18.015   1.199  0.1017 -0.2270 -0.1071
 3125W        W18934  15.752   3.229   2.939 -0.0934 -0.1959 -0.1593
 3126W        W18935  15.773   4.179  14.330 -0.0302  0.1237  0.1395
 3127W        W18936  14.388  18.812  10.490  0.1637  0.1203  0.1628
 3128W        W18937  16.034   1.641  12.387 -0.0823 -0.0635  0.0483
 3129W        W18938   0.537  12.307   1.892 -0.0752 -0.0800  0.0315
 3130W        W18939   8.660  10.450  13.934 -0.0903  0.1681 -0.1581
 3131W        W18940  12.582   2.035   4.811 -0.0616 -0.0269 -0.1861
 3132W        W18941  17.428   9.083   3.518 -0.1247 -0.0046  0.1593
 3133W        W18942  15.641   4.352  14.834  0.1075 -0.0879  0.2004
 3134W        W18943  17.321   3.694   4.217  0.2057 -0.1841  0.0885
 3135W        W18944   1.833  12.825  14.820  0.0862  0.0836 -0.2340
 3136W        W18945   1.448  10.011  12.646 -0.3273 -0.0736  0.3057
 3137W        W18946  13.497  11.272  14.415  0.0699  0.0395  0.0072
 3138W        W18947   7.153  11.406   0.369 -0.1740 -0.3700 -0.0325
 3139W        W18948   5.953   0.546  13.380  0.0057  0.0765  0.1851
 3140W        W18949   1.133  11.353  14.688 -0.0581 -0.1719  0.4160
 3141W        W18950   9.474  12.658  12.857  0.1101 -0.2613  0.2688
 3142W        W18951  11.191   4.778   0.340  0.0851  0.0049 -0.1336
 3143W        W18952  11.362  15.231  12.201 -0.3385 -0.1113  0.1870
 3144W        W18953  10.142   3.119   4.413 -0.2649 -0.0194 -0.0970
 3145W        W18954  11.959   5.908  12.588  0.1140 -0.0339  0.1204
 3146W        W18955  18.687  14.833  10.707 -0.1459  0.1121 -0.0636
 3147W        W18956   0.271   8.292  13.469  0.2833 -0.1232 -0.2277
 3148W        W18957   4.248   7.038   2.670  0.1047 -0.2165  0.1976
 3149W        W18958   7.531   3.438   3.080  0.0438 -0.1232  0.0522
 3150W        W18959  16.397  11.444   3.946  0.1680  0.4210 -0.1107
 3151W        W18960  13.567  18.874   1.845  0.0609 -0.1767 -0.1113
 3152W        W18961   0.680  17.141   3.040  0.1785  0.2162  0.1015
 3153W        W18962  18.978   5.765   9.480 -0.1538 -0.3941  0.2198
 3154W        W18963   1.529  14.595   2.560 -0.1050  0.0995 -0.2588
 3155W        W18964  17.039   6.579  13.313  0.2693  0.0169  0.2265
 3156W        W18965  15.105  17.746   0.711 -0.0375  0.0411 -0.1939
 3157W        W18966  14.835  16.128   1.440 -0.2964 -0.2713  0.3972
 3158W        W18967  14.406   7.096  13.927  0.0105 -0.1122  0.0009
 3159W        W18968   7.035   8.939  10.095 -0.1485 -0.0805  0.1000
 3160W        W18969  11.858   9.674  13.115  0.1287  0.1473 -0.0100
 3161W        W18970   2.361   9.389   3.484 -0.0145 -0.2587  0.2636
 3162W        W18971  14.281  14.567   5.884 -0.0211  0.0091 -0.1097
 3163W        W18972  10.263  17.208   1.154  0.1266  0.2739  0.2118
 3164W        W18973   1.908  17.237   2.950 -0.4395  0.1481 -0.1220
 3165W        W18974  11.864  15.392  12.131  0.0661  0.0661 -0.1102
 3166W        W18975   2.096  14.364   0.202  0.0718  0.0319 -0.2495
 3167W        W18976   3.113  12.283  10.265 -0.0107  0.0949  0.1826
 3168W        W18977  16.058  18.995   1.692 -0.2962 -0.0125  0.1781
 3169W        W18978  11.962   6.592   2.272  0.1270  0.0631  0.1440
 3170W        W18979   3.613  17.201  14.957 -0.0207 -0.0513  0.0687
 3171W        W18980   1.278   1.425   1.494  0.0116  0.1708 -0.0524
 3172W        W18981  16.674  10.139  14.916 -0.0508  0.1499 -0.1162
 3173W        W18982  18.121   2.756   3.277 -0.1032  0.3391 -0.0873
 3174W        W18983  14.180  10.751  11.008  0.0497  0.1584 -0.2449
 3175W        W18984   7.317  16.254   3.841 -0.0959 -0.1496  0.1310
 3176W        W18985   4.140   1.582   4.338  0.1139  0.1292  0.2830
 3177W        W18986  12.080   4.472   3.119  0.1373  0.0314 -0.2211
 3178W        W18987  14.168  12.127   5.150 -0.5291  0.0965 -0.1059
 3179W        W18988   5.232   1.058   2.064 -0.0393 -0.0464 -0.2805
 3180W        W18989   2.684   3.568  13.845  0.0358  0.0477  0.0613
 3181W        W18990   2.361   8.897  15.103  0.3080 -0.0506  0.1662
 3182W        W18991   2.867   3.807  15.092  0.0428 -0.1380  0.1826
 3183W        W18992  16.157  10.891  14.609  0.0064  0.0355  0.2170
 3184W        W18993  14.432   8.877   2.669 -0.1913 -0.0209  0.0377
 3185W        W18994  17.191  14.186  13.569  0.3347 -0.4682  0.1083
 3186W        W18995   2.632  17.651  13.224 -0.2140  0.1610  0.1954
 3187W        W18996  18.328  18.018  12.728 -0.5320 -0.1268  0.0604
 3188W        W18997   8.248  12.904   0.881  0.1450 -0.1522 -0.2079
 3189W        W18998   3.207  17.928  10.651  0.4322  0.0997  0.0910
 3190W        W18999   5.941   0.863   2.538  0.0647 -0.1281 -0.1885
 3191W        W19000  13.891   4.294   0.932 -0.2595  0.1403 -0.3432
 3192W        W19001  16.319  11.982   4.002  0.0156 -0.1471  0.1667
 3193W        W19002  16.105   0.353  12.274 -0.1130 -0.1920 -0.0149
 3194W        W19003   1.430   8.632  11.907  0.0775  0.0674  0.0510
 3195W        W19004  11.805  12.177  11.769 -0.2331  0.0370  0.1835
 3196W        W19005   9.232  12.064   0.411 -0.4024  0.0372 -0.3226
 3197W        W19006  10.008  13.692   3.053 -0.2244  0.0871  0.0391
 3198W        W19007  10.145   5.697   9.712 -0.0824 -0.4832 -0.1603
 3199W        W19008   7.223   8.834   3.718  0.1202 -0.1467 -0.0712
 3200W        W19009  13.340  10.465   5.332  0.2371 -0.2359 -0.2800
 3201W        W19010   4.718  13.091  10.154 -0.1022  0.0133  0.0708
 3202W        W19011  13.690  16.970   3.120 -0.6630 -0.0789 -0.1884
 3203W        W19012  13.901   6.618   0.200  0.3702  0.3182 -0.1655
 3204W        W19013  10.344   6.788  14.108 -0.2675 -0.1008  0.5292
 3205W        W19014  17.001   6.350   0.339  0.2081  0.0868 -0.3527
 3206W        W19015   4.652   1.465  11.231 -0.0583  0.0709  0.1532
 3207W        W19016  16.799   6.561  11.932 -0.5599 -0.0385  0.1790
 3208W        W19017  10.551   3.095   1.837 -0.2795 -0.2925 -0.3160
 3209W        W19018   9.752  18.239  11.630 -0.3470  0.0005  0.0501
 3210W        W19019   8.354   8.463   4.439 -0.1368 -0.0006 -0.0100
 3211W        W19020  14.989  16.977  13.394  0.0769 -0.1487  0.1006
 3212W        W19021  10.695   8.358   0.136  0.0735  0.0197 -0.2392
 3213W        W19022  11.481   8.096  11.940  0.3189 -0.0705 -0.1325
 3214W        W19023   2.292  14.163  11.857  0.0022 -0.1421  0.1382
 3215W        W19024   1.414   5.609   3.296  0.1889 -0.2283 -0.1150
 3216W        W19025  11.122   8.914  10.745 -0.0110  0.2836  0.3061
 3217W        W19026   1.244   7.032   1.012  0.1026  0.0568  0.1875
 3218W        W19027   0.327   5.046  15.162 -0.1847  0.0332 -0.1430
 3219W        W19028   6.621  17.279  14.640  0.2684  0.1210  0.0352
 3220W        W19029  13.128   6.496   4.651  0.1881 -0.0005 -0.1287
 3221W        W19030  16.466  18.277  12.102 -0.1016 -0.0518 -0.1305
 3222W        W19031  14.979  12.383  11.474 -0.0131 -0.2394  0.2214
 3223W        W19032  19.132  16.930   2.733  0.2938 -0.5505 -0.0347
 3224W        W19033  14.951   9.911  15.032  0.2263 -0.1721 -0.5153
 3225W        W19034  14.692  13.656   5.818 -0.0189  0.0140 -0.2276
 3226W        W19035  11.284  16.293   3.747  0.0417 -0.3083 -0.0832
 3227W        W19036   6.259  14.510  10.297 -0.1507 -0.1436  0.4412
 3228W        W19037  17.683  16.418   4.303  0.0961 -0.0574  0.2894
 3229W        W19038   3.463   4.585  14.138 -0.1885 -0.0606  0.1466
 3230W        W19039  15.918  10.975   2.678  0.1354  0.0300 -0.4698
 3231W        W19040   9.591  19.131   3.542  0.1023  0.0057  0.1537
 3232W        W19041  15.726  16.391  13.662  0.5518  0.1921  0.0173
 3233W        W19042  18.903   6.978   0.141  0.0889  0.1059 -0.0915
 3234W        W19043   8.750  12.713   3.763 -0.2242 -0.0050 -0.0222
 3235W        W19044  10.288  11.318   3.709 -0.0317  0.1412  0.1114
 3236W        W19045  16.463  12.745   3.423 -0.0583  0.0461  0.3177
 3237W        W19046   6.817  16.884  12.960 -0.0066  0.2301 -0.0746
 3238W        W19047  16.694   6.702  12.921 -0.0803  0.4135 -0.1430
 3239W        W19048  16.105   9.708  14.060 -0.0666  0.3844 -0.0755
 3240W        W19049   3.964  15.023   2.954  0.0738 -0.1622  0.1492
 3241W        W19050   2.653   6.011  11.204  0.0046 -0.0845  0.2704
 3242W        W19051   0.128  13.209  13.966  0.1006  0.0055  0.0094
 3243W        W19052  15.576   5.954   4.382 -0.1167  0.1696 -0.2724
 3244W        W19053  10.710  16.503  12.680  0.3944 -0.0532  0.0343
 3245W        W19054   6.208   2.036  10.960 -0.0453 -0.1790  0.0815
 3246W        W19055  14.054  16.963  12.355  0.1476 -0.1461 -0.0478
 3247W        W19056   3.086  12.101   3.581 -0.0210 -0.0419 -0.2060
 3248W        W19057   3.789   2.975   1.398 -0.4438  0.3949 -0.0242
 3249W        W19058  10.231   5.928  14.051  0.2347 -0.1851 -0.0283
 3250W        W19059  13.377   6.221   0.366 -0.0965 -0.2724  0.0225
 3251W        W19060  10.654  10.902   3.814  0.2247  0.4081 -0.0920
 3252W        W19061   5.433  15.260  12.962 -0.1174 -0.2215 -0.1006
 3253W        W19062   6.085  12.702  13.594 -0.0125  0.3076 -0.2649
 3254W        W19063  17.572  15.015   2.317  0.0857 -0.2772 -0.0836
 3255W        W19064   9.633   6.435   2.715 -0.1307 -0.0392  0.3489
 3256W        W19065   9.461  17.626   1.764 -0.1957 -0.1080 -0.0483
 3257W        W19066  14.640   0.457  10.484  0.2506  0.5232 -0.1588
 3258W        W19067   2.687  11.126  14.692  0.0252  0.0095 -0.0561
 3259W        W19068   8.334   1.690   3.060 -0.1474 -0.2793  0.0688
 3260W        W19069  13.925  14.445  12.008  0.0496 -0.2273  0.2235
 3261W        W19070   2.566   1.363   1.444 -0.0349 -0.2702 -0.1488
 3262W        W19071  12.935   8.659   2.337 -0.0012  0.0576  0.0665
 3263W        W19072  15.430   1.889   0.457 -0.1947  0.1087 -0.2902
 3264W        W19073  18.599   0.130  11.546  0.1764  0.2507  0.1087
 3265W        W19074  12.663  16.753  11.402  0.2956  0.3807 -0.1274
 3266W        W19075   8.492  16.171  12.527 -0.0249 -0.1339  0.0424
 3267W        W19076   6.419   2.825   5.184 -0.0079 -0.0849  0.0838
 3268W        W19077   8.482  13.767   1.896  0.1662 -0.4288 -0.3514
 3269W        W19078   6.300  13.426  14.483 -0.1012 -0.1392  0.0091
 3270W        W19079   7.589  10.833   1.885 -0.1731  0.0972 -0.1879
 3271W        W19080  16.870  10.136   2.343  0.2193  0.2731 -0.2045
 3272W        W19081   5.759   0.373   4.637  0.0445  0.1451 -0.3056
 3273W        W19082  10.029   4.795   3.668  0.2434  0.1769  0.0762
 3274W        W19083   6.075  14.493  13.773 -0.0799 -0.0214 -0.3235
 3275W        W19084  17.228  15.010   1.890 -0.0606  0.2234  0.1069
 3276W        W19085  10.037   2.842  10.351 -0.2639 -0.1818 -0.2537
 3277W        W19086  16.999   5.878   3.643 -0.1036 -0.1590  0.2941
 3278W        W19087  11.327   9.245  14.010  0.0790  0.0292 -0.0882
 3279W        W19088  13.845  13.753  11.163 -0.0440  0.1962  0.1699
 3280W        W19089  13.473  16.180  12.681 -0.1730 -0.3409  0.0576
 3281W        W19090   6.729  11.143   3.140 -0.2564  0.1391  0.1361
 3282W        W19091   9.643  12.864   0.187  0.2721 -0.2748  0.1575
 3283W        W19092  11.682   0.847  13.728  0.0912 -0.1616  0.0678
 3284W        W19093  10.688  18.180  12.543  0.3476 -0.0767 -0.1321
 3285W        W19094   3.002  15.883   0.621 -0.1273  0.0894 -0.2325
 3286W        W19095  10.393   4.407  12.168 -0.0005  0.3106 -0.0866
 3287W        W19096  18.110  15.593   4.541 -0.0099  0.0374  0.2753
 3288W        W19097   9.649  16.133   1.994  0.1871 -0.0505  0.3212
 3289W        W19098   8.601   5.473   1.050  0.0513  0.1521 -0.1329
 3290W        W19099   7.480   9.169  11.240  0.4517  0.1444  0.1642
 3291W        W19100  10.661   6.623  12.721  0.1436  0.0598  0.0877
 3292W        W19101  16.999   7.527   1.580 -0.0754  0.1904 -0.3723
 3293W        W19102   9.976   8.781  12.364 -0.1504  0.0064 -0.0440
 3294W        W19103   1.144   3.550   4.731  0.0270  0.1621 -0.3217
 3295W        W19104   6.341  12.753  11.252  0.0150 -0.0591 -0.1152
 3296W        W19105  16.458   3.096   2.203  0.0468 -0.2772  0.0983
 3297W        W19106  16.690  13.544  12.779  0.2815  0.0990 -0.2318
 3298W        W19107  11.879  17.585   5.856  0.3693 -0.0187  0.0660
 3299W        W19108  11.192   1.700   4.669 -0.1189  0.1249  0.0310
 3300W        W19109  11.068  13.000  13.829  0.0636  0.0236 -0.0348
 3301W        W19110  18.771  17.748  11.366  0.0309 -0.0660 -0.0388
 3302W        W19111   3.417   9.527   2.582 -0.1544 -0.2426 -0.1811
 3303W        W19112   6.796   8.327  12.406 -0.1945  0.2140 -0.1819
 3304W        W19113  11.619   3.945   2.189 -0.0623 -0.0682  0.2271
 3305W        W19114   1.436  13.517   0.355 -0.2560  0.3616  0.3255
 3306W        W19115   2.944   9.142  11.897  0.0307  0.1146 -0.1313
 3307W        W19116  17.214  11.164  12.303 -0.0481  0.1920 -0.1664
 3308W        W19117  10.036   4.684   4.580  0.3011  0.0116  0.1446
 3309W        W19118  13.405   8.594   4.945  0.1192  0.3128 -0.3306
 3310W        W19119  13.967  11.554  13.068  0.1599  0.0111  0.0179
 3311W        W19120  16.124  11.672   1.816 -0.1531  0.0374  0.2735
 3312W        W19121   8.625   2.755   3.804  0.1286 -0.1617 -0.1862
 3313W        W19122  11.775   9.085  13.138  0.0466 -0.1585 -0.0119
 3314W        W19123  16.170   4.906  14.632  0.1871  0.0100 -0.0711
 3315W        W19124   0.021   7.530   0.322  0.2197  0.0411  0.1531
 3316W        W19125  18.304  14.245   2.119 -0.3396 -0.1466  0.1910
 3317W        W19126  13.525   8.409   1.104  0.1380  0.0261  0.2420
 3318W        W19127   2.720  17.442  14.157 -0.0810  0.2190  0.2522
 3319W        W19128   9.547   0.359  12.275  0.0569  0.0058 -0.0010
 3320W        W19129   3.600  18.457  14.998 -0.1455  0.0576  0.1978
 3321W        W19130   6.271   4.783   0.426 -0.1559  0.0248 -0.0118
 3322W        W19131   1.765   0.526  14.763 -0.2207  0.0311  0.1250
 3323W        W19132  11.210  13.669  12.067 -0.0373 -0.2227  0.2095
 3324W        W19133   2.103  18.357  10.861  0.1700 -0.1074  0.0077
 3325W        W19134  13.528  12.086   1.782 -0.2465 -0.0412 -0.5661
 3326W        W19135  16.485   7.477  10.737  0.1401 -0.1673 -0.2332
 3327W        W19136  10.049  17.216   3.472 -0.4659 -0.1321  0.2241
 3328W        W19137  18.411  12.150   1.649 -0.2227  0.1490 -0.2758
 3329W        W19138   5.312  14.720   1.803  0.1128 -0.2241 -0.1059
 3330W        W19139   8.405   7.743  12.423  0.2809  0.2151  0.0822
 3331W        W19140  14.098   3.829  12.899  0.1275 -0.1190  0.0342
 3332W        W19141   5.571   8.614  11.643 -0.0135  0.2142  0.0339
 3333W        W19142  12.817   0.416  10.747  0.2206  0.0100  0.1917
 3334W        W19143  13.079  16.298   5.826 -0.0672 -0.0415  0.2679
 3335W        W19144   2.156  12.937  13.528  0.2529 -0.1761 -0.3056
 3336W        W19145  12.382   5.987  14.881 -0.1321  0.1376 -0.1573
 3337W        W19146  13.720  15.379   3.677 -0.0998  0.1852  0.0431
 3338W        W19147   2.760  14.347   3.675 -0.0542  0.1995 -0.2125
 3339W        W19148   1.309   0.021   4.022  0.2060  0.0355 -0.0907
 3340W        W19149   1.297   2.108   1.970  0.0486  0.0204 -0.2248
 3341W        W19150  18.698  15.064   5.554 -0.0736 -0.0058  0.2201
 3342W        W19151   1.994   0.473   4.803  0.0997 -0.0287 -0.5582
 3343W        W19152  10.511   9.544  12.658 -0.0642  0.4225 -0.1710
 3344W        W19153   8.716   5.123   4.661 -0.0653 -0.2495 -0.0309
 3345W        W19154  17.857   5.169   2.252 -0.1839  0.0746  0.2301
 3346W        W19155   2.786   7.028  10.977  0.0707 -0.0065 -0.3052
 3347W        W19156   5.454  10.579  14.401  0.1952  0.2468  0.0710
 3348W        W19157  17.503   8.849   1.377 -0.1605  0.0031 -0.3758
 3349W        W19158   6.245  13.583   1.273 -0.1577 -0.0919 -0.0755
 3350W        W19159   9.231   9.508   0.003  0.1283 -0.3422 -0.0923
 3351W        W19160   2.481   8.249  12.287 -0.0112 -0.1833  0.0600
 3352W        W19161   9.180   7.747  10.380  0.0076 -0.0505  0.0618
 3353W        W19162  16.990  15.022  12.443  0.2435  0.0548  0.5488
 3354W        W19163   5.487   9.417  10.879 -0.3515 -0.0227 -0.1261
 3355W        W19164  16.413   8.438   0.691 -0.0112 -0.1112  0.0138
 3356W        W19165  13.735  18.149   3.066 -0.0051  0.1883  0.1121
 3357W        W19166  16.538   4.456   0.136 -0.1277 -0.2155 -0.1342
 3358W        W19167  13.812  10.032   1.865  0.1971 -0.1168 -0.4351
 3359W        W19168   7.292  18.627   5.846  0.0019  0.2759 -0.1544
 3360W        W19169  14.844   7.788  10.667  0.4010  0.1657 -0.0008
 3361W        W19170   2.722   7.467   0.122  0.0011 -0.1856 -0.3011
 3362W        W19171  14.652  17.505   2.318  0.0231 -0.0487  0.4768
 3363W        W19172   8.772   2.287   4.323  0.3307 -0.1008 -0.1023
 3364W        W19173  11.337  10.041   0.457 -0.0382  0.0722 -0.0209
 3365W        W19174   7.012   9.942  11.406 -0.0948  0.0494 -0.0528
 3366W        W19175   4.104   4.228   3.808 -0.2122 -0.0077  0.0874
 3367W        W19176   3.921  14.062   5.254 -0.1428  0.2483  0.0838
 3368W        W19177  11.760   9.515  10.896  0.0274  0.3883 -0.1299
 3369W        W19178   4.976  18.131   0.838  0.0272  0.0280 -0.2885
 3370W        W19179   5.568  11.359   3.591  0.1135  0.3207  0.1703
 3371W        W19180   0.698   5.502   5.194 -0.0381  0.1603  0.2014
 3372W        W19181   3.356  11.283  13.854  0.0064 -0.1871  0.2138
 3373W        W19182  13.591   9.095   4.382 -0.0832 -0.2846  0.0966
 3374W        W19183  13.546   2.199  13.630 -0.2479  0.1344  0.1751
 3375W        W19184  14.767  15.355  12.792 -0.0167 -0.1125  0.0998
 3376W        W19185   6.088  13.661  15.001 -0.0461  0.3392 -0.3281
 3377W        W19186   2.904   1.981   3.745 -0.1664 -0.0332 -0.2015
 3378W        W19187  16.342   0.214   1.619 -0.0217  0.2327  0.1700
 3379W        W19188   1.581   7.523   2.913 -0.0415 -0.1380  0.1950
 3380W        W19189   1.808   0.287  12.785 -0.1526  0.3415 -0.2811
 3381W        W19190  11.584  15.296   4.372  0.1129 -0.0205  0.3604
 3382W        W19191   0.333   6.402  14.573  0.0220  0.0168  0.1760
 3383W        W19192  17.646   2.522   6.364 -0.3388 -0.0623 -0.4231
 3384W        W19193   8.150   1.715   0.177 -0.2419  0.0646 -0.3409
 3385W        W19194  16.439  15.895   4.429 -0.2134 -0.3414  0.1831
 3386W        W19195  12.511  15.952  11.891  0.0197  0.0027  0.2343
 3387W        W19196  12.167  14.281  13.562  0.0239 -0.0547 -0.1260
 3388W        W19197  17.771  16.007   1.486  0.0716  0.1577 -0.1462
 3389W        W19198   9.791   1.611  11.410 -0.2405 -0.1979 -0.2884
 3390W        W19199  11.756   9.978   4.193 -0.1636  0.1771  0.1510
 3391W        W19200   4.065   1.275  10.615 -0.2486  0.1260 -0.0061
 3392W        W19201   4.534  12.071  11.097  0.3160  0.0551 -0.1780
 3393W        W19202   7.423  18.924  14.405 -0.1635  0.1424 -0.2350
 3394W        W19203  17.116   1.861  13.261 -0.1701  0.0431 -0.1262
 3395W        W19204  18.550   1.976  14.222  0.3428 -0.0287  0.1690
 3396W        W19205  15.759   6.894  12.569 -0.0674 -0.0275 -0.0021
 3397W        W19206   4.779   3.393  10.679  0.1368  0.1902  0.2365
 3398W        W19207   6.819   6.531   3.176 -0.0183  0.1429 -0.0374
 3399W        W19208   4.094  17.340  13.718  0.1421 -0.0725  0.3154
 3400W        W19209   4.210  16.662  12.026 -0.1447 -0.1658 -0.2089
 3401W        W19210  15.703   7.209   4.500 -0.0916  0.3048  0.0221
 3402W        W19211  13.555   2.564   3.344 -0.2594  0.4219 -0.2198
 3403W        W19212   9.742   7.128  14.206 -0.1542 -0.0511 -0.2846
 3404W        W19213   3.476  13.120   1.362 -0.0409  0.2014 -0.0229
 3405W        W19214   2.988  14.761  12.294 -0.1114 -0.1057  0.0818
 3406W        W19215  12.971   9.796  13.718  0.1982  0.1403 -0.1617
 3407W        W19216   2.344  12.914   1.489 -0.3679 -0.0186 -0.6740
 3408W        W19217   2.150   5.860  11.301  0.2968 -0.0546  0.1734
 3409W        W19218   7.349  16.211  11.023 -0.0887 -0.1604  0.0253
 3410W        W19219   7.705  13.688  14.455  0.1036  0.2497 -0.1090
 3411W        W19220   1.153  13.922   0.551  0.0144  0.0358 -0.0203
 3412W        W19221   6.085  10.918  14.140  0.0601  0.1473 -0.0790
 3413W        W19222   3.174   1.256  11.117  0.0181 -0.0682  0.1688
 3414W        W19223  16.115   6.864   2.760 -0.1873 -0.0694 -0.0897
 3415W        W19224   0.118   3.855  10.561  0.0069  0.0604 -0.0932
 3416W        W19225   1.458  11.239   2.626 -0.0632 -0.2700  0.2362
 3417W        W19226  15.713   3.412  11.355  0.1770 -0.0835 -0.0555
 3418W        W19227   3.325   3.955   4.230  0.0831  0.0708 -0.2338
 3419W        W19228  12.129  10.317   1.120  0.1642  0.1116 -0.1536
 3420W        W19229   9.407   6.051  14.649 -0.0908 -0.2377  0.3276
 3421W        W19230   8.807   0.765   0.989  0.1177 -0.3485  0.1236
 3422W        W19231   1.613   9.616   4.636 -0.3669 -0.1191  0.3918
 3423W        W19232   4.415   6.808  13.060  0.3281 -0.2999 -0.0422
 3424W        W19233   4.677   9.975  13.257 -0.0132  0.1033  0.2432
 3425W        W19234  13.037   7.419   3.075 -0.2421 -0.0316 -0.0317
 3426W        W19235   8.422  17.229  10.677  0.0142  0.1233  0.0186
 3427W        W19236  14.971   4.584  13.529  0.1252  0.4850  0.2670
 3428W        W19237  14.088   5.665  11.701  0.1949 -0.2443  0.0138
 3429W        W19238   9.474  13.618  14.816 -0.0427  0.1135  0.0327
 3430W        W19239  11.468  16.612   4.109 -0.0096  0.1037 -0.0176
 3431W        W19240  19.097  17.297  15.080  0.0261 -0.2318 -0.1026
 3432W        W19241  17.280   8.543   3.386  0.2561  0.1052  0.1783
 3433W        W19242  18.928   8.197  13.536  0.2716 -0.0017  0.2884
 3434W        W19243   2.854  17.190  13.369 -0.3636  0.0284 -0.0861
 3435W        W19244  11.748   3.700  11.437  0.0266 -0.2266 -0.2042
 3436W        W19245  16.767   6.235   2.865  0.0652 -0.1527 -0.1106
 3437W        W19246   7.889  15.798   0.329 -0.0564 -0.1272  0.1829
 3438W        W19247   8.721   7.666   1.119 -0.2046 -0.2622 -0.1064
 3439W        W19248   9.426   2.268  12.753  0.2475  0.1088  0.0972
 3440W        W19249  13.082  11.619   5.024 -0.1049  0.2182 -0.1308
 3441W        W19250  14.398  11.716   0.927 -0.5552 -0.2412  0.2882
 3442W        W19251   3.416  11.977   4.855  0.0582 -0.1800  0.0653
 3443W        W19252   2.841   9.688   2.491 -0.1392  0.0239 -0.4313
 3444W        W19253  16.840   2.150  14.679  0.1824 -0.2615  0.0930
 3445W        W19254  12.401  10.817   2.547  0.1474 -0.0208 -0.1526
 3446W        W19255  16.520  16.054  13.165  0.0175 -0.1332  0.0612
 3447W        W19256   8.374   9.153  11.819 -0.0199  0.0483 -0.0608
 3448W        W19257   2.693  18.583   3.245  0.2656 -0.1682 -0.1807
 3449W        W19258  18.201  16.173  15.066  0.0803 -0.1855  0.2489
 3450W        W19259  10.767   3.708   3.608  0.3024 -0.2748  0.2639
 3451W        W19260  12.472   4.096   3.008  0.0935  0.2419 -0.1184
 3452W        W19261  17.925   8.062  14.165 -0.0735 -0.0031 -0.1262
 3453W        W19262   3.546   8.643  10.825 -0.1416  0.1594 -0.0568
 3454W        W19263  10.887   7.904  12.793  0.2613 -0.0094  0.1251
 3455W        W19264  11.750   7.044   2.099  0.0270 -0.3182 -0.1310
 3456W        W19265  11.875   5.810  13.608 -0.2094  0.2163  0.0546
 3457W        W19266  17.361   9.190   1.769 -0.1077 -0.0877  0.1334
 3458W        W19267   9.774   9.491  13.571  0.0220 -0.0788  0.0475
 3459W        W19268   0.878   0.287   3.478  0.3630 -0.2319  0.2280
 3460W        W19269  18.348  11.113  14.339 -0.1247 -0.2820  0.1344
 3461W        W19270  10.968  13.286   4.190 -0.1509 -0.1832 -0.0351
 3462W        W19271  10.354   8.017  12.781 -0.1448  0.1468 -0.1234
 3463W        W19272  11.641   7.703   0.299  0.1856  0.0977 -0.1609
 3464W        W19273   0.971  17.896   3.536 -0.2359 -0.0819 -0.1398
 3465W        W19274  18.669  15.587   4.757 -0.1764 -0.1556 -0.1070
 3466W        W19275  16.433  15.424   5.288 -0.1131  0.3793  0.1598
 3467W        W19276  14.056   4.003  13.977  0.2889  0.1037  0.0753
 3468W        W19277   7.653   6.375   3.464 -0.1922 -0.4387 -0.4672
 3469W        W19278  16.126   7.576   4.433 -0.2917 -0.0924 -0.1758
 3470W        W19279  10.908   0.056  13.018 -0.2039 -0.2105  0.0640
 3471W        W19280   4.324  14.546   0.429  0.0279 -0.3044 -0.1289
 3472W        W19281  11.880   7.472  14.522  0.2469  0.1132  0.1496
 3473W        W19282  15.944   9.946   3.205  0.2059  0.2636 -0.0914
 3474W        W19283   5.763   6.316   3.060  0.1270 -0.1199 -0.1082
 3475W        W19284  10.867   6.130   3.679 -0.1513  0.0543 -0.0764
 3476W        W19285  18.412   9.872   1.769 -0.0080  0.0261 -0.1038
 3477W        W19286  13.234  14.932   0.046  0.1974  0.3112 -0.3487
 3478W        W19287   8.699   6.883   3.208 -0.2577  0.2962  0.2725
 3479W        W19288   1.277  11.863  14.950  0.4154 -0.0075  0.1746
 3480W        W19289  15.225  17.732   1.523 -0.1489  0.1376 -0.0492
 3481W        W19290   5.808  17.135  13.296  0.0641  0.0799 -0.0916
 3482W        W19291   2.415  17.498   2.240  0.2096  0.0173  0.2253
 3483W        W19292  18.615  14.035  13.462 -0.1096 -0.2129 -0.0364
 3484W        W19293   6.755   9.855   1.566 -0.2223  0.1332  0.1342
 3485W        W19294  15.706  15.566  12.305  0.0724 -0.2554 -0.0557
 3486W        W19295   6.598   2.704   3.252  0.0474 -0.1299  0.1788
 3487W        W19296   4.924   0.754  13.303 -0.3149  0.2341  0.2327
 3488W        W19297   2.044   2.993  12.971 -0.0365 -0.0783 -0.2528
 3489W        W19298   1.759   8.811   0.211 -0.3659 -0.2079  0.0896
 3490W        W19299  17.930   8.355   0.945  0.2580  0.0097  0.0728
 3491W        W19300  14.512   6.377   2.226 -0.1141  0.0940  0.1880
 3492W        W19301  15.111   8.843  12.971  0.0878 -0.1347 -0.1071
 3493W        W19302   4.016  12.591  11.388  0.1366  0.2967  0.2043
 3494W        W19303  10.953  16.878  15.127 -0.1204 -0.0371 -0.1481
 3495W        W19304   7.748   8.735   2.432  0.1404 -0.3068 -0.4617
 3496W        W19305   9.637  10.906   3.846  0.1913  0.0944  0.2765
 3497W        W19306   6.653  13.471   4.543 -0.2684  0.1872 -0.1748
 3498W        W19307  17.649   3.437   4.460  0.1457 -0.0731 -0.4495
 3499W        W19308  13.997   8.419  14.092 -0.0863  0.0151 -0.3410
 3500W        W19309  12.186   7.880  14.425 -0.0076 -0.2257 -0.2084
 3501W        W19310   0.669   0.128  15.094 -0.1900  0.0451  0.2056
 3502W        W19311  18.603   5.398   1.301  0.2838  0.0098  0.2496
 3503W        W19312   8.177  17.339  11.583 -0.1653  0.1341 -0.0167
 3504W        W19313   0.741   2.208  10.181  0.0947 -0.0247  0.2339
 3505W        W19314   4.594   8.396   4.799  0.1176 -0.0940 -0.5862
 3506W        W19315   0.716   9.453  13.400 -0.0755  0.0453  0.0259
 3507W        W19316   4.828  14.384   3.518 -0.1159 -0.1603  0.1219
 3508W        W19317  13.644   2.511   0.030 -0.0051  0.0813 -0.0790
 3509W        W19318   9.109  13.362  14.362  0.0804  0.0081  0.0562
 3510W        W19319   2.725  15.769  14.032  0.2269 -0.0505  0.1896
 3511W        W19320   6.961  10.840   3.483  0.1877  0.1025 -0.0785
 3512W        W19321   0.510   9.106   5.000 -0.3081  0.1355 -0.0546
 3513W        W19322   9.348   9.845   3.247  0.2120 -0.1638  0.1935
 3514W        W19323  14.487   6.935  12.419 -0.2018  0.2170 -0.1438
 3515W        W19324   2.288   7.767  10.673  0.3851  0.2299 -0.0380
 3516W        W19325  18.691   3.179  10.861  0.1994 -0.4078 -0.0207
 3517W        W19326   5.793  15.135   1.239 -0.6895 -0.2518  0.1575
 3518W        W19327   1.596   4.871   4.390 -0.2177 -0.0497  0.0937
 3519W        W19328   8.215   7.820   3.734  0.2690  0.0644  0.1803
 3520W        W19329   0.653  12.766   2.797  0.2125  0.0522 -0.0940
 3521W        W19330  14.287   5.818   0.430 -0.1021 -0.4365  0.3213
 3522W        W19331  13.863   8.738   0.281 -0.3314  0.1724 -0.1129
 3523W        W19332   0.863   4.939   2.231  0.0042 -0.0557  0.0466
 3524W        W19333   5.725   5.532   3.223  0.0358  0.2042  0.1232
 3525W        W19334   3.486   4.938  10.861 -0.0595  0.0984  0.1331
 3526W        W19335  17.453  14.524  11.290 -0.0314  0.1128  0.1315
 3527W        W19336   2.482   6.365   3.528 -0.1981  0.0277  0.2549
 3528W        W19337   4.190  12.241   5.328  0.1509 -0.2419 -0.1164
 3529W        W19338   2.676  15.657  15.034 -0.2755 -0.0944  0.0535
 3530W        W19339   3.998   9.870   4.361  0.1041 -0.1662  0.2460
 3531W        W19340   9.720  13.081  11.655  0.1679 -0.2181 -0.1853
 3532W        W19341  14.434   8.400  12.218 -0.1565  0.1693 -0.0967
 3533W        W19342  15.587   5.937  12.625  0.1303  0.1230 -0.1309
 3534W        W19343   9.768  13.326  13.801 -0.0273  0.0465 -0.3104
 3535W        W19344  12.762   1.437   3.380  0.3573  0.3721 -0.1325
 3536W        W19345  12.513   5.039   0.045 -0.4457  0.2909 -0.2051
 3537W        W19346  15.299   7.396   0.944  0.0745  0.2829 -0.1726
 3538W        W19347  15.095   5.812   9.400  0.1836  0.0212 -0.2274
 3539W        W19348   3.929  17.576  15.155 -0.0128  0.2089  0.0172
 3540W        W19349  11.951   4.331   0.911 -0.0218 -0.1992 -0.1859
 3541W        W19350   6.383   7.824   9.344 -0.0958  0.0758  0.3169
 3542W        W19351   8.996  11.631  11.834 -0.0109 -0.2422 -0.1033
 3543W        W19352  11.412  17.828   1.786 -0.2056  0.2460  0.2623
 3544W        W19353   6.516   6.570   1.411 -0.2116 -0.2367 -0.0733
 3545W        W19354   6.144   8.170  11.381 -0.2468  0.0451  0.0647
 3546W        W19355  11.879   9.102  11.228 -0.0430 -0.0742 -0.0728
 3547W        W19356   1.682   3.460  13.512  0.1181  0.0140 -0.2612
 3548W        W19357  10.562  19.047   5.272  0.1629  0.5001  0.1416
 3549W        W19358  12.722  15.162  10.268  0.2441 -0.1397 -0.1753
 3550W        W19359  10.007   6.923   2.905  0.0330  0.0843 -0.1795
 3551W        W19360   9.960   4.310   0.101  0.0227  0.1684 -0.0484
 3552W        W19361  16.719  10.851   3.904 -0.2667  0.0372  0.3121
 3553W        W19362   3.156  15.790  10.466  0.1302  0.2160 -0.0708
 3554W        W19363   6.474   9.027  14.363 -0.1960  0.2911  0.0775
 3555W        W19364  12.908   5.933  15.152  0.1465 -0.0098 -0.0810
 3556W        W19365  15.428   5.778   3.935 -0.0580 -0.0460 -0.0094
 3557W        W19366  17.758   2.783   0.852 -0.0078  0.1120 -0.1904
 3558W        W19367   9.559   7.798   9.694  0.1254 -0.1374 -0.0556
 3559W        W19368   4.555   0.463  13.438 -0.4040  0.3040  0.0793
 3560W        W19369  14.519  10.235   2.687 -0.3694  0.1768  0.1012
 3561W        W19370  10.172   0.784   2.804  0.0248 -0.4005 -0.0129
 3562W        W19371  17.467   3.812   0.872 -0.2765 -0.2199  0.2799
 3563W        W19372   3.958   0.018   0.248  0.1620  0.0158 -0.1426
 3564W        W19373   3.504   7.939  14.942 -0.2376 -0.2374 -0.0423
 3565W        W19374  11.164  16.305   5.252 -0.2515 -0.2263  0.0401
 3566W        W19375  17.693   7.639   3.082  0.0565  0.1104  0.1621
 3567W        W19376   8.624   3.720   3.967 -0.2083  0.2294 -0.0340
 3568W        W19377  16.117  14.767   1.352  0.3406  0.0388  0.1183
 3569W        W19378   6.623   0.718   3.157  0.1646  0.0555 -0.3693
 3570W        W19379  18.228  11.964  12.659 -0.3070 -0.0426 -0.2318
 3571W        W19380  18.318  16.121  11.798  0.1579 -0.2038  0.0181
 3572W        W19381   0.879  11.772   2.815  0.2913 -0.0214 -0.2945
 3573W        W19382   8.244   9.243  14.441 -0.2104 -0.0704 -0.3932
 3574W        W19383   1.888   2.176  12.025 -0.0926  0.3195  0.2698
 3575W        W19384  19.033   0.215   3.217 -0.1459  0.0998 -0.0293
 3576W        W19385  11.461   7.514  13.580  0.1163  0.1211  0.0008
 3577W        W19386  17.321  19.058  14.646 -0.0843  0.1750 -0.0201
 3578W        W19387   2.578  12.117   4.316 -0.3939  0.0252  0.1856
 3579W        W19388   1.551   0.114   4.481 -0.1164 -0.2141  0.1826
 3580W        W19389  14.858   8.655   3.631  0.0452 -0.2564 -0.1728
 3581W        W19390   1.820  10.388  13.774 -0.3010 -0.1857 -0.2036
 3582W        W19391   9.975  12.393  12.713 -0.0258  0.0938 -0.3706
 3583W        W19392   0.095   0.814   4.681 -0.1549 -0.1871  0.0948
 3584W        W19393  19.014  12.418   2.538  0.2274  0.0640 -0.2185
 3585W        W19394   8.213  15.163   4.564 -0.1720 -0.3846 -0.1865
 3586W        W19395   9.859  14.779   2.256  0.1361 -0.0132 -0.0331
 3587W        W19396  10.109  16.916   2.018  0.2692  0.1499 -0.1730
 3588W        W19397  15.767  17.930  13.990  0.0483 -0.5114  0.1316
 3589W        W19398   6.559   1.101  13.827  0.1219  0.1456 -0.1887
 3590W        W19399   5.962  17.675   2.857  0.1477  0.0418  0.0343
 3591W        W19400   6.709  16.930   4.410 -0.1301 -0.1506  0.0691
 3592W        W19401  10.575  18.940  12.287  0.2771 -0.1397 -0.2122
 3593W        W19402   1.030   1.310   4.139  0.2522  0.2609 -0.1177
 3594W        W19403  11.942  12.420  12.820 -0.0849 -0.0152  0.2182
 3595W        W19404   9.913  13.072   2.163  0.0683  0.0067 -0.0336
 3596W        W19405  11.793   1.096  11.196 -0.0366 -0.0126 -0.0654
 3597W        W19406   2.415   5.130   2.724 -0.1409  0.1176 -0.1072
 3598W        W19407  11.865  10.950  13.541 -0.0592  0.0505 -0.1015
 3599W        W19408   0.700  10.601  14.640  0.0496  0.4523 -0.0893
 3600W        W19409   2.940   8.296   0.203 -0.0805 -0.0215  0.1007
 3601W        W19410   4.211   0.413  12.472  0.0142  0.2784 -0.2739
 3602W        W19411   9.764   7.592   1.183  0.1419  0.2078  0.1853
 3603W        W19412   0.644  10.602  14.040 -0.0802 -0.3240 -0.3846
 3604W        W19413   3.913   9.360  11.558  0.1920 -0.2944 -0.2146
 3605W        W19414  14.397   5.932   2.938  0.2922  0.0206 -0.4492
 3606W        W19415  11.034   0.644  13.060  0.0354 -0.1220 -0.3132
 3607W        W19416  11.072   9.588  12.153 -0.2075  0.2840 -0.2413
 3608W        W19417  17.409   0.555  12.258  0.0198  0.0801 -0.1823
 3609W        W19418  11.039   3.032   2.632  0.0121  0.0740  0.5042
 3610W        W19419   2.656   4.798  14.519 -0.1407 -0.3356 -0.1012
 3611W        W19420  16.603  10.836   3.064  0.2057  0.1789 -0.1807
 3612W        W19421  18.232  13.944  12.972 -0.0860 -0.4080  0.1372
 3613W        W19422  15.947  11.606   4.303  0.3430  0.0217  0.1200
 3614W        W19423   6.401   9.994   3.749 -0.2428  0.4612  0.0163
 3615W        W19424   5.021  10.724  12.635  0.2333  0.0916 -0.0380
 3616W        W19425  13.215   9.522  14.033 -0.4717  0.1339 -0.2351
 3617W        W19426  17.934  12.636  10.189  0.0175  0.0500 -0.1809
 3618W        W19427  12.399   4.532  11.415 -0.1649  0.1269  0.1088
 3619W        W19428   8.696   7.721  11.565  0.0876  0.2217 -0.0004
 3620W        W19429   1.780  17.757   2.878 -0.1166 -0.0871 -0.0425
 3621W        W19430  17.473   7.592  10.749  0.1618  0.0269 -0.0348
 3622W        W19431  10.228  15.886   0.403 -0.0377 -0.0496  0.0343
 3623W        W19432   5.336  15.753   0.830  0.1677  0.1852 -0.1433
 3624W        W19433  10.594   3.349   4.512  0.0082 -0.0240 -0.1778
 3625W        W19434  12.933  16.170   0.671 -0.0207  0.2777  0.1282
 3626W        W19435   8.970   0.423   2.748  0.0659  0.2807  0.1698
 3627W        W19436  12.404  12.620  12.651 -0.0760 -0.2150 -0.1127
 3628W        W19437  14.636  18.580   0.175 -0.4195  0.1811 -0.2607
 3629W        W19438  17.414   2.281   0.880 -0.1036 -0.0002 -0.2310
 3630W        W19439  12.585  16.098   4.059 -0.0749 -0.2802  0.0756
 3631W        W19440  17.597   7.441  14.022  0.1642  0.3514 -0.3056
 3632W        W19441  10.815   1.799   4.186  0.1991  0.1644  0.0642
 3633W        W19442   1.139  10.416   1.687 -0.0693 -0.1702  0.1192
 3634W        W19443   5.521  16.443  13.338 -0.0223  0.2303  0.3250
 3635W        W19444   1.425   5.737  10.817  0.0072  0.1220  0.1170
 3636W        W19445  17.973  11.522  13.172  0.0871  0.0044 -0.0776
 3637W        W19446   3.958   9.499  13.330 -0.1372 -0.0980  0.0907
 3638W        W19447  10.293   8.552   4.456  0.4833  0.0734 -0.0596
 3639W        W19448  16.943   7.877   4.041 -0.1000 -0.2448 -0.0262
 3640W        W19449   3.667  12.697   0.961  0.0485 -0.1774 -0.2168
 3641W        W19450  11.985   4.526   4.598  0.2802  0.0498  0.0671
 3642W        W19451  10.956   3.371  12.339 -0.2513  0.0360 -0.0436
 3643W        W19452   8.673  15.970   1.389  0.0085  0.0598 -0.0273
 3644W        W19453   7.427   3.228   2.173  0.1309 -0.0980 -0.0260
 3645W        W19454  16.451   8.587  13.022  0.2142 -0.3747 -0.1083
 3646W        W19455  17.358   7.249   3.891  0.1907  0.0274 -0.1898
 3647W        W19456   0.075  13.720   9.882  0.2514 -0.1050 -0.3701
 3648W        W19457  11.210   8.727  11.885 -0.0768 -0.3541 -0.1618
 3649W        W19458  13.729   5.393  11.305 -0.1797  0.0849 -0.0958
 3650W        W19459  12.852  10.908   3.814  0.1723 -0.1117 -0.4382
 3651W        W19460   7.539  10.552   4.141 -0.0566  0.3709 -0.3762
 3652W        W19461  12.232  11.007  11.278  0.0618  0.0381  0.2423
 3653W        W19462  18.153   7.796   5.234 -0.1203 -0.1208 -0.0784
 3654W        W19463  16.473  10.260   1.892 -0.0879 -0.2394 -0.2500
 3655W        W19464   5.795   8.507  11.205  0.3054  0.1684 -0.0174
 3656W        W19465   7.770   2.995   3.197  0.0286  0.0326  0.0577
 3657W        W19466  18.978  10.194   3.636  0.0702 -0.3486 -0.2325
 3658W        W19467  16.342   6.143  13.863  0.4168 -0.0323  0.1824
 3659W        W19468   8.004  15.061  14.014 -0.1721  0.0063 -0.0505
 3660W        W19469   8.512   9.544  14.129  0.1101 -0.1551 -0.1070
 3661W        W19470   3.892   2.199  10.643  0.0108  0.2505 -0.1769
 3662W        W19471   9.274   6.215  11.937 -0.1979  0.2394  0.1192
 3663W        W19472  10.581  15.920   2.396 -0.3047  0.0905  0.4613
 3664W        W19473   5.812   5.107   9.813  0.1554  0.2121 -0.1411
 3665W        W19474   1.136   8.155   1.975 -0.0903  0.1657  0.4060
 3666W        W19475   0.593   5.327   9.409  0.1028  0.2410 -0.0302
 3667W        W19476   9.674  12.520  14.232 -0.1680  0.0836  0.2378
 3668W        W19477  17.022   9.109  12.639  0.1444 -0.1896 -0.2679
 3669W        W19478   1.508  17.916   3.817  0.4603  0.2203  0.1355
 3670W        W19479  14.120  18.832   2.476  0.2951 -0.0142 -0.0832
 3671W        W19480   0.036  12.436   2.054 -0.1140  0.0145  0.2416
 3672W        W19481   3.067   3.684  14.185  0.1689 -0.0335 -0.2659
 3673W        W19482  11.343   4.403   3.295 -0.0947 -0.1604  0.3342
 3674W        W19483   8.321  10.119  10.385  0.2788  0.0589  0.3149
 3675W        W19484  14.978  12.475   4.619  0.1314  0.1221 -0.0249
 3676W        W19485  13.575   3.205  10.751 -0.1907  0.3258  0.3536
 3677W        W19486  13.324   1.985   3.836 -0.1702 -0.2895 -0.2579
 3678W        W19487   8.571  10.154  13.047  0.2120  0.2242  0.0865
 3679W        W19488  13.946  18.362   0.816 -0.0123 -0.1587 -0.1445
 3680W        W19489   5.973   2.885  11.078  0.1455  0.3980  0.1036
 3681W        W19490  10.594  14.666  11.850  0.2962 -0.0099  0.0195
 3682W        W19491   3.439   0.003  14.014 -0.2628  0.2447  0.1034
 3683W        W19492  17.095  18.916   1.248  0.0169 -0.0092 -0.0575
 3684W        W19493  18.130  12.391  11.653 -0.1760  0.3283 -0.3388
 3685W        W19494  12.503  15.021  11.767  0.1344 -0.1527 -0.0559
 3686W        W19495   5.101   0.438   3.396 -0.1915 -0.1888  0.2110
 3687W        W19496  12.789   5.998  13.633 -0.1256 -0.2861 -0.0695
 3688W        W19497   9.062  18.064  14.130  0.1047  0.0870 -0.1863
 3689W        W19498   0.712  18.504   1.331 -0.0896  0.0046 -0.1201
 3690W        W19499   4.921  16.401   9.951  0.0182 -0.0291  0.2570
 3691W        W19500   7.716  10.373   1.908  0.2638  0.1596  0.1518
 3692W        W19501  11.567  15.192   2.880  0.0711 -0.0639 -0.2538
 3693W        W19502   3.227  16.947  10.610  0.2850 -0.2017 -0.1036
 3694W        W19503  15.439  15.271   2.817  0.0001  0.0540 -0.6149
 3695W        W19504   8.877  19.130   1.840 -0.0670  0.2541 -0.1290
 3696W        W19505   6.655   6.226   0.301 -0.0845 -0.0290  0.2714
 3697W        W19506   1.784   2.705   0.054  0.0251  0.1138 -0.1564
 3698W        W19507  15.076  11.168  12.013  0.0841  0.1573  0.2775
 3699W        W19508   9.430  15.468  13.445 -0.1685 -0.2626  0.1117
 3700W        W19509  11.111   0.911   1.103  0.1425  0.2572 -0.0336
 3701W        W19510   9.221  10.323   4.230  0.2820  0.0118 -0.4171
 3702W        W19511  15.756   9.131   3.086 -0.0053  0.1572  0.0065
 3703W        W19512  18.035   7.973   2.989  0.0403  0.0956  0.3318
 3704W        W19513  11.053  15.404  14.976 -0.0627  0.2237 -0.1640
 3705W        W19514   6.034   6.235   2.287 -0.1111  0.0279 -0.1294
 3706W        W19515   9.020   5.015   4.262  0.0601  0.3013  0.1430
 3707W        W19516  19.063   9.821  10.387 -0.0670 -0.3063  0.0021
 3708W        W19517   2.239  16.106  13.290 -0.0358 -0.2608 -0.2561
 3709W        W19518   6.901  11.103   2.683 -0.0515  0.1528  0.0888
 3710W        W19519   2.187  10.679   0.143  0.4992  0.2124 -0.3817
 3711W        W19520   9.169   5.897   2.214 -0.2216 -0.0316 -0.0909
 3712W        W19521   4.741  13.947   0.985  0.0998  0.0177  0.0299
 3713W        W19522   6.008  11.638   3.471 -0.0194  0.2654 -0.4092
 3714W        W19523  12.515  17.292   0.599  0.0831 -0.2628  0.0966
 3715W        W19524   8.101   5.871   1.751 -0.0069 -0.0810 -0.0773
 3716W        W19525  18.091  18.470   4.738 -0.0704  0.0545 -0.2754
 3717W        W19526  14.927   7.186  13.870  0.0379  0.1877  0.0216
 3718W        W19527   0.790   1.395   5.100 -0.2791 -0.2357 -0.4201
 3719W        W19528   2.655   9.726   3.828  0.1774  0.0418 -0.1173
 3720W        W19529   5.156  18.510   4.357  0.2185 -0.1937  0.0920
 3721W        W19530  13.122   4.922  13.080  0.0023  0.0117  0.0755
 3722W        W19531   7.167   7.911  10.352  0.0245 -0.0383 -0.2765
 3723W        W19532   6.373  11.854   9.530 -0.2918 -0.2116  0.0003
 3724W        W19533  14.429   2.289   0.892 -0.0243 -0.1190 -0.2601
 3725W        W19534  12.167  17.345   1.473  0.3422 -0.1095  0.1108
 3726W        W19535  10.602   5.752  11.755  0.1421  0.1014 -0.0060
 3727W        W19536   4.217   9.219  11.977 -0.0569  0.3624 -0.1188
 3728W        W19537  17.229  17.903   5.260  0.1800  0.3027  0.1073
 3729W        W19538  13.751   0.005   2.411 -0.2533  0.0052 -0.1120
 3730W        W19539   5.877   5.077   2.713 -0.2497 -0.0136 -0.1537
 3731W        W19540  18.284  13.658  11.955 -0.3206  0.0759  0.3540
 3732W        W19541  16.557   2.361   0.362 -0.2054 -0.3830 -0.1221
 3733W        W19542  12.130  17.535   2.847 -0.1187 -0.2383  0.3241
 3734W        W19543  10.868  10.646   1.910 -0.1063 -0.0317  0.0808
 3735W        W19544   7.532   5.312   3.880  0.0035 -0.1375  0.3206
 3736W        W19545   7.177   8.927   1.564  0.0235  0.1220  0.1593
 3737W        W19546  16.061   5.077  10.812  0.1241  0.1674 -0.1348
 3738W        W19547  14.344  14.519   2.728  0.0473  0.0403 -0.0497
 3739W        W19548   2.027  18.531   0.924  0.1042 -0.0177  0.1760
 3740W        W19549   8.986   8.757   2.420 -0.2622  0.2408 -0.0614
 3741W        W19550   5.649   0.349  14.584 -0.2848 -0.0363 -0.2774
 3742W        W19551  12.296   6.342  12.490 -0.5115  0.1779 -0.3037
 3743W        W19552   1.205   0.276  13.245 -0.3277 -0.1449  0.0572
 3744W        W19553  10.039  12.056  13.566  0.3093 -0.2049 -0.1255
 3745W        W19554  13.582   7.451   3.223 -0.0649 -0.3981 -0.0971
 3746W        W19555   0.150  13.387   0.147  0.1235  0.1585  0.0208
 3747W        W19556   1.968  11.102  11.122 -0.1442  0.0332 -0.1369
 3748W        W19557  12.565  17.506   4.293  0.0893 -0.6643  0.3726
 3749W        W19558  16.317   9.287   5.013 -0.2521 -0.0035 -0.0607
 3750W        W19559   3.439   2.031  14.430 -0.0703 -0.0280  0.3115
 3751W        W19560  13.259   9.268  11.163 -0.1019 -0.0897 -0.2388
 3752W        W19561  15.071  18.994   1.446 -0.1209 -0.2254  0.1771
 3753W        W19562   1.697  18.801   4.096 -0.1119 -0.0198  0.1317
 3754W        W19563  15.787   0.338   2.319  0.1890  0.0898  0.0256
 3755W        W19564  15.262   5.539   0.651 -0.0159  0.0519  0.0814
 3756W        W19565   0.654  15.638   4.486 -0.2174 -0.1741  0.1842
 3757W        W19566  13.030  18.331  14.254  0.1077  0.1316 -0.1298
 3758W        W19567  17.138   6.886  11.363 -0.4841 -0.0998  0.0264
 3759W        W19568   4.488  12.871  11.351 -0.1137  0.0811  0.0445
 3760W        W19569  16.566   5.786  12.509  0.2399  0.0291  0.2488
 3761W        W19570  14.495  16.754   5.273 -0.1391  0.1207 -0.2710
 3762W        W19571   0.163   7.940   1.608 -0.2116  0.2262 -0.1139
 3763W        W19572  16.463   6.229  12.731 -0.3221  0.0897 -0.2316
 3764W        W19573   0.462  11.959   3.018 -0.1241 -0.2571  0.3144
 3765W        W19574   2.543   3.355   2.510 -0.2337  0.2258 -0.0270
 3766W        W19575   6.407  15.158  14.340  0.4119  0.4920 -0.1581
 3767W        W19576   7.420  11.189   1.515  0.2583  0.1230 -0.0341
 3768W        W19577  14.673   0.390  13.592 -0.0543  0.1738  0.0694
 3769W        W19578  15.269   5.643  10.621  0.2789  0.1024  0.3534
 3770W        W19579   1.727   7.763  14.362  0.1013 -0.2115  0.1142
 3771W        W19580   0.937   8.889   5.387  0.0980 -0.2740 -0.1682
 3772W        W19581   5.104   2.755   1.982 -0.3487 -0.0742  0.1035
 3773W        W19582   0.334  17.264   1.707 -0.2059 -0.0133  0.3054
 3774W        W19583   9.976   3.798   0.019 -0.1955  0.0315 -0.1629
 3775W        W19584   6.110  16.133  11.172 -0.3064  0.1310  0.0991
 3776W        W19585  11.602  11.867  12.179  0.2011 -0.0504  0.2971
 3777W        W19586   8.811  15.151   3.162 -0.2736  0.1578 -0.1237
 3778W        W19587   6.919  13.834   2.775  0.0693  0.0471 -0.1700
 3779W        W19588   1.186   0.253   3.033 -0.2467 -0.0868  0.2397
 3780W        W19589   3.498  11.598  13.481  0.0991  0.0946  0.3307
 3781W        W19590   9.211   3.150   4.125  0.0136 -0.1890 -0.1045
 3782W        W19591   4.940   1.020  10.452  0.1293 -0.3975  0.2129
 3783W        W19592   6.926   1.370  13.473  0.2233  0.0140 -0.0282
 3784W        W19593   4.470  11.105   3.624  0.2838 -0.1057  0.0813
 3785W        W19594   3.554   4.674   3.917 -0.4740 -0.2290  0.0527
 3786W        W19595  18.811  18.835   1.098 -0.1629  0.1722 -0.0605
 3787W        W19596  14.090   4.705  10.123 -0.2683  0.0469 -0.2140
 3788W        W19597   4.692   8.048   0.086 -0.1901 -0.1774  0.1816
 3789W        W19598  18.648  18.798   4.000 -0.1749  0.2926  0.2134
 3790W        W19599   4.253   7.629   3.488 -0.2684  0.0500 -0.0864
 3791W        W19600   6.560  17.188   1.044 -0.0913  0.1883  0.2585
 3792W        W19601  15.174   9.132   9.560 -0.1778  0.0555 -0.0522
 3793W        W19602   1.679   3.196   2.315 -0.1086 -0.0215  0.0814
 3794W        W19603   7.805   0.208  15.033  0.0276  0.0809  0.2917
 3795W        W19604  16.137  14.490  11.800 -0.1797 -0.0173  0.0478
 3796W        W19605   6.446  18.396  14.390 -0.1190  0.1027  0.1378
 3797W        W19606   6.164   8.233  14.600 -0.1451  0.0436 -0.0493
 3798W        W19607  11.912   0.045  14.559 -0.1367  0.1524  0.1014
 3799W        W19608   2.824  10.199  14.915  0.1241 -0.0683  0.4503
 3800W        W19609  11.760  14.483   4.715  0.0061 -0.0943  0.1125
 3801W        W19610  16.697  17.884  13.532 -0.1705  0.2561  0.0990
 3802W        W19611  12.384   0.343   4.968  0.1134  0.4211  0.0735
 3803W        W19612   2.827  18.430  10.689  0.2947 -0.2008  0.0173
 3804W        W19613  14.533   5.790   1.749  0.3416 -0.2289 -0.1711
 3805W        W19614   8.592   6.599   1.276  0.1998  0.4134  0.1359
 3806W        W19615  19.077   0.216  11.254  0.0755  0.1554 -0.2181
 3807W        W19616  18.564   0.781   1.920  0.1178  0.0093 -0.2925
 3808W        W19617  12.150  10.265  10.083 -0.2059 -0.0892  0.0590
 3809W        W19618   3.694   9.959   1.141 -0.0076 -0.0012  0.1872
 3810W        W19619  11.458   0.631   5.379  0.3711  0.0522  0.1371
 3811W        W19620  10.136   7.611   2.100  0.2152  0.1020  0.1642
 3812W        W19621   6.830   8.076   4.252 -0.4220 -0.0357  0.1489
 3813W        W19622   2.964   6.773   2.705 -0.4928  0.0128 -0.0395
 3814W        W19623  17.848  15.131   1.009  0.0586  0.4708 -0.4535
 3815W        W19624  10.543  18.341   3.844  0.0149 -0.0841 -0.0204
 3816W        W19625   0.552   3.052   1.404  0.0695 -0.0330 -0.1400
 3817W        W19626   2.172  12.504   4.773 -0.1275  0.0370 -0.1363
 3818W        W19627  14.818  12.538   1.936 -0.1297  0.1850 -0.3036
 3819W        W19628  16.140  16.699  13.582  0.1297 -0.1105  0.0030
 3820W        W19629   2.677  17.052   9.807 -0.0188 -0.2391  0.1736
 3821W        W19630   1.882   6.805   2.989 -0.0718 -0.1552 -0.0087
 3822W        W19631   8.804   7.765   0.120  0.0107 -0.1303 -0.1673
 3823W        W19632   6.226  13.229  10.616  0.1710  0.2397 -0.0143
 3824W        W19633  18.200  10.827   4.670 -0.0143  0.2848  0.3240
 3825W        W19634   8.344  17.956   2.348 -0.0379 -0.0243 -0.0388
 3826W        W19635  17.598   0.902  11.921  0.3513 -0.1665  0.2188
 3827W        W19636   6.541   4.342  14.936  0.1988  0.1192  0.0944
 3828W        W19637  11.159  13.190   0.988  0.2060  0.3839  0.1929
 3829W        W19638   7.441   4.841   0.197  0.0535  0.2790 -0.3247
 3830W        W19639   9.902   7.981   3.710  0.2538  0.0012 -0.0276
 3831W        W19640   6.554   5.257   0.060 -0.1210 -0.3831  0.2422
 3832W        W19641  12.464  15.510  10.575 -0.1742  0.1327  0.2961
 3833W        W19642   0.230   8.617   2.769 -0.0782 -0.1705 -0.0266
 3834W        W19643  11.106  15.700   2.840 -0.3120 -0.1210 -0.5156
 3835W        W19644   5.482   0.725   2.398  0.3469 -0.2811  0.0228
 3836W        W19645   4.194   6.846   0.636 -0.2298  0.3282 -0.2403
 3837W        W19646   9.960   0.107  11.095  0.0737 -0.0400  0.1165
 3838W        W19647   4.669  16.826   3.423  0.1538  0.1039 -0.1154
 3839W        W19648  18.816  16.659   0.977  0.1476  0.0011 -0.0041
 3840W        W19649  14.937  17.892  12.006  0.2378  0.1570  0.2936
 3841W        W19650  15.741   3.740   5.834  0.0950 -0.0978  0.1908
 3842W        W19651   9.696  12.226  13.072 -0.3842 -0.3289  0.0095
 3843W        W19652  10.900  10.195  14.953  0.1353 -0.3103  0.0928
 3844W        W19653  19.079  14.061  11.837  0.2245  0.2084 -0.1586
 3845W        W19654  17.517   1.780   0.951 -0.3513  0.1379  0.0152
 3846W        W19655   7.584  14.464   2.715  0.0150 -0.3868  0.0957
 3847W        W19656  15.641  12.286   3.245 -0.0260  0.4403 -0.1712
 3848W        W19657   0.905   2.160  12.657  0.0675  0.0408 -0.1761
 3849W        W19658   9.917   2.382   2.384 -0.0080  0.0733 -0.0261
 3850W        W19659  12.519   4.558   0.593 -0.2272 -0.1501 -0.1037
 3851W        W19660   7.508  14.710   4.105  0.0251  0.0694  0.1702
 3852W        W19661  13.710   0.423  13.687 -0.1104  0.0015  0.0530
 3853W        W19662   5.418   3.500  10.724 -0.0424 -0.3238  0.3497
 3854W        W19663   5.561  13.878  10.221 -0.0126 -0.1871  0.2285
 3855W        W19664  18.862   9.195  11.905 -0.1485  0.0023 -0.2276
 3856W        W19665   6.125   3.950  13.588 -0.3339 -0.2774 -0.4346
 3857W        W19666  15.682   3.566  13.844 -0.3176 -0.2377  0.0571
 3858W        W19667   4.513  15.294  11.907  0.1028 -0.0887  0.1998
 3859W        W19668  15.491  10.156  15.200  0.0081 -0.2040  0.2147
 3860W        W19669   7.289   3.910   0.709 -0.0894 -0.1476  0.0437
 3861W        W19670   7.985  17.092  10.666 -0.2491 -0.2863 -0.0892
 3862W        W19671   6.727   9.559  13.577  0.1422 -0.1110  0.0622
 3863W        W19672   3.043   8.679   3.810  0.0841  0.2680  0.1651
 3864W        W19673   0.383  18.458   0.832 -0.1036  0.0706  0.3061
 3865W        W19674  10.727   4.509  13.552 -0.0704  0.2024  0.2741
 3866W        W19675  11.470  10.788   1.226 -0.1866 -0.2660 -0.2203
 3867W        W19676   1.274  16.594  10.886  0.0852  0.1679  0.3252
 3868W        W19677   3.266  15.004   1.718 -0.1902  0.0269  0.2652
 3869W        W19678  15.437  17.495  12.669  0.1023 -0.1781  0.4373
 3870W        W19679   5.071  11.212   2.540 -0.0776  0.1279  0.0104
 3871W        W19680   1.809   5.055  11.872  0.1939  0.0254  0.4902
 3872W        W19681  13.795  16.997  14.844  0.1730 -0.1056 -0.1743
 3873W        W19682   2.453  15.174  11.471 -0.1122  0.0911 -0.2244
 3874W        W19683  13.217  15.808   0.960  0.0302 -0.5387  0.2237
 3875W        W19684   8.205  10.881  10.347  0.1217 -0.3374  0.1596
 3876W        W19685  15.073  12.525   2.434 -0.1291  0.1144  0.2697
 3877W        W19686   9.071   5.599   1.199  0.0995  0.0059  0.1217
 3878W        W19687  15.358   3.570  13.471 -0.0852  0.1298 -0.0500
 3879W        W19688   1.202   3.838  11.953 -0.1283 -0.3328 -0.0369
 3880W        W19689  16.772  11.747   0.313 -0.2424 -0.1296 -0.2180
 3881W        W19690  11.325  11.883   5.163 -0.1074 -0.0972 -0.3439
 3882W        W19691  15.222  14.349  13.789  0.2094 -0.0889 -0.2535
 3883W        W19692  16.395   3.248   1.150 -0.2045  0.0953 -0.1867
 3884W        W19693  17.153   4.997   3.945  0.2727  0.5604 -0.1490
 3885W        W19694   6.881   6.386  10.159 -0.2629  0.0667  0.2721
 3886W        W19695   6.461   5.950   2.431  0.4497 -0.1793 -0.0684
 3887W        W19696  18.868  14.229   3.640 -0.1047  0.0275  0.0406
 3888W        W19697   9.655  12.887   2.751 -0.0878  0.1900  0.2313
 3889W        W19698   1.559  12.971  10.404  0.0791  0.0486 -0.0554
 3890W        W19699  10.760  15.061  12.782 -0.0951 -0.3280 -0.0367
 3891W        W19700  13.079   6.189  11.071 -0.0015  0.1084 -0.1069
 3892W        W19701  16.086   1.155  10.242 -0.1581  0.1720 -0.0378
 3893W        W19702   0.220   2.287  15.126 -0.0505  0.1233 -0.2086
 3894W        W19703   7.538   4.820  10.400 -0.1487  0.0126 -0.0723
 3895W        W19704  13.620   6.158   3.841  0.1654 -0.0467  0.3563
 3896W        W19705  15.805   3.554  15.143  0.1748 -0.0069 -0.0420
 3897W        W19706   3.518   9.349   1.758 -0.2146 -0.1001  0.1426
 3898W        W19707  16.537  18.981   1.962  0.0471  0.2338 -0.2304
 3899W        W19708   5.445   7.825  14.634  0.0511  0.1093  0.2975
 3900W        W19709  18.149   6.106  14.678  0.1457  0.1564 -0.0468
 3901W        W19710   9.287  15.081   1.229  0.0668 -0.2144 -0.1471
 3902W        W19711   5.849  13.900   1.006 -0.0164 -0.1090  0.1254
 3903W        W19712   8.862   1.553  11.895  0.1215 -0.1112 -0.1530
 3904W        W19713   1.120   2.907   1.581  0.1709  0.0556  0.2238
 3905W        W19714   9.013  14.861  13.267 -0.1740 -0.1136 -0.0346
 3906W        W19715   8.206   0.666  10.465  0.1872  0.0256 -0.0588
 3907W        W19716   3.650  15.074   5.295 -0.2840  0.1215 -0.0289
 3908W        W19717  15.918   3.199   0.764 -0.0601 -0.0379  0.1491
 3909W        W19718  11.642  10.955   1.666  0.3172 -0.0540  0.1344
 3910W        W19719  12.163  11.661   2.277 -0.1753 -0.1696  0.1021
 3911W        W19720  12.645   1.081   4.232 -0.0166 -0.1476  0.0907
 3912W        W19721   3.806  15.720   1.765 -0.0677  0.1000 -0.1897
 3913W        W19722  11.984  11.647   3.093 -0.0743 -0.1348 -0.5394
 3914W        W19723  15.358  13.184  11.783 -0.4913  0.1004 -0.2914
 3915W        W19724   6.942   1.440   0.674 -0.2381  0.0983  0.0053
 3916W        W19725   0.492  15.837  13.464 -0.2363  0.1806 -0.0860
 3917W        W19726  12.852  15.712  11.570 -0.0887 -0.4489  0.1709
 3918W        W19727   7.615   8.602   2.903 -0.0783 -0.3629 -0.1830
 3919W        W19728  10.658   4.153   2.146 -0.2787  0.0150  0.1484
 3920W        W19729   6.131  14.509   3.769  0.0973  0.1360 -0.0288
 3921W        W19730  17.728   8.982   4.810  0.1694  0.0618  0.1050
 3922W        W19731  11.126   2.397   4.703  0.0789  0.1410  0.0474
 3923W        W19732   5.014   2.477  10.446  0.0046  0.3090  0.0109
 3924W        W19733   1.509   2.527   1.838  0.4703  0.3173  0.0163
 3925W        W19734  10.985  14.900  14.425 -0.1099  0.2869 -0.0545
 3926W        W19735   7.520  14.172  12.349  0.4374 -0.0050 -0.1995
 3927W        W19736  10.564  13.394   3.239  0.2831  0.1686 -0.0145
 3928W        W19737  17.614   6.392  12.247 -0.2703 -0.0291  0.1925
 3929W        W19738  17.582  14.695   1.005 -0.0058  0.1295 -0.2635
 3930W        W19739   8.671   4.158  10.125 -0.0587  0.0551 -0.0680
 3931W        W19740   8.685  10.468  12.707  0.1933  0.3404  0.1834
 3932W        W19741  12.911  13.694   4.783 -0.4431  0.0270 -0.3091
 3933W        W19742   6.280   0.205   3.923 -0.4546  0.1210 -0.2135
 3934W        W19743  18.286   5.918   0.547  0.3569  0.1864 -0.1667
 3935W        W19744  17.932  11.749   4.045 -0.3034 -0.1326 -0.0461
 3936W        W19745  14.183   6.013  12.937  0.1079 -0.0398  0.4119
 3937W        W19746   2.197  16.329   0.836  0.3390 -0.2491  0.0176
 3938W        W19747  15.780   9.889   2.054 -0.1348 -0.1096  0.1540
 3939W        W19748   5.619  16.700  12.375 -0.1471 -0.1230 -0.1244
 3940W        W19749  15.074   9.276  10.545 -0.0656 -0.1077 -0.0892
 3941W        W19750  10.206  13.286  11.714 -0.1471 -0.0081 -0.0768
 3942W        W19751  11.840  16.820  14.264  0.2775  0.1499  0.3336
 3943W        W19752  17.350   6.717   3.945  0.1138 -0.1186  0.1466
 3944W        W19753   2.206  17.790   1.018 -0.3102 -0.0334 -0.0995
 3945W        W19754  15.115   7.555  13.524 -0.0152 -0.2607  0.1627
 3946W        W19755   7.395  13.774  10.818  0.0814 -0.2802 -0.3424
 3947W        W19756   2.759   6.881   3.648  0.1272 -0.2625 -0.1446
 3948W        W19757  11.948   5.519   3.807  0.0763  0.0060  0.4020
 3949W        W19758  14.599  16.500   2.333 -0.0938 -0.1923  0.2234
 3950W        W19759   4.465   0.268   0.560 -0.1164  0.0746 -0.0236
 3951W        W19760   0.188   2.805  11.239  0.0421 -0.5230 -0.2137
 3952W        W19761  12.045  18.755  12.505 -0.0791 -0.2596  0.2178
 3953W        W19762  18.161  16.449   4.986  0.1327  0.1080 -0.0658
 3954W        W19763   4.982  15.753  14.959  0.1201 -0.4718 -0.2039
 3955W        W19764  11.431  16.813   2.791 -0.1270 -0.0631  0.1600
 3956W        W19765   3.607  12.056   9.682  0.1506  0.1066  0.1592
 3957W        W19766  16.206  11.228   0.773 -0.1539  0.2401 -0.0683
 3958W        W19767  14.439  10.803  10.566 -0.1734 -0.3786 -0.1321
 3959W        W19768  18.175   1.778  13.324 -0.0748  0.0490 -0.2885
 3960W        W19769   4.792  10.844   3.314 -0.0115  0.2798  0.0307
 3961W        W19770  12.811  19.103  14.494  0.0984  0.0491 -0.1896
 3962W        W19771  11.494   5.513  14.308 -0.0531 -0.0901  0.0304
 3963W        W19772  17.226   5.737   4.602 -0.2257  0.0846 -0.0953
 3964W        W19773   8.606  18.189  12.920 -0.2084  0.1495 -0.4701
 3965W        W19774   1.784   2.544  13.975 -0.2855 -0.0237 -0.1665
 3966W        W19775  16.115   9.751   4.772  0.0285  0.0868 -0.4381
 3967W        W19776   6.853   6.914   1.633  0.0502 -0.0936  0.2444
 3968W        W19777   4.313  12.327  10.355 -0.0475 -0.1598  0.0129
 3969W        W19778   2.717  11.222  10.498  0.0781 -0.0825  0.0168
 3970W        W19779  10.998   4.619  11.821  0.0427  0.0665 -0.2910
 3971W        W19780   1.842  18.256  11.649  0.2599  0.0413  0.1918
 3972W        W19781   4.309  14.314  10.756  0.0594  0.0621  0.0217
 3973W        W19782  16.480   6.702   3.701 -0.1494  0.3892  0.0769
 3974W        W19783  14.298   8.620  13.750  0.1962  0.1102 -0.3359
 3975W        W19784   5.181  13.376  10.859 -0.2431 -0.0117  0.1449
 3976W        W19785  17.380   1.317   0.132  0.0249  0.2551  0.3084
 3977W        W19786  14.450   4.104   0.967  0.0659 -0.1556 -0.2428
 3978W        W19787   1.490  10.991  11.240 -0.1425  0.1009  0.2245
 3979W        W19788  18.465  10.936   9.594  0.3459 -0.3921 -0.3466
 3980W        W19789  11.533  12.411  15.173 -0.1688  0.0312  0.0216
 3981W        W19790  15.684   9.983   9.393  0.1520 -0.0643  0.0199
 3982W        W19791  13.382  10.177  13.770 -0.0843  0.1196 -0.1389
 3983W        W19792  14.649   5.799  15.059 -0.1860 -0.0094 -0.2470
 3984W        W19793   9.522   7.176   2.853 -0.5249 -0.0984 -0.0236
 3985W        W19794  14.629   6.138   0.577 -0.2275 -0.1142 -0.2264
 3986W        W19795   7.611   1.874  11.922 -0.0305  0.0264  0.2158
 3987W        W19796   6.688  13.614   1.004  0.0264 -0.2267  0.0574
 3988W        W19797  18.736  15.752  11.747  0.0104 -0.1392  0.0474
 3989W        W19798   7.024   1.814   5.643 -0.2799  0.1422 -0.1072
 3990W        W19799   6.173  18.634   2.486  0.1251  0.0392 -0.0041
 3991W        W19800   0.042  10.358   4.085  0.1017 -0.4896 -0.3333
 3992W        W19801   7.387   0.623  13.772 -0.2514  0.1589  0.5937
 3993W        W19802   4.713   7.143   4.501 -0.2937  0.1092  0.0781
 3994W        W19803   0.990  19.135   1.825 -0.3281  0.4651 -0.0676
 3995W        W19804   4.079  17.102   0.032  0.0228 -0.1309  0.1654
 3996W        W19805  18.723  16.958  13.206 -0.1421  0.1386  0.1070
 3997W        W19806   7.354   0.681  12.010  0.3015  0.2223  0.0350
 3998W        W19807  18.613   2.642  10.965 -0.0337 -0.0165  0.0378
 3999W        W19808   1.648   6.673  12.525 -0.0592  0.2810 -0.1847
 4000W        W19809   5.125   0.266  13.215 -0.0278  0.0123  0.0380
 4001W        W19810   4.630   4.810  11.832  0.3283 -0.0415  0.1201
 4002W        W19811  15.678  16.843   2.844 -0.2237 -0.0937  0.1205
 4003W        W19812   5.027   2.500  13.438 -0.2978  0.3194  0.0713
 4004W        W19813   2.326   3.868  14.050 -0.1441 -0.0608  0.1229
 4005W        W19814   0.424  10.133   0.301  0.1958  0.1827  0.0583
 4006W        W19815   7.847  14.118  14.245  0.0087 -0.2380 -0.0251
 4007W        W19816   1.788   7.083  10.390  0.3101  0.1752 -0.1132
 4008W        W19817   5.063   3.339  13.406 -0.0910 -0.3393 -0.1172
 4009W        W19818  16.903   3.246   2.112  0.0590 -0.0217  0.1007
 4010W        W19819  15.702   6.245  11.150 -0.1789  0.0610 -0.0371
 4011W        W19820   2.691   7.427   5.233 -0.2108 -0.1325  0.1616
 4012W        W19821   6.665  11.741  11.618  0.2382 -0.1767  0.0572
 4013W        W19822  15.597   0.940   0.799 -0.2307 -0.0915  0.3479
 4014W        W19823   7.093   5.203  12.050  0.0137 -0.3965 -0.0940
 4015W        W19824   4.653   7.904   4.840 -0.0198  0.0763  0.0201
 4016W        W19825   7.696   0.999  14.630  0.0487 -0.1866  0.2949
 4017W        W19826   9.888   6.041   1.000 -0.2255 -0.0148  0.0870
 4018W        W19827   4.654   0.049  12.321 -0.2294  0.0535  0.0142
 4019W        W19828  18.608  12.536  13.714  0.1386 -0.1036  0.1603
 4020W        W19829   5.440  18.345   3.874 -0.2693 -0.0327  0.1609
 4021W        W19830  11.690   9.521   2.786  0.3125 -0.1927 -0.1628
 4022W        W19831   0.294  10.870  11.343 -0.0685  0.1138  0.1154
 4023W        W19832   1.819  14.807  13.605 -0.2548 -0.0319 -0.0930
 4024W        W19833   2.293  15.974  10.284 -0.0318  0.3038 -0.2584
 4025W        W19834   4.332  12.838  13.576 -0.3233 -0.1413  0.1901
 4026W        W19835   6.307  12.886   1.375 -0.1131 -0.2982  0.0551
 4027W        W19836  14.690   7.469   0.077 -0.2493 -0.1845 -0.0006
 4028W        W19837  16.444  15.643  12.853  0.1676  0.0247 -0.5637
 4029W        W19838   1.135   6.946   2.460 -0.2375 -0.0301 -0.2985
 4030W        W19839   0.461   0.275   4.108  0.0010  0.0609  0.0126
 4031W        W19840  16.143   3.788  13.110  0.2481 -0.3090  0.1581
 4032W        W19841   9.805  17.285   3.935  0.1113 -0.0160 -0.0896
 4033W        W19842   3.113   9.243   2.878 -0.2546  0.1965 -0.0211
 4034W        W19843   9.958  15.921  11.148 -0.1616 -0.1141  0.0774
 4035W        W19844  12.285   9.867   0.249  0.1924 -0.0073 -0.2278
 4036W        W19845  15.316   8.698   3.442 -0.1824  0.0943 -0.1131
 4037W        W19846  12.712   6.379  13.085  0.0948  0.4978 -0.0349
 4038W        W19847  17.410  15.345   0.999  0.1493  0.1059 -0.2963
 4039W        W19848  18.502   8.570   2.280  0.0609 -0.0547 -0.0327
 4040W        W19849  10.747   4.861  13.161  0.4405 -0.0024 -0.2148
 4041W        W19850  15.031   7.689  14.146  0.2221  0.1106  0.2230
 4042W        W19851  10.617  11.230   4.653  0.4304 -0.2104  0.1093
 4043W        W19852   3.165   4.706  12.287 -0.0096  0.1888 -0.1048
 4044W        W19853   5.838  14.836  10.967  0.0284 -0.0042  0.0144
 4045W        W19854  10.585  17.130   5.651 -0.1897  0.1969 -0.1303
 4046W        W19855   5.175  14.343   2.536  0.1086 -0.3312 -0.0184
 4047W        W19856  16.942   8.224  11.129 -0.1687  0.0176  0.2164
 4048W        W19857   2.411   9.811  14.948  0.0374 -0.0422  0.1994
 4049W        W19858   5.487   6.741  15.203  0.3688  0.1136  0.3772
 4050W        W19859   4.347   0.749  14.334  0.1168 -0.0443  0.2498
 4051W        W19860   3.841  11.393  14.117  0.0393  0.2168 -0.0749
 4052W        W19861   6.643  14.490  10.043  0.0129  0.0135 -0.0389
 4053W        W19862   0.569   8.983  11.077  0.0817  0.0063  0.3722
 4054W        W19863  15.999  17.690   5.477 -0.1406  0.0392 -0.2277
 4055W        W19864  16.009   2.148  11.726 -0.5034  0.4172  0.1072
 4056W        W19865  15.138   7.862   1.267  0.1351  0.1045  0.3124
 4057W        W19866   8.661   6.970  13.044  0.0746  0.1318  0.0852
 4058W        W19867   6.689  16.056  12.753  0.0135 -0.0590  0.2178
 4059W        W19868   9.931   3.264   3.393  0.1790 -0.1276 -0.0370
 4060W        W19869  13.783  11.801   2.157 -0.3272 -0.1340  0.1044
 4061W        W19870  12.875   7.505   1.597  0.1364 -0.1621 -0.0340
 4062W        W19871  14.342  15.901  13.216  0.1531 -0.0280  0.2901
 4063W        W19872   2.074  19.100  14.049 -0.0295  0.2454  0.0677
 4064W        W19873   8.991   1.515   1.495  0.3134 -0.0355  0.0483
 4065W        W19874   3.074  15.908   1.396  0.3227  0.0772 -0.0492
 4066W        W19875   3.142  12.069   5.266  0.1655 -0.1497  0.0446
 4067W        W19876   2.167   8.866   1.261 -0.0370  0.0878 -0.2822
 4068W        W19877  12.486  16.199   1.974  0.1458  0.1383  0.0359
 4069W        W19878   1.877   7.997   4.361 -0.0247  0.0401  0.3116
 4070W        W19879   9.379  17.316  12.338 -0.1189  0.1691  0.2265
 4071W        W19880   3.911  15.329  12.670 -0.1098  0.0908 -0.2800
 4072W        W19881   4.958   7.466  13.429  0.1721 -0.1555  0.3140
 4073W        W19882   9.405  13.309   4.951 -0.0084 -0.1493 -0.1426
 4074W        W19883  14.477  12.797   3.055  0.0628 -0.1065  0.0993
 4075W        W19884  11.040   0.915  12.600 -0.1970  0.2434 -0.1717
 4076W        W19885  17.604   4.898  14.889 -0.1677  0.2064 -0.1894
 4077W        W19886   6.871  11.630   3.178  0.0643  0.4104  0.2754
 4078W        W19887   0.022   4.255  14.492  0.2570 -0.0358  0.0296
 4079W        W19888  18.329  11.056  12.176 -0.0478  0.0486  0.0704
 4080W        W19889   3.649  15.865  10.299  0.2086  0.1431  0.0411
 4081W        W19890   6.703   7.110   4.766  0.1304 -0.0973 -0.0693
 4082W        W19891   8.543  14.613   3.821 -0.0178 -0.2035  0.1623
 4083W        W19892   5.390  16.392   1.818 -0.2245 -0.0985  0.1382
 4084W        W19893   4.050   8.073   3.030 -0.2013  0.0093  0.0972
 4085W        W19894  15.762  11.282  15.195 -0.0549  0.1060  0.0694
 4086W        W19895  13.433  11.611   2.990 -0.3576 -0.1447  0.2759
 4087W        W19896   9.420   5.897   3.632 -0.3751 -0.1486  0.3007
 4088W        W19897   1.804  15.681  14.557  0.2060 -0.0932  0.3892
 4089W        W19898   4.722   0.857   3.371 -0.1463  0.1199 -0.0723
 4090W        W19899   6.155   2.404   0.250  0.0872  0.0642  0.1820
 4091W        W19900  11.042  14.818   1.268 -0.5052 -0.0807  0.1514
 4092W        W19901  10.908   9.499  11.041  0.5252 -0.0204  0.0857
 4093W        W19902  11.604   3.176   3.452 -0.0521  0.1664  0.2866
 4094W        W19903  18.146   1.574  10.678 -0.0961 -0.1156 -0.0771
 4095W        W19904   9.496   8.235   3.297 -0.1010 -0.0916  0.0891
 4096W        W19905  15.249  11.524   0.275 -0.4357 -0.0451 -0.0398
 4097W        W19906  17.276  13.357  15.050 -0.2751  0.0374  0.0491
 4098W        W19907   1.895   8.041   2.993 -0.0634 -0.0244 -0.1741
 4099W        W19908   9.955  15.804   5.544  0.0114  0.2931  0.3462
 4100W        W19909   3.730   3.777   3.053  0.1654  0.0637  0.0696
 4101W        W19910  12.437  19.057  11.586 -0.0610  0.0213  0.0904
 4102W        W19911  13.938   9.677   4.886  0.2563 -0.0312  0.0188
 4103W        W19912  18.275  12.732  10.970 -0.1096  0.0719  0.1054
 4104W        W19913  18.891   5.315   9.731 -0.1876  0.0686 -0.0468
 4105W        W19914   4.868  13.806   2.775  0.0450 -0.0552  0.3683
 4106W        W19915   7.493   0.027   0.130 -0.0731  0.1585 -0.3271
 4107W        W19916   7.204  17.682   2.668 -0.2890 -0.4092  0.1251
 4108W        W19917   2.386   9.493   4.282 -0.0611 -0.4428  0.1555
 4109W        W19918   4.564   6.806   3.715 -0.0126 -0.0500  0.2111
 4110W        W19919  15.685   1.567   5.481  0.1414  0.2090  0.2480
 4111W        W19920   0.067   2.249  12.748  0.3925 -0.2877 -0.3893
 4112W        W19921  12.439   2.473  14.205  0.0898  0.0637 -0.2322
 4113W        W19922  17.490   6.200  11.029  0.0062 -0.1793  0.1482
 4114W        W19923   1.297   9.108   1.944  0.1803  0.0138 -0.2871
 4115W        W19924   0.915   0.464  14.612 -0.1311  0.1209 -0.1137
 4116W        W19925  18.859  19.050  12.265  0.0787  0.1886  0.2280
 4117W        W19926   8.050  13.081  11.472 -0.2224  0.0145 -0.1001
 4118W        W19927   3.537  17.560   0.302 -0.1134 -0.0807 -0.2775
 4119W        W19928   3.330   1.402  12.717  0.1374 -0.0721 -0.1082
 4120W        W19929   7.378   1.334  14.283  0.0040 -0.3744  0.1234
 4121W        W19930   3.742   3.038  13.202 -0.0607 -0.1347  0.1936
 4122W        W19931   8.473  19.060  11.394 -0.0571 -0.5726  0.1864
 4123W        W19932  14.251   0.073   1.574 -0.1157 -0.0473 -0.0149
 4124W        W19933   4.397  18.740   2.192 -0.2529 -0.3074  0.2487
 4125W        W19934  13.979   2.087   1.375  0.0843  0.0011 -0.0699
 4126W        W19935   3.452   9.123  14.573 -0.2428  0.2129  0.0404
 4127W        W19936  18.626  10.453  10.910 -0.0129  0.0690  0.1654
 4128W        W19937   7.952  18.839  14.676 -0.0358 -0.1152 -0.2008
 4129W        W19938  12.874  17.949  13.967 -0.1146 -0.0367  0.0505
 4130W        W19939   6.342   6.635  11.584  0.1527 -0.1692 -0.1220
 4131W        W19940  16.630   4.647  12.428 -0.3188  0.0849  0.2055
 4132W        W19941  10.575  12.368   1.871  0.1365  0.2697  0.0487
 4133W        W19942   7.323   6.636  14.141  0.1545  0.0623  0.1241
 4134W        W19943  15.915  10.341   9.608 -0.0911 -0.1132  0.2750
 4135W        W19944  18.857   6.086   1.046  0.0092  0.3908  0.1733
 4136W        W19945  15.082  18.371  11.695 -0.0218  0.1278  0.2105
 4137W        W19946   3.079  18.725  13.280 -0.1388 -0.0183 -0.1443
 4138W        W19947  17.824  17.911  12.622  0.3238  0.1080  0.1255
 4139W        W19948  16.454  13.889   3.758  0.2544 -0.0236  0.3068
 4140W        W19949  16.018  14.000   4.445  0.0638  0.0623  0.2090
 4141W        W19950  14.862  17.175  11.710  0.1956 -0.2775  0.0770
 4142W        W19951  12.986   7.927   1.442  0.3132 -0.3839 -0.1899
 4143W        W19952   4.951  14.150  14.780 -0.2604 -0.1217 -0.1008
 4144W        W19953  17.259   9.726  13.373  0.0240  0.2641 -0.2643
 4145W        W19954  15.364   9.428   2.392  0.0232  0.0761  0.3952
 4146W        W19955   4.787   7.441  14.651 -0.0575  0.0764 -0.3076
 4147W        W19956  10.831  15.392   4.052 -0.0334  0.0592 -0.0634
 4148W        W19957   6.009   4.245   2.637  0.1609  0.4525  0.2527
 4149W        W19958  11.065   8.580  14.581 -0.0720 -0.1186  0.0563
 4150W        W19959  14.136  18.009   4.665 -0.4355 -0.1683  0.2217
 4151W        W19960   7.014   5.638  10.189  0.4106 -0.0100 -0.2706
 4152W        W19961   0.703   8.639   1.108  0.0161  0.0368  0.0121
 4153W        W19962   7.812   8.825  10.631 -0.0858 -0.0273  0.1366
 4154W        W19963  16.326  13.068   5.223  0.3770 -0.0145  0.1275
 4155W        W19964  11.534  14.264   3.204  0.2518  0.0278 -0.2984
 4156W        W19965  16.176  17.732   0.573 -0.3559  0.3642  0.2752
 4157W        W19966  12.258  17.874   5.400  0.1462  0.2208 -0.1713
 4158W        W19967   6.118  15.502  10.785  0.0272  0.0141 -0.2190
 4159W        W19968  16.746  17.627   9.997 -0.0273  0.0671 -0.1539
 4160W        W19969   7.808   1.396  13.473  0.2452  0.2195 -0.1706
 4161W        W19970   9.233  11.270   3.538  0.1080 -0.2083  0.1795
 4162W        W19971  11.103   6.635   3.657  0.1692  0.3153  0.1647
 4163W        W19972  18.083   7.671  12.475  0.1240 -0.5519  0.0744
 4164W        W19973   1.196  15.505   5.387  0.3187 -0.5314  0.0860
 4165W        W19974   8.177  15.482  11.273  0.1258 -0.3743  0.1575
 4166W        W19975   5.077   6.844  11.175 -0.0082  0.2564  0.2273
 4167W        W19976  14.941  10.293  12.115 -0.0465  0.1948 -0.3882
 4168W        W19977  15.243   3.087   3.183  0.2123 -0.3023  0.1263
 4169W        W19978   2.928  16.689  10.156 -0.1230 -0.1488 -0.1323
 4170W        W19979   1.945   9.378  11.653  0.1490  0.5714  0.0655
 4171W        W19980   8.370   1.529  13.969 -0.1100 -0.0711  0.0801
 4172W        W19981  18.950   8.982   1.216 -0.0591  0.1836 -0.2609
 4173W        W19982  11.176   7.030   2.793  0.1845  0.0240  0.0655
 4174W        W19983  12.456  18.588  12.626  0.4511  0.6249 -0.0415
 4175W        W19984  14.933   2.572   5.781 -0.1664  0.2074  0.3194
 4176W        W19985   5.810  12.568   1.379  0.1155 -0.1743 -0.1264
 4177W        W19986  18.566   1.001  11.212 -0.1266  0.4354 -0.0178
 4178W        W19987   6.118   0.848   3.042 -0.0648 -0.0217  0.1106
 4179W        W19988  17.022   8.389  12.951 -0.0674  0.2563  0.0072
 4180W        W19989  14.562   0.519  12.555 -0.2513 -0.0355 -0.1206
 4181W        W19990   9.727   0.443   1.548  0.2419 -0.2220 -0.1612
 4182W        W19991   3.380  14.043   1.381  0.0971  0.0240  0.1248
 4183W        W19992   8.649  19.145  10.728 -0.0481 -0.1530  0.0492
 4184W        W19993  14.468   2.626   0.075 -0.0748  0.1776 -0.2688
 4185W        W19994   9.580   3.467   5.420 -0.3634 -0.2397 -0.0693
 4186W        W19995   4.704  15.536   1.424 -0.0379  0.0800  0.1211
 4187W        W19996  14.137  15.999   4.328  0.0841 -0.2414  0.0584
 4188W        W19997   9.077   7.608   0.640  0.0083  0.1401 -0.2309
 4189W        W19998  11.493  14.257   4.305  0.0864  0.0347  0.0613
 4190W        W19999   1.522  10.413   2.491  0.0048 -0.2512 -0.2942
 4191W        W20000   8.749   7.439   3.005 -0.0835 -0.4758  0.1784
 4192W        W20001   4.269   1.286   1.100  0.0944  0.1127  0.0559
 4193W        W20002   3.939  18.036  15.004  0.0308 -0.0201  0.1784
 4194W        W20003  11.252   5.998  11.453 -0.1678 -0.0671  0.0215
 4195W        W20004   6.606  18.651  11.382  0.1959  0.2542 -0.2198
 4196W        W20005   9.794   5.662   0.413 -0.1588  0.1919 -0.0672
 4197W        W20006   0.138  14.670   1.338  0.2704 -0.0791  0.2740
 4198W        W20007  13.728   0.354  12.532 -0.1108 -0.0790 -0.1585
 4199W        W20008   0.647   2.809  10.303  0.2350 -0.0242  0.2526
 4200W        W20009   5.420  17.925  11.709 -0.0455  0.0628 -0.0390
 4201W        W20010   7.776   1.680   1.285  0.0648  0.1903  0.0529
 4202W        W20011   5.292  16.474   4.003  0.0027 -0.3099  0.4113
 4203W        W20012   5.431   0.537   5.038 -0.2310  0.1726 -0.0724
 4204W        W20013   6.587  16.009  12.198  0.1358 -0.3801 -0.0937
 4205W        W20014  14.930   2.525  14.497 -0.4199 -0.2878 -0.0544
 4206W        W20015  17.546  14.428  11.817  0.0675 -0.1120 -0.3418
 4207W        W20016  15.875   2.922  12.973 -0.1611  0.1134 -0.0793
 4208W        W20017   2.853  12.020   1.795 -0.0112  0.2292  0.1568
 4209W        W20018   7.894   4.818   4.993 -0.0427 -0.2590 -0.1772
 4210W        W20019   2.214  18.258   0.165 -0.2661 -0.2236 -0.2002
 4211W        W20020  13.375   9.108   4.873 -0.1652 -0.2747  0.0800
 4212W        W20021   0.147  18.363  13.632  0.2607  0.1553  0.2254
 4213W        W20022   2.205   0.686   2.799  0.0796 -0.1443  0.0958
 4214W        W20023   9.491  17.129  14.193 -0.0233  0.0208  0.1216
 4215W        W20024  15.197  14.437  11.524  0.0286  0.1009 -0.2149
 4216W        W20025  17.365  12.420   4.782  0.3333 -0.1146  0.4433
 4217W        W20026  17.135   7.755   3.595  0.3225 -0.0137  0.0095
 4218W        W20027  12.710   7.800  13.246 -0.0668 -0.0178 -0.0262
 4219W        W20028   1.811  11.856  13.483  0.0421 -0.0540  0.1430
 4220W        W20029  18.709   8.990   2.390  0.0960  0.1030 -0.1632
 4221W        W20030   0.290  10.236  12.604  0.4896 -0.1800 -0.2839
 4222W        W20031  15.283   5.191  13.208  0.2683  0.0537 -0.4129
 4223W        W20032   2.104  18.369   4.314  0.0660 -0.2735 -0.0807
 4224W        W20033   7.178   4.961   2.434 -0.3195  0.2560 -0.2524
 4225W        W20034  18.588  14.152  12.049 -0.1525 -0.0150 -0.0838
 4226W        W20035  13.895  16.906  11.354  0.0654  0.1183  0.0265
 4227W        W20036  10.181   9.722   2.000  0.0206  0.1151 -0.0141
 4228W        W20037   9.940  11.717   1.410  0.1853  0.3546 -0.1920
 4229W        W20038  11.781   3.435   3.943  0.0171  0.1853 -0.0684
 4230W        W20039  12.771   2.881  13.520  0.0793  0.3402  0.0224
 4231W        W20040  16.741  10.327  10.739  0.0594 -0.0430 -0.1720
 4232W        W20041   1.812  15.891  10.424 -0.3281  0.0072 -0.1603
 4233W        W20042   8.620   8.602   4.898 -0.0604 -0.1349  0.0055
 4234W        W20043  16.526   8.020   4.349  0.1410 -0.0921  0.3659
 4235W        W20044  19.063   2.169  14.226  0.0300  0.0138  0.1615
 4236W        W20045   7.586   4.524   2.268 -0.1774 -0.0551 -0.3921
 4237W        W20046   1.220   2.534   5.447 -0.0076  0.1003 -0.3161
 4238W        W20047   7.212  13.853   4.391  0.0829  0.4656 -0.1466
 4239W        W20048   0.215   0.207   1.939 -0.2735 -0.2147 -0.1560
 4240W        W20049  16.490  13.316  10.604  0.0010 -0.1709 -0.1059
 4241W        W20050   6.042  17.160  11.794  0.2615 -0.1032 -0.0050
 4242W        W20051  11.118   8.299  15.028 -0.1526  0.2224  0.3138
 4243W        W20052  17.737   7.884  12.922  0.2276 -0.2321  0.1437
 4244W        W20053   7.874  12.463   3.592  0.0819 -0.2180 -0.1323
 4245W        W20054  10.836  15.640  13.839 -0.3618 -0.0021 -0.0038
 4246W        W20055  16.603   5.843   2.036  0.0052  0.0202 -0.2321
 4247W        W20056   0.933  19.016  13.366  0.3957 -0.0379  0.0041
 4248W        W20057  18.330   7.992  13.915  0.0648  0.0532 -0.1807
 4249W        W20058  14.844   7.263   5.223 -0.0944  0.0596  0.1009
 4250W        W20059  16.343   9.691  11.201 -0.0388 -0.0488  0.3283
 4251W        W20060  18.138   7.279  12.819  0.3134 -0.1826 -0.0478
 4252W        W20061   5.247   7.641   1.510  0.2969  0.1113 -0.0179
 4253W        W20062   0.440   1.599   3.545 -0.4569 -0.1437  0.0326
 4254W        W20063  18.122  13.235  13.668  0.1070 -0.1407 -0.2312
 4255W        W20064  18.940   6.738   3.899  0.1692  0.0584  0.0685
 4256W        W20065   8.488  16.920   5.047 -0.0712 -0.1141 -0.1155
 4257W        W20066  16.132  18.153  11.768 -0.0237 -0.1130 -0.1326
 4258W        W20067  12.734   3.892  12.146  0.1703  0.1567 -0.0895
 4259W        W20068   3.600   2.605   1.850 -0.1182  0.1565  0.2441
 4260W        W20069   9.137   4.589   1.019  0.1208 -0.0798  0.2065
 4261W        W20070  13.220   7.504   4.826 -0.2122 -0.1948  0.1524
 4262W        W20071  15.217  13.178   4.638 -0.1014  0.1234  0.3466
 4263W        W20072   1.732   7.826   3.830 -0.0705 -0.1763  0.0294
 4264W        W20073   7.856  13.688  12.516 -0.0065  0.1521  0.2528
 4265W        W20074  13.600   6.525   2.299  0.0345 -0.0737  0.2174
 4266W        W20075  10.714   5.922  14.088 -0.3902 -0.0112  0.1251
 4267W        W20076  16.707   0.316  14.061  0.3187  0.2063 -0.0246
 4268W        W20077  13.998  13.860   3.279  0.0436  0.0041 -0.3364
 4269W        W20078   3.952  13.827  11.045 -0.3486  0.1211  0.1211
 4270W        W20079  18.476  10.095  12.022  0.2977  0.1901  0.2330
 4271W        W20080   3.257   2.357   2.286 -0.0151  0.0551  0.0661
 4272W        W20081   0.915   7.883  14.704  0.2023 -0.0877 -0.1890
 4273W        W20082   8.395  16.729  10.804  0.0682  0.1115 -0.1719
 4274W        W20083   0.076   4.281  11.433  0.1264 -0.3595 -0.0782
 4275W        W20084  16.975   5.459   0.822 -0.1291 -0.2209 -0.2265
 4276W        W20085   6.478   2.318  15.127  0.0198  0.2522 -0.0530
 4277W        W20086  16.959  11.127   0.274 -0.2598 -0.0392  0.2015
 4278W        W20087   3.911   2.796   3.586 -0.0353  0.2766  0.1127
 4279W        W20088  18.860  19.092  13.208 -0.3395  0.3848 -0.1216
 4280W        W20089   1.027   4.528  13.766 -0.0885 -0.0436  0.1417
 4281W        W20090   4.523   3.760   2.343  0.2045  0.2565 -0.0630
 4282W        W20091   3.988   6.507  11.222  0.1335 -0.1030  0.2143
 4283W        W20092   1.649   1.184   1.842 -0.0130  0.0396 -0.2627
 4284W        W20093   0.493   0.754   3.463 -0.3145 -0.0076  0.1312
 4285W        W20094   1.524   5.371  10.437 -0.1213  0.0650 -0.2360
 4286W        W20095   2.875   5.657  10.474 -0.2475 -0.1744 -0.1484
 4287W        W20096   8.065   1.859   2.034  0.1314 -0.0563  0.2417
 4288W        W20097   6.701   8.505   0.889  0.2444 -0.0483  0.0411
 4289W        W20098   0.052   3.432   0.507 -0.0714  0.0348 -0.0552
 4290W        W20099  15.289  17.341   4.518  0.0721 -0.0487 -0.2408
 4291W        W20100  10.242   8.566   0.021 -0.1371 -0.0586  0.1453
 4292W        W20101  13.519   7.909   1.904 -0.0568 -0.0604  0.0449
 4293W        W20102   6.008  17.788   5.649  0.0541 -0.1330  0.0152
 4294W        W20103  13.878   9.635  14.703  0.2116 -0.0818 -0.0314
 4295W        W20104  10.652  11.817  11.520  0.1193 -0.1419  0.1881
 4296W        W20105   5.296  15.772  10.527 -0.1928 -0.2484  0.0454
 4297W        W20106  11.160   4.142  13.040 -0.0211 -0.1114  0.1010
 4298W        W20107   0.292   6.117  11.467 -0.1292 -0.1092  0.1232
 4299W        W20108   8.500   9.885   1.737 -0.1378  0.2940 -0.1196
 4300W        W20109  10.939   8.339   2.743 -0.0860  0.1152  0.0311
 4301W        W20110   7.124  12.784   4.794 -0.1764  0.0845  0.1303
 4302W        W20111  17.731   9.847   1.255  0.2222 -0.1664  0.1243
 4303W        W20112  11.865  10.490  13.374  0.1859  0.6732  0.1789
 4304W        W20113   6.186   7.668  12.586 -0.0309 -0.1710  0.2991
 4305W        W20114   8.846   9.452  10.089  0.0795  0.2421  0.0704
 4306W        W20115   1.375  14.243  12.241  0.1576  0.0717  0.0682
 4307W        W20116  16.743  18.614  10.016  0.1672  0.1527  0.2723
 4308W        W20117  13.136   9.367   5.560  0.2722 -0.0846  0.1716
 4309W        W20118   4.155  17.331   1.856  0.0153  0.0482 -0.1666
 4310W        W20119   4.620  15.470   1.926 -0.0067  0.1269 -0.2788
 4311W        W20120  17.160  15.489  14.146 -0.1792 -0.2413  0.0186
 4312W        W20121  17.935  10.584   5.075  0.0652 -0.0752 -0.0565
 4313W        W20122   6.926  18.703   0.813 -0.3114  0.0422 -0.1289
 4314W        W20123   3.315  17.408   1.948 -0.1523  0.2123  0.1480
 4315W        W20124  17.237   7.114  14.106 -0.3941  0.1651  0.2249
 4316W        W20125  16.483   6.969  13.277 -0.0531 -0.2398 -0.2433
 4317W        W20126   8.053   4.749  12.624 -0.2503  0.1211  0.3246
 4318W        W20127   9.093  16.843   3.470  0.0893  0.0260 -0.0341
 4319W        W20128   8.283  17.655  10.356 -0.0011  0.0019 -0.3632
 4320W        W20129  19.161   6.530  13.251  0.0801  0.0763  0.2282
 4321W        W20130  15.442  10.254  12.120  0.0341  0.3419 -0.0612
 4322W        W20131   1.111   1.479  11.183  0.1732  0.1843  0.0528
 4323W        W20132   0.871   2.403   0.520  0.1811 -0.0697 -0.2050
 4324W        W20133   5.637  13.754  10.707 -0.0798  0.1660  0.1002
 4325W        W20134   5.288  13.709   9.664  0.1205  0.0151  0.0425
 4326W        W20135  17.503  16.598   3.672  0.0841 -0.1407 -0.1127
 4327W        W20136  14.507  12.020   4.674  0.1464  0.2301  0.1613
 4328W        W20137   6.396   6.633  12.759 -0.0721 -0.0823 -0.0143
 4329W        W20138  12.527  11.340   3.684 -0.0237 -0.2393 -0.0834
 4330W        W20139   2.257  15.344   2.625 -0.0522 -0.1613  0.1838
 4331W        W20140  13.435   4.632  12.292  0.0858  0.2073  0.3807
 4332W        W20141   7.719  15.716  11.320 -0.1209  0.0042  0.2883
 4333W        W20142   2.492   5.092  11.093 -0.1743  0.0455 -0.0514
 4334W        W20143   2.893  15.684  12.732 -0.1065  0.1592  0.5234
 4335W        W20144  18.539   7.571  14.244  0.0048  0.1726 -0.0673
 4336W        W20145   3.614  15.344  13.321  0.1186  0.2151 -0.3977
 4337W        W20146   0.671   8.587   5.087  0.1409 -0.1433 -0.0140
 4338W        W20147  13.709   5.773  12.563 -0.1952  0.2141  0.1283
 4339W        W20148   6.045   1.859  12.873 -0.1139  0.1506 -0.0310
 4340W        W20149  13.914   6.277  11.051 -0.0129  0.1837 -0.2908
 4341W        W20150  11.000   8.810   0.053 -0.2761 -0.4441 -0.0692
 4342W        W20151  16.301   5.195  13.701 -0.0083  0.0852  0.4246
 4343W        W20152   2.898  15.192   4.000 -0.0189  0.2742 -0.0918
 4344W        W20153  11.633  16.522   3.512 -0.0031 -0.0875 -0.0781
 4345W        W20154   0.902  13.683  14.310  0.1177  0.1283  0.2730
 4346W        W20155  12.878  19.147   0.837 -0.3016 -0.1107  0.1187
 4347W        W20156  18.922  18.609  13.460 -0.2063 -0.1561  0.0432
 4348W        W20157  16.606   6.121   2.430 -0.1609  0.0972  0.1035
 4349W        W20158  15.101  15.619   5.121  0.0071  0.0587  0.3265
 4350W        W20159  10.256   6.233  13.572  0.0809  0.3357  0.1191
 4351W        W20160   9.773  15.507   5.132 -0.0951  0.0529 -0.4652
 4352W        W20161   6.334   7.582  13.174  0.1424  0.2608  0.0024
 4353W        W20162   1.558  14.478  14.023 -0.0818 -0.2967  0.1247
 4354W        W20163   3.412  14.513   0.431  0.2502 -0.0441  0.1734
 4355W        W20164   9.995  17.723   3.932 -0.2909 -0.1294  0.1320
 4356W        W20165  10.503  14.764   3.471 -0.1448  0.0434 -0.0110
 4357W        W20166   2.700   9.975   0.159  0.1815  0.0425  0.1102
 4358W        W20167  10.994   5.167   2.789 -0.0648 -0.0704 -0.0968
 4359W        W20168   2.972   3.496   0.274 -0.1750  0.2775 -0.0248
 4360W        W20169  17.459   0.899   1.803  0.0565 -0.1726 -0.0007
 4361W        W20170   2.552   0.330   3.034  0.0898  0.1563  0.0553
 4362W        W20171   8.279  11.954  12.868  0.0106  0.0256 -0.0395
 4363W        W20172  11.428  11.878  13.480 -0.1084 -0.3288 -0.0844
 4364W        W20173   0.535   7.048   2.693  0.1072  0.3521  0.2408
 4365W        W20174  14.688  15.020   5.146  0.0766  0.0629 -0.4911
 4366W        W20175  13.778   0.886  14.612  0.4793 -0.0928  0.2067
 4367W        W20176  12.421  11.384  12.143 -0.1119 -0.0920  0.2724
 4368W        W20177  12.372   5.310  14.622 -0.1606 -0.2417 -0.3315
 4369W        W20178  14.362   8.807   0.062 -0.0246 -0.1893  0.1336
 4370W        W20179   0.469   3.999  13.244  0.3236 -0.1269 -0.0071
 4371W        W20180  12.534  15.604  15.043  0.2394  0.2965  0.0529
 4372W        W20181   6.865   1.906  14.204 -0.2331 -0.2198  0.0718
 4373W        W20182  18.446  18.837  12.730  0.0065 -0.1725  0.0012
 4374W        W20183  18.723   9.921   4.723 -0.3959  0.0843  0.2244
 4375W        W20184  17.853  17.453   4.545 -0.1738 -0.0034 -0.0805
 4376W        W20185   8.551  15.885   5.041  0.0454 -0.2146  0.0076
 4377W        W20186   3.009  18.169  13.402 -0.1419 -0.0623 -0.0843
 4378W        W20187   6.457   1.924  10.468 -0.0298  0.2648 -0.2268
 4379W        W20188   6.740   3.132  10.542  0.0901  0.3600 -0.0181
 4380W        W20189  12.967  11.183  12.487 -0.0385  0.1389  0.2156
 4381W        W20190   0.421  15.378   3.723  0.2878 -0.0468  0.1534
 4382W        W20191   6.824  12.505  14.171  0.0476  0.1742  0.1106
 4383W        W20192  18.534   3.757   3.275 -0.0512  0.3037 -0.3744
 4384W        W20193  17.429   2.551   2.668 -0.3145  0.3311  0.1918
 4385W        W20194  14.092   9.200  10.647  0.3736 -0.2108  0.0263
 4386W        W20195   4.138   1.434  12.997 -0.0904  0.0661  0.0740
 4387W        W20196   5.413  12.328   1.272 -0.1122 -0.1280  0.0542
 4388W        W20197   3.366  14.441  11.025  0.0034  0.0307  0.0467
 4389W        W20198   6.560   5.729   3.740 -0.1624  0.2707  0.0187
 4390W        W20199  18.311  11.569  11.966 -0.0821  0.1151 -0.0233
 4391W        W20200   1.225  15.756  14.378 -0.0981 -0.0006  0.0113
 4392W        W20201  13.142   9.681   0.201 -0.1758  0.1653 -0.2147
 4393W        W20202   7.305  17.222  12.425 -0.0826  0.0760 -0.0328
 4394W        W20203   2.449  18.181  14.450 -0.3950  0.0736  0.1446
 4395W        W20204   0.252   2.105  14.611  0.1164 -0.1423 -0.0647
 4396W        W20205  10.255   9.871   2.883 -0.1444  0.2880  0.1595
 4397W        W20206  10.980  17.912   4.564  0.2208 -0.0541 -0.1901
 4398W        W20207  14.289  16.479   0.908  0.5693  0.2084 -0.0389
 4399W        W20208   3.489   1.635   0.006  0.0075 -0.0561  0.4973
 4400W        W20209   9.365   4.026  14.099 -0.1250 -0.0479 -0.1846
 4401W        W20210  17.834   6.766   4.929  0.2158  0.1925 -0.0492
 4402W        W20211   4.652   5.476   0.866 -0.4551  0.1850  0.0376
 4403W        W20212   1.552  10.003  10.805  0.1295  0.0217  0.0026
 4404W        W20213   7.960  14.369  10.244  0.1694  0.2109 -0.2189
 4405W        W20214   0.141  18.714  14.987 -0.3767 -0.3262  0.0975
 4406W        W20215   3.468   1.427   2.205 -0.0589  0.4272  0.0989
 4407W        W20216   5.481  12.937   0.011  0.1823  0.0750 -0.1079
 4408W        W20217  11.924  14.649  11.222  0.2893  0.0050  0.0727
 4409W        W20218   5.477   0.470  14.027  0.1376  0.1510  0.0524
 4410W        W20219   1.659   3.010   4.237 -0.2204 -0.0639  0.2490
 4411W        W20220  10.033  11.222   0.361 -0.1174  0.1402 -0.0071
 4412W        W20221  15.991  18.798  14.103  0.3595 -0.2783  0.2168
 4413W        W20222   3.588   2.551  15.059 -0.1654  0.0537 -0.2775
 4414W        W20223  18.750  14.130   3.143 -0.2329 -0.0326  0.1093
 4415W        W20224   4.620   5.371   4.239  0.0844 -0.0106  0.0380
 4416W        W20225   7.452  10.033  11.807 -0.1924  0.1308  0.2337
 4417W        W20226   6.189  16.961  14.350 -0.0425  0.0262  0.0730
 4418W        W20227  14.515   1.690  10.999 -0.0857 -0.4187 -0.2191
 4419W        W20228   4.317   1.316   3.251  0.1413  0.0770  0.2519
 4420W        W20229   0.496   6.391  11.801  0.0216 -0.2419 -0.2043
 4421W        W20230  16.513  14.162   0.785  0.2206  0.1828 -0.0626
 4422W        W20231   4.852   8.474  11.760  0.4153  0.1159  0.0154
 4423W        W20232   1.947  19.063  13.128 -0.0638 -0.2381 -0.1219
 4424W        W20233  12.330   4.134   0.304 -0.1195  0.0307  0.0148
 4425W        W20234  11.387   5.584  13.274  0.1088  0.0208  0.6073
 4426W        W20235  12.095   3.462  10.366  0.1363 -0.0911  0.4074
 4427W        W20236  15.078   4.561   1.818  0.1567 -0.0164 -0.2274
 4428W        W20237   9.334  17.414   1.298  0.1637 -0.2722  0.0388
 4429W        W20238  17.245   2.956   2.357 -0.0071 -0.2412 -0.0554
 4430W        W20239   3.480  16.753  10.132 -0.0109 -0.0214  0.3231
 4431W        W20240  16.504   3.329  12.919  0.1516 -0.4586 -0.4475
 4432W        W20241   9.430   5.989  11.509  0.0495 -0.1384 -0.6590
 4433W        W20242   9.407   8.375   1.088 -0.0091 -0.5034  0.2917
 4434W        W20243   7.481  16.857  14.222  0.2137  0.0334 -0.0359
 4435W        W20244  14.968   6.175  13.436  0.0517  0.0500 -0.0075
 4436W        W20245  17.358  16.139  11.962  0.0325 -0.1145  0.1673
 4437W        W20246   5.247   7.890   1.938 -0.1437 -0.2093  0.0688
 4438W        W20247   5.025  11.703  13.070  0.4449 -0.0920  0.2958
 4439W        W20248  14.906   2.057   0.690  0.3357  0.2560 -0.2312
 4440W        W20249  12.310  18.806   5.996  0.0415  0.0409 -0.0676
 4441W        W20250   4.437  12.137   3.224  0.2606 -0.1155  0.3629
 4442W        W20251  18.079   9.569   0.372  0.2948  0.0090 -0.0880
 4443W        W20252   4.470  12.558   0.768 -0.3090  0.0647  0.0061
 4444W        W20253  12.378  14.376  11.256 -0.0129  0.1454  0.0601
 4445W        W20254   7.898   9.524   2.191 -0.0756 -0.1959 -0.1085
 4446W        W20255   5.778  10.572   0.618 -0.0216  0.0847 -0.0793
 4447W        W20256   9.145  15.960   1.375  0.0325  0.0867 -0.0430
 4448W        W20257   0.334   4.053   3.327 -0.1431 -0.2977  0.2049
 4449W        W20258   3.635  16.783   0.924  0.2476  0.2500  0.1616
 4450W        W20259   2.344  17.564   2.706 -0.3020  0.0664 -0.4448
 4451W        W20260   1.467   5.719   3.877  0.4516  0.0214  0.0851
 4452W        W20261  14.398   4.779  14.275 -0.2826  0.0628  0.0972
 4453W        W20262  10.328  10.736   2.824  0.0124  0.0424  0.3806
 4454W        W20263  12.920  18.483  12.502 -0.1959 -0.1859 -0.1290
 4455W        W20264  10.561   6.055   9.722 -0.0210  0.4130 -0.0695
 4456W        W20265  10.471  18.354   3.154 -0.0623  0.4093 -0.1545
 4457W        W20266   1.288   2.208  12.280  0.0322 -0.3135  0.0202
 4458W        W20267  13.884  14.047  11.545  0.1804  0.4149 -0.2035
 4459W        W20268   4.983   2.036   0.752 -0.0076 -0.3584 -0.1063
 4460W        W20269  18.632  15.744  11.220 -0.0931 -0.0055  0.4845
 4461W        W20270   2.090   0.984  13.964 -0.0487 -0.0953  0.2101
 4462W        W20271  14.488  10.917  14.628  0.0466  0.0554 -0.0555
 4463W        W20272  12.308  10.258  13.842  0.1097 -0.1122 -0.0230
 4464W        W20273   6.034   8.614  13.939  0.0589  0.3133 -0.3444
 4465W        W20274   2.311   3.768  12.290  0.0582  0.0832 -0.1047
 4466W        W20275  11.744  13.233   4.601 -0.0968  0.0304 -0.0944
 4467W        W20276  16.222   5.195   2.859  0.0629 -0.1196  0.0332
 4468W        W20277  15.307   7.917   2.419  0.1848  0.1044 -0.2493
 4469W        W20278  14.220  14.154  13.019  0.1459 -0.0708  0.0211
 4470W        W20279   6.931  12.484  11.996 -0.1536  0.0997  0.0340
 4471W        W20280   9.031   8.723  10.344  0.1461  0.2841  0.1184
 4472W        W20281  17.342   5.526   0.494 -0.1379 -0.3482  0.3498
 4473W        W20282   0.550  10.420   9.740 -0.2298  0.0472  0.2578
 4474W        W20283  13.385  12.067   3.813 -0.0660  0.1133  0.0639
 4475W        W20284  17.585   3.197  12.834 -0.0854  0.0733 -0.0407
 4476W        W20285  11.302   3.528  11.228 -0.5514 -0.0898 -0.0653
 4477W        W20286  12.254   0.015  13.374  0.0969  0.0492  0.1458
 4478W        W20287   3.875   9.184   3.869  0.1840  0.0280 -0.0955
 4479W        W20288  10.510   0.896   0.526  0.0190  0.0679  0.1210
 4480W        W20289   9.408  17.967   4.026 -0.0377  0.0855  0.1170
 4481W        W20290   9.494   0.249   3.112  0.3444 -0.0424 -0.1059
 4482W        W20291  10.338   8.855   3.520  0.1405  0.0666 -0.0166
 4483W        W20292   2.653  10.898   1.597 -0.2241 -0.1034 -0.1290
 4484W        W20293   2.671   2.712   0.226  0.1612 -0.2269 -0.0388
 4485W        W20294   0.018  14.554  11.553  0.2123 -0.0069  0.4781
 4486W        W20295  17.558   8.055   1.214 -0.1653  0.2105  0.2163
 4487W        W20296   7.260  14.101   0.623 -0.3179 -0.2604  0.1349
 4488W        W20297  18.198   4.732   2.203  0.1104 -0.2780  0.1679
 4489W        W20298   6.654  12.275  11.620  0.2550 -0.0270  0.2334
 4490W        W20299  18.896   0.268  14.092  0.4413 -0.0558  0.2049
 4491W        W20300  12.363  17.209  12.252 -0.1793 -0.1679  0.2038
 4492W        W20301   5.454   7.223  12.969 -0.1122 -0.0439  0.1798
 4493W        W20302   8.125   3.369   3.135 -0.1499  0.0940  0.1142
 4494W        W20303   7.945  17.269  12.225  0.1544  0.2584  0.1726
 4495W        W20304  15.883  15.236   2.035 -0.4061 -0.1281 -0.0283
 4496W        W20305  12.925   5.077   0.627  0.0846 -0.0471  0.0004
 4497W        W20306   4.651  11.784   4.627 -0.0534  0.0784 -0.1122
 4498W        W20307   0.733   7.760  15.176 -0.5024  0.1253 -0.2112
 4499W        W20308   1.895   6.027  14.007 -0.1647 -0.3598 -0.0355
 4500W        W20309  18.411  15.104   1.352  0.1330 -0.2071 -0.1301
 4501W        W20310  17.321   4.813   2.701 -0.6242  0.0619  0.2463
 4502W        W20311   1.751  13.530  14.130  0.1593 -0.2778  0.0664
 4503W        W20312   8.831   2.087   9.339  0.1981 -0.0750 -0.1567
 4504W        W20313   4.457   4.433   0.460 -0.1699  0.1276  0.0787
 4505W        W20314   4.736   5.833   4.649  0.1711  0.1430 -0.0352
 4506W        W20315  16.309  15.698   5.757 -0.2291 -0.0407  0.2896
 4507W        W20316   3.953  13.111  11.389 -0.0635 -0.2858 -0.0019
 4508W        W20317   9.447   9.332   1.546  0.1334 -0.2341  0.1421
 4509W        W20318   9.597  13.963   3.219 -0.1997  0.0445 -0.0682
 4510W        W20319  16.712  12.333   4.069 -0.1009 -0.0392 -0.0928
 4511W        W20320  17.576   9.692   0.435 -0.4337 -0.1168 -0.3312
 4512W        W20321  11.483  15.571   2.541  0.0345  0.1006 -0.2578
 4513W        W20322  15.786  17.720   3.479 -0.1138  0.1946 -0.1084
 4514W        W20323   3.804  16.132  14.229  0.2152 -0.2241  0.0279
 4515W        W20324  15.189  19.056  12.500  0.4323  0.2005 -0.0698
 4516W        W20325  18.895   5.611  11.055  0.0418  0.2240  0.4409
 4517W        W20326   6.707  18.340   4.653  0.0584  0.0616  0.1268
 4518W        W20327   0.245   3.710   0.906 -0.1107  0.1778  0.1515
 4519W        W20328   8.133  17.562   1.773  0.1117  0.2311  0.1648
 4520W        W20329   1.595  17.181   4.499  0.0034 -0.0937  0.2235
 4521W        W20330   6.498  10.480  12.584  0.0759  0.2450  0.3028
 4522W        W20331   5.182   9.469   3.383  0.1093 -0.0608 -0.0341
 4523W        W20332  14.975  11.479   9.868  0.0634 -0.0281 -0.0470
 4524W        W20333   2.337   6.735   2.251 -0.1406 -0.1815  0.0771
 4525W        W20334  18.261   5.525  12.705 -0.1046 -0.0902 -0.0960
 4526W        W20335   4.934  14.094  12.149  0.1134  0.2082  0.2582
 4527W        W20336   3.133   4.418   4.963 -0.1430  0.1390 -0.0321
 4528W        W20337   9.727   0.177   0.076  0.1371  0.0364  0.3295
 4529W        W20338  17.270   9.479   0.840 -0.0189 -0.1406 -0.0662
 4530W        W20339   0.823   3.412   0.127  0.0920  0.3507  0.2660
 4531W        W20340   7.175  17.454  11.050  0.1942 -0.1358  0.2196
 4532W        W20341  14.815   6.482   0.909 -0.2038 -0.2253 -0.1057
 4533W        W20342  13.115   6.854  12.942 -0.0181 -0.0486  0.2114
 4534W        W20343   1.740  12.726   0.115  0.0530  0.0529 -0.0285
 4535W        W20344   9.651  13.660   4.648 -0.1307  0.3239  0.4395
 4536W        W20345   8.462  17.077   3.998  0.2530 -0.4457 -0.1853
 4537W        W20346   3.474   5.698   1.479  0.1568 -0.0547 -0.2497
 4538W        W20347   2.434   5.876   2.499  0.0105 -0.0698  0.0185
 4539W        W20348   3.257  12.401   4.500 -0.1448  0.0232  0.0672
 4540W        W20349   8.155   7.261   0.539 -0.4508 -0.1804  0.0204
 4541W        W20350  13.103  16.736  14.050 -0.0550 -0.1961 -0.2324
 4542W        W20351  12.125  13.764  14.468 -0.1799  0.1099  0.0504
 4543W        W20352  15.930   4.998   3.757  0.3171 -0.1298 -0.1337
 4544W        W20353   8.341  11.013   1.418 -0.0027 -0.2163 -0.1594
 4545W        W20354   3.655   5.783  13.641 -0.2038 -0.0834  0.0218
 4546W        W20355   9.390   0.768  13.414  0.0141  0.0024  0.0288
 4547W        W20356   6.053  14.744  12.178 -0.1149  0.0669  0.5630
 4548W        W20357   7.944  10.953   2.232 -0.2025 -0.2093  0.0142
 4549W        W20358  12.781   3.229   3.108  0.1444 -0.2708  0.1179
 4550W        W20359   2.345   0.112   2.044  0.0532  0.1672  0.1822
 4551W        W20360   2.900   8.494   5.133  0.0793  0.2527 -0.0653
 4552W        W20361  14.749  14.792   1.129  0.0076  0.0162 -0.0844
 4553W        W20362   3.332   2.111   4.002  0.0177  0.0970 -0.2663
 4554W        W20363   4.809  14.774   2.611  0.2942  0.1840  0.1842
 4555W        W20364   0.210  12.014  12.795 -0.1649  0.0781  0.3031
 4556W        W20365   5.298   0.951   0.521  0.3769  0.1085  0.1418
 4557W        W20366  12.491   3.649  14.822  0.0010  0.1939 -0.1962
 4558W        W20367  16.529   0.080  12.354  0.1432 -0.0661  0.0015
 4559W        W20368   1.777   9.530  10.881 -0.0853 -0.3040  0.0695
 4560W        W20369  15.413  14.187   0.306 -0.2128 -0.0424 -0.1512
 4561W        W20370  17.771   7.113   4.572 -0.0707  0.2561  0.3014
 4562W        W20371   0.394   0.478   4.965  0.0419  0.5559 -0.4750
 4563W        W20372   2.425   5.820  10.355  0.3999 -0.2049  0.0070
 4564W        W20373  12.867  12.154   0.638  0.2144 -0.0149 -0.0233
 4565W        W20374  10.630   8.510  14.855 -0.5929  0.1025 -0.2044
 4566W        W20375  18.638   5.782   5.458  0.1921 -0.2657 -0.1006
 4567W        W20376  18.091  11.457  12.412 -0.1421  0.1686  0.0360
 4568W        W20377   2.887   4.580  13.876  0.2161  0.1486 -0.2233
 4569W        W20378   3.589   8.553  10.271  0.2189  0.1580  0.2423
 4570W        W20379  15.741  18.011  10.544  0.0475 -0.0940  0.1212
 4571W        W20380   2.629   2.090   0.419  0.0384  0.0213 -0.0202
 4572W        W20381   7.209   1.820   0.057  0.1065  0.1880  0.0710
 4573W        W20382   1.950   1.492   0.710 -0.1245  0.0339  0.0505
 4574W        W20383   3.179   2.275  13.777  0.0273  0.1564 -0.1002
 4575W        W20384   9.114  16.977   0.208 -0.0245 -0.1070 -0.0021
 4576W        W20385   9.399   1.931   3.752  0.0636  0.0098 -0.1859
 4577W        W20386  16.821   5.144   3.483  0.1063  0.1266  0.0853
 4578W        W20387   4.641  10.782  13.368 -0.0674  0.1741 -0.2608
 4579W        W20388  16.735   3.624   0.963  0.1546  0.1811 -0.2284
 4580W        W20389   1.389  17.277   1.028  0.0375 -0.1621 -0.2498
 4581W        W20390   9.390  11.235   0.268  0.0103  0.2020  0.0246
 4582W        W20391  12.561   0.340   4.440  0.1665 -0.1635 -0.0971
 4583W        W20392   9.695   0.233   4.310 -0.1665 -0.0771  0.0389
 4584W        W20393  10.193   7.476   3.699 -0.0916  0.0333  0.0121
 4585W        W20394  12.913   7.881  11.428  0.1477  0.1205  0.0339
 4586W        W20395   7.007  10.756  12.432  0.3307  0.2634 -0.1759
 4587W        W20396  10.267   7.191   2.603  0.2982  0.1145 -0.2970
 4588W        W20397  17.724   9.605   4.758 -0.3293  0.0664 -0.0126
 4589W        W20398  10.812  15.095   0.305 -0.1526 -0.1060 -0.1788
 4590W        W20399  14.916  10.353   4.849 -0.5826  0.2360  0.2910
 4591W        W20400   5.054   3.535   1.448  0.2777  0.0880 -0.2076
 4592W        W20401   7.954   6.615   2.562 -0.2139  0.3404 -0.1809
 4593W        W20402   2.981   5.787  11.540  0.0533 -0.0849  0.0975
 4594W        W20403   8.017   1.153   4.480  0.3940 -0.1765  0.1069
 4595W        W20404   1.928   0.892   3.170 -0.3391  0.2021 -0.2589
 4596W        W20405   7.843   4.322   4.126  0.2499  0.2979  0.3737
 4597W        W20406   8.875  17.329  11.158  0.2885 -0.0932  0.1300
 4598W        W20407   1.943  10.197   0.263 -0.2620  0.2031  0.1821
 4599W        W20408  13.439   7.247  10.964  0.1352  0.1430  0.1684
 4600W        W20409  17.744   2.706  11.766 -0.3674 -0.1558 -0.2755
 4601W        W20410  10.576   7.000   3.691 -0.3112  0.1762  0.3310
 4602W        W20411   5.567   6.084  11.044  0.0622 -0.1778  0.1322
 4603W        W20412   2.966  12.338  14.823  0.2103 -0.2244 -0.3765
 4604W        W20413  14.330   5.560   3.339  0.2761 -0.0047  0.5336
 4605W        W20414   2.728   7.162   2.510 -0.1353 -0.0944  0.1426
 4606W        W20415   8.695  15.481  11.060  0.1540  0.7663 -0.2354
 4607W        W20416  19.047   1.280  13.084  0.2352  0.2230 -0.0134
 4608W        W20417   1.597  16.502  14.869  0.0086  0.0472 -0.1614
 4609W        W20418   9.352  10.279  14.066  0.0836 -0.2443  0.2820
 4610W        W20419   4.238  14.841  12.038 -0.2653 -0.1138  0.3937
 4611W        W20420  13.671   2.734   2.001 -0.0739  0.0301  0.0933
 4612W        W20421   0.844  17.605   0.916  0.0310  0.1223  0.0731
 4613W        W20422   5.859   6.695  12.593 -0.0768 -0.2040  0.1910
 4614W        W20423  10.120  11.008   1.417 -0.0864  0.1533 -0.0468
 4615W        W20424  19.140   9.067  11.431  0.3786  0.0683  0.2130
 4616W        W20425   7.129  11.526  12.976  0.1587  0.0290  0.3958
 4617W        W20426  18.373  13.742   2.341  0.2212  0.0630 -0.3582
 4618W        W20427  17.444   7.952  14.462  0.5092  0.0591 -0.2205
 4619W        W20428  17.845  14.053  14.884  0.0192 -0.1810 -0.3688
 4620W        W20429  14.281   7.157  11.856 -0.1287  0.2968  0.2607
 4621W        W20430   4.144   9.467   0.488 -0.1738 -0.2765 -0.0082
 4622W        W20431  14.071   2.060  11.174  0.0496 -0.1149  0.0758
 4623W        W20432  12.614  18.581  11.599 -0.2162  0.2238  0.0927
 4624W        W20433  12.382  16.366  11.325 -0.1050  0.2966  0.0363
 4625W        W20434  11.880   0.441   5.787  0.2313  0.4139 -0.0300
 4626W        W20435  14.413   6.652   1.847  0.0209  0.0552  0.1577
 4627W        W20436   9.724   8.842   2.125  0.0180 -0.2462 -0.3316
 4628W        W20437   5.179  11.844  13.852  0.1049 -0.0857  0.2953
 4629W        W20438  17.138  14.945   1.057  0.2579  0.3518 -0.2544
 4630W        W20439   3.528  14.049  11.273  0.1589  0.1621  0.1336
 4631W        W20440   1.230   5.089  12.471 -0.0660 -0.0452 -0.0597
 4632W        W20441  15.606   5.381   3.634 -0.0739  0.0414  0.1963
 4633W        W20442  18.687  10.118  11.243  0.2872  0.0079 -0.3522
 4634W        W20443   5.344   3.068   3.414  0.1032  0.1352 -0.2418
 4635W        W20444  10.077  16.935   3.042 -0.1661  0.0675  0.1135
 4636W        W20445  11.384   1.103  11.529  0.1819  0.1562  0.1493
 4637W        W20446   5.739  14.649  14.552 -0.2970  0.1064 -0.0744
 4638W        W20447  14.175  16.535  11.503 -0.1108  0.1195  0.3240
 4639W        W20448   8.179   6.318  13.110 -0.3235 -0.2166 -0.0922
 4640W        W20449  15.941   0.104   1.323 -0.3044 -0.1045  0.2678
 4641W        W20450  14.954  13.211  14.175 -0.1173  0.3727 -0.1279
 4642W        W20451   7.471  10.080   4.812 -0.3152 -0.0873 -0.0315
 4643W        W20452   1.020  11.567  11.180  0.1834  0.3994  0.1269
 4644W        W20453   8.933  17.535   0.868 -0.2493 -0.2857 -0.1051
 4645W        W20454  18.257   8.672   0.677  0.2197  0.0791 -0.0308
 4646W        W20455   4.375   6.763   2.274 -0.0478  0.2154 -0.2416
 4647W        W20456  15.517   2.275   3.024  0.0546  0.0001  0.0209
 4648W        W20457   1.248  10.364  15.111  0.1093 -0.2446 -0.2520
 4649W        W20458   7.583  11.102   9.566 -0.1368 -0.4111  0.0981
 4650W        W20459   8.297  10.183  14.678 -0.0026  0.3386 -0.0415
 4651W        W20460  15.578   8.361  11.336  0.0493 -0.2972  0.0556
 4652W        W20461   9.938   4.433  12.422 -0.0280  0.1010  0.0773
 4653W        W20462   5.315  12.680   2.770  0.0631  0.1182 -0.1243
 4654W        W20463   7.997   6.060   0.117 -0.4433 -0.1173  0.0850
 4655W        W20464   1.522   0.968   2.686  0.3042  0.1707  0.2032
 4656W        W20465  11.916   7.246  13.755 -0.0956  0.0126 -0.1357
 4657W        W20466   2.269   5.990   0.935  0.4708 -0.2503 -0.1064
 4658W        W20467  17.719  18.733   4.476  0.0062 -0.1427 -0.2659
 4659W        W20468  13.576   5.422  11.804 -0.0432  0.2330  0.2281
 4660W        W20469   5.002  13.181   4.004  0.4459  0.2461 -0.2976
 4661W        W20470  17.384  18.710   4.069  0.2034  0.2877 -0.0603
 4662W        W20471  12.666  11.671  12.610 -0.2190  0.0053  0.3451
 4663W        W20472   8.345  10.471   4.180 -0.0957 -0.2360 -0.2123
 4664W        W20473   8.896  14.723  14.839  0.1230  0.2197 -0.0706
 4665W        W20474   6.213   2.208   3.921  0.1105  0.2466 -0.2839
 4666W        W20475   6.411  17.029   3.987 -0.2507  0.0992  0.0301
 4667W        W20476  15.272   3.769  11.212 -0.0221  0.1614  0.0316
 4668W        W20477  11.167   8.511  11.048 -0.1398  0.2603 -0.1047
 4669W        W20478   2.453  14.756   4.609 -0.2489 -0.0677 -0.2646
 4670W        W20479   2.080   5.540  10.870 -0.0837 -0.1750 -0.0714
 4671W        W20480  10.847   9.812  14.591  0.2541 -0.0271  0.1514
 4672W        W20481  19.002  16.583  11.232  0.0787 -0.1429  0.0144
 4673W        W20482   9.876   9.363   5.380  0.1613  0.1919  0.1013
 4674W        W20483   5.405   5.930   1.825 -0.0849 -0.0634  0.3375
 4675W        W20484   0.863  17.508   4.857 -0.1233 -0.0529  0.0561
 4676W        W20485  15.774  10.752   0.729  0.1092  0.1179  0.0396
 4677W        W20486   7.643   6.436   3.962 -0.0665 -0.0135  0.0679
 4678W        W20487  12.353   4.987  10.092 -0.1080  0.1586 -0.0201
 4679W        W20488   8.834  15.581   1.746  0.0257  0.0819 -0.0037
 4680W        W20489   2.369  13.741  13.383  0.1807  0.1686 -0.1604
 4681W        W20490   6.615  13.287  11.696  0.1478  0.1386 -0.3293
 4682W        W20491  14.861  12.402  14.072 -0.0008 -0.1228  0.1528
 4683W        W20492  16.645   6.797   0.111  0.1821  0.0450  0.0784
 4684W        W20493   7.019  12.124  14.825  0.0397  0.2589  0.1340
 4685W        W20494  13.488  11.282   5.001  0.0803 -0.3292 -0.0923
 4686W        W20495   4.759   0.648   0.907  0.1597 -0.1347 -0.2161
 4687W        W20496   0.643   2.465  11.076  0.2667  0.0262  0.3421
 4688W        W20497   8.159   8.318  13.811 -0.2349  0.0793  0.1917
 4689W        W20498   6.918  17.456  14.207 -0.2693 -0.2918 -0.4825
 4690W        W20499  14.794   1.596   2.527 -0.4239  0.0826 -0.0596
 4691W        W20500  11.008  13.756   4.641  0.0599 -0.1554  0.1156
 4692W        W20501  11.469   2.791  11.470 -0.1261  0.0925 -0.1101
 4693W        W20502  12.141  11.899   4.446 -0.3549 -0.0337 -0.5389
 4694W        W20503   2.144  16.597  15.021 -0.1150  0.4396 -0.0756
 4695W        W20504   3.930   4.330  14.114 -0.1287 -0.0078  0.1240
 4696W        W20505   6.009  14.628  11.414  0.0812  0.0853 -0.1333
 4697W        W20506  10.416   3.334  12.434  0.1649 -0.0759 -0.0689
 4698W        W20507   8.579  10.042  10.841  0.2292  0.2923  0.0452
 4699W        W20508   3.472   3.857  10.067 -0.1088  0.0795  0.1121
 4700W        W20509   5.263  16.271   0.430 -0.1046  0.0546 -0.0355
 4701W        W20510  11.571   9.620   4.881  0.2828  0.0965 -0.1124
 4702W        W20511  11.362  16.567  11.263  0.1286 -0.3691 -0.2161
 4703W        W20512   0.482  14.897  13.095 -0.1265 -0.0279  0.2200
 4704W        W20513  16.025   4.797   1.798 -0.0374 -0.1303  0.0175
 4705W        W20514  17.622   8.797  14.865 -0.3945  0.1935  0.1530
 4706W        W20515   9.246   7.853  11.735 -0.0687 -0.0587  0.2673
 4707W        W20516   3.956   2.193  12.786 -0.1581  0.2491  0.0482
 4708W        W20517   1.861  10.656   1.579  0.0174 -0.2519  0.3387
 4709W        W20518  10.886   8.315   1.493  0.1448 -0.2751 -0.0881
 4710W        W20519  13.117   7.290  12.572 -0.1112 -0.1677 -0.2227
 4711W        W20520  17.258  10.891   1.403 -0.5220  0.0289  0.1463
 4712W        W20521  17.199   8.575  15.089  0.2276 -0.0390 -0.3481
 4713W        W20522   1.702   1.883   3.118 -0.1559 -0.2583  0.1128
 4714W        W20523   2.592  17.752  11.959  0.0591 -0.1054  0.1465
 4715W        W20524   2.532   6.880  13.040 -0.0945 -0.1676 -0.0292
 4716W        W20525   1.346   1.288   9.999 -0.0527 -0.2603 -0.0411
 4717W        W20526  15.266   9.001   3.910 -0.0211  0.1105 -0.4511
 4718W        W20527   9.411  14.069   2.772 -0.0262  0.1116 -0.0510
 4719W        W20528  14.463  10.623   2.392 -0.1850  0.0570  0.0691
 4720W        W20529   3.651   7.499  14.891  0.0263  0.1282  0.1281
 4721W        W20530   0.100  13.271   1.810 -0.0809 -0.1798  0.2688
 4722W        W20531  15.228   7.476  15.116 -0.2407  0.0949 -0.2845
 4723W        W20532   2.023  12.226   3.869 -0.1963 -0.2676  0.3013
 4724W        W20533  10.261  10.074   4.699 -0.2611  0.0859 -0.0892
 4725W        W20534   0.515  17.922   2.635  0.3902  0.0168 -0.2259
 4726W        W20535   9.261   3.762  14.517 -0.0250  0.0721 -0.1006
 4727W        W20536  17.849   3.885  13.477  0.0415 -0.2500 -0.5566
 4728W        W20537   4.503  15.043   1.571 -0.0475 -0.2074 -0.0154
 4729W        W20538  11.417  14.123   5.723 -0.2747  0.0204 -0.0292
 4730W        W20539  10.569   3.536  14.314  0.0823 -0.1418  0.1317
 4731W        W20540   6.451   6.273   9.600  0.2919  0.1469 -0.2220
 4732W        W20541   2.088  16.332   3.272 -0.1134 -0.4645  0.2952
 4733W        W20542  14.906  10.051   2.863 -0.0278  0.0571  0.1337
 4734W        W20543  11.840  13.718   0.171 -0.1018  0.2603  0.2098
 4735W        W20544   7.605  17.069  15.164  0.0214  0.0811 -0.1101
 4736W        W20545   3.572   8.523   5.069  0.3851 -0.2543 -0.3284
 4737W        W20546   2.314   1.939  13.819  0.0226 -0.1859  0.3374
 4738W        W20547  14.498   1.936  14.128  0.0322 -0.1188  0.0766
 4739W        W20548   3.661   8.647   2.348 -0.2257  0.2123  0.0553
 4740W        W20549   1.287  18.729  12.157 -0.0073 -0.1606  0.2203
 4741W        W20550  16.936   3.165  13.525 -0.5127  0.1099  0.1878
 4742W        W20551  15.798   7.005  14.654 -0.0006  0.0264 -0.2508
 4743W        W20552   4.933  10.937   1.869 -0.2173  0.1422  0.0604
 4744W        W20553  12.277  12.600   3.044 -0.2833 -0.0640 -0.1961
 4745W        W20554   8.766  17.338   4.261 -0.1770 -0.1531  0.1861
 4746W        W20555  17.026   9.618   0.360 -0.4910 -0.0924  0.0290
 4747W        W20556  13.834   1.784   2.778 -0.1436 -0.1134  0.2876
 4748W        W20557  18.465   6.280   4.361  0.2300 -0.0055 -0.1650
 4749W        W20558  10.878  12.748   0.877  0.1550  0.0641  0.2791
 4750W        W20559   6.897  14.287   4.635 -0.0791  0.1391 -0.0452
 4751W        W20560   7.293   4.601  13.447 -0.3878 -0.1607 -0.3468
 4752W        W20561   1.859   3.030  12.489  0.1449 -0.1905 -0.3546
 4753W        W20562  14.562  11.463  10.111 -0.1007  0.2382 -0.0262
 4754W        W20563  10.097   6.606   4.757 -0.1872 -0.2419 -0.0742
 4755W        W20564   8.134   2.868  13.724  0.2735  0.2998 -0.0835
 4756W        W20565  18.191   7.023  11.861  0.1318  0.3010  0.0225
 4757W        W20566   7.190   5.106  13.438 -0.0440 -0.1252  0.0908
 4758W        W20567   1.360   9.106  12.155  0.0623  0.0162  0.1497
 4759W        W20568   3.153  10.120  14.531  0.0533 -0.0533  0.1184
 4760W        W20569  15.458  17.867   2.366 -0.3471  0.0917 -0.0776
 4761W        W20570  12.947   8.171   4.603 -0.0757  0.2600  0.1142
 4762W        W20571  11.943   9.068   3.049  0.1018 -0.1125  0.0108
 4763W        W20572   4.143  18.436   1.351  0.3353 -0.1881  0.2473
 4764W        W20573  11.253   5.849  10.286  0.0294 -0.3530  0.0160
 4765W        W20574   1.684  14.289  13.070 -0.0372 -0.1245  0.0733
 4766W        W20575  13.295   3.134  13.210 -0.0982  0.1419  0.1816
 4767W        W20576   5.804   2.473   2.263  0.0412  0.1620  0.1488
 4768W        W20577  11.568   7.665   2.244 -0.2006  0.1757  0.1094
 4769W        W20578  10.022   2.575  11.551 -0.1172 -0.0262  0.1467
 4770W        W20579  14.030  13.463   1.362  0.0009 -0.2755 -0.0485
 4771W        W20580   8.719  12.167   0.121 -0.2886  0.0255  0.0302
 4772W        W20581  18.191   8.110   9.764 -0.2774 -0.0505  0.1315
 4773W        W20582   1.206  11.320  10.802 -0.1322 -0.0931  0.1674
 4774W        W20583   6.923   8.341   2.369 -0.1537 -0.1746 -0.2443
 4775W        W20584   0.151   2.495  12.240  0.2082  0.0229  0.2337
 4776W        W20585   4.623   2.003   3.990  0.3073  0.1672  0.0181
 4777W        W20586   4.700   3.307   2.097  0.0603  0.3548 -0.2326
 4778W        W20587   1.559  15.396  14.981 -0.0119 -0.2198  0.1682
 4779W        W20588  14.720   4.495  12.444 -0.1386  0.1604 -0.0074
 4780W        W20589  15.632  14.917   3.306  0.0087  0.0841 -0.2894
 4781W        W20590   5.815  16.708  11.854  0.0067  0.0015  0.4819
 4782W        W20591   7.798  18.234   4.680  0.0501 -0.2103  0.1350
 4783W        W20592  15.240   5.461  14.405 -0.3676 -0.3692  0.2381
 4784W        W20593  13.264   4.350  13.896  0.0847  0.4676  0.0817
 4785W        W20594   2.658   8.566  11.282 -0.2902 -0.0348 -0.2725
 4786W        W20595  17.494  15.468  11.897  0.0156 -0.0460  0.1392
 4787W        W20596  12.539   2.987   1.824  0.0837 -0.0334 -0.1093
 4788W        W20597  17.770   3.568   5.334  0.1291  0.0578  0.3946
 4789W        W20598  12.837  11.099   1.479 -0.0510  0.1534  0.2002
 4790W        W20599   9.393  15.672   4.813 -0.1790  0.1719 -0.0818
 4791W        W20600   9.349  15.567   1.143 -0.0737 -0.1234  0.1822
 4792W        W20601   1.157  16.386  12.544  0.1659 -0.1106  0.0160
 4793W        W20602  16.742  16.802  12.125 -0.0381 -0.1199  0.0961
 4794W        W20603  17.535   3.229  12.334  0.0587 -0.2770 -0.0632
 4795W        W20604   7.412  18.561   9.986  0.1774 -0.3428  0.2268
 4796W        W20605   4.431   3.696  11.458 -0.1616  0.0141 -0.0037
 4797W        W20606   4.541  13.115   4.728  0.0733 -0.0944 -0.3183
 4798W        W20607   4.473  10.039  13.997  0.3227 -0.1302 -0.1119
 4799W        W20608   4.565   7.643  14.229 -0.1339  0.1839  0.0929
 4800W        W20609  16.540   0.098   4.485 -0.0859 -0.1343 -0.1350
 4801W        W20610   2.648  13.834   4.262 -0.1942  0.1886  0.2073
 4802W        W20611   4.136   9.156  12.494  0.0913 -0.0480 -0.1675
 4803W        W20612  15.915  10.432   2.919 -0.0642 -0.0682  0.4262
 4804W        W20613  13.026   2.279  12.696  0.0950  0.4674 -0.3031
 4805W        W20614  17.415  14.189   9.900  0.1146  0.0761  0.2218
 4806W        W20615  13.594   0.573  12.064  0.0662 -0.1241 -0.0523
 4807W        W20616  12.716   0.685   5.097 -0.2074 -0.0527 -0.0168
 4808W        W20617   1.389  13.757  10.399 -0.0401  0.0028 -0.0270
 4809W        W20618  18.955   6.056  12.393 -0.0253  0.3225  0.1391
 4810W        W20619  11.071   2.089  10.985  0.1871  0.0500  0.0206
 4811W        W20620  13.613  10.773   3.060  0.1983 -0.3487 -0.1205
 4812W        W20621  18.470  14.079   4.057 -0.0616 -0.1413 -0.0050
 4813W        W20622   1.056  11.181   3.514 -0.0784  0.0343  0.1996
 4814W        W20623   4.757   4.026   1.967 -0.1544  0.0403 -0.1194
 4815W        W20624  16.660   0.631   1.576  0.0045  0.1367 -0.0848
 4816W        W20625   1.995   3.137   5.580 -0.2747  0.3443  0.2626
 4817W        W20626   5.899  14.287  11.038 -0.3818 -0.0735  0.2817
 4818W        W20627   7.008  15.205   5.832 -0.1611  0.0416  0.2033
 4819W        W20628  17.797   2.508  13.864  0.0110 -0.0424  0.1702
 4820W        W20629  13.039  11.954  14.605 -0.1954  0.0380 -0.0810
 4821W        W20630   9.935  12.686  11.256  0.2544  0.4227  0.0592
 4822W        W20631  12.341  14.235   5.300  0.0793  0.1129 -0.1728
 4823W        W20632   2.107   1.341  12.088 -0.0049  0.0847 -0.1911
 4824W        W20633   3.081  11.877   2.524 -0.0843  0.0500  0.2347
 4825W        W20634  17.097   2.564  13.671 -0.0090 -0.0087 -0.0776
 4826W        W20635   7.268   8.156  14.642  0.2129 -0.0169 -0.2061
 4827W        W20636  15.547   1.171  12.949  0.1774 -0.0983  0.0913
 4828W        W20637  16.187   1.628   3.556  0.0346  0.0426  0.0981
 4829W        W20638   0.471   3.322  14.656 -0.1320  0.2069  0.2565
 4830W        W20639  18.353   3.600  12.154  0.0715  0.3573  0.3470
 4831W        W20640   9.726   2.396  11.163  0.4480 -0.3613  0.1253
 4832W        W20641   3.580   9.389  11.945 -0.1750 -0.0447 -0.1601
 4833W        W20642   2.721   6.543   4.028  0.0164 -0.0517 -0.2146
 4834W        W20643  11.025   4.062   4.435  0.0325 -0.0977 -0.0288
 4835W        W20644   3.511   0.461   4.525  0.0773 -0.3263  0.0518
 4836W        W20645   9.618   4.649   1.735 -0.2805 -0.0508  0.0085
 4837W        W20646  16.527  13.387  11.089 -0.2770 -0.1776 -0.1066
 4838W        W20647   0.272   2.342  10.749 -0.0963  0.0459 -0.0023
 4839W        W20648  12.915   4.267   1.915 -0.0926 -0.0179  0.2182
 4840W        W20649   8.165   3.573   0.616 -0.2271 -0.3256  0.0536
 4841W        W20650  15.700  10.079   9.945 -0.2844 -0.1823 -0.0362
 4842W        W20651  12.613   4.260  11.844  0.0826 -0.1597  0.0947
 4843W        W20652   5.488   4.995   1.766  0.0235  0.1529  0.2610
 4844W        W20653  17.609  17.967  10.815  0.1029  0.1357 -0.0037
 4845W        W20654  11.622  14.284  14.100 -0.1251 -0.0551 -0.3043
 4846W        W20655  15.817   7.167   1.133 -0.2235  0.0069  0.1911
 4847W        W20656   9.518  19.014  13.257  0.0784  0.0340 -0.3312
 4848W        W20657   8.799  10.174   2.670  0.2046 -0.1592 -0.0700
 4849W        W20658   5.357   5.010   1.304 -0.3185 -0.2886 -0.0614
 4850W        W20659   4.658   1.490   4.130  0.2132  0.2620 -0.3660
 4851W        W20660  16.764   3.538   4.175  0.1978  0.2253 -0.4559
 4852W        W20661   9.218  18.748   6.045  0.1763 -0.5780 -0.1081
 4853W        W20662   0.592   6.560  13.103 -0.1840  0.0292  0.0520
 4854W        W20663  15.705   0.268   5.512  0.2412  0.0990  0.3520
 4855W        W20664   0.805   0.308   1.180  0.2475 -0.3784  0.0039
 4856W        W20665   7.724  15.860  12.997 -0.1800  0.0350  0.0581
 4857W        W20666   5.762  19.033   1.591  0.1563  0.0236 -0.1441
 4858W        W20667  10.681  16.421  11.863 -0.1536 -0.1477 -0.1448
 4859W        W20668   5.446   8.613   1.046  0.1516 -0.0714 -0.2447
 4860W        W20669   1.881   7.404  10.818 -0.1439 -0.1439 -0.0339
 4861W        W20670   5.428   7.168  13.490 -0.0765 -0.0825 -0.3224
 4862W        W20671   5.356   6.655  13.087 -0.1211 -0.1395 -0.1551
 4863W        W20672   8.188   7.329  13.171  0.0927 -0.3354  0.0819
 4864W        W20673   2.087   6.004   4.338 -0.0383  0.1057  0.2320
 4865W        W20674   4.472  15.454  14.341 -0.1154  0.0631 -0.0953
 4866W        W20675   8.564  18.624   3.607 -0.2492 -0.0260 -0.1757
 4867W        W20676   9.612   9.037   3.771 -0.0100  0.1929  0.0120
 4868W        W20677   4.001   3.419   1.365  0.3080  0.2030 -0.2674
 4869W        W20678  13.125   6.390  12.841 -0.2539  0.0419  0.2264
 4870W        W20679  11.780   5.955  14.079  0.0469  0.2124 -0.0302
 4871W        W20680  11.211  17.177   2.531  0.1339 -0.1214  0.3195
 4872W        W20681   7.592   5.316   1.301 -0.0210  0.3524  0.1418
 4873W        W20682  12.171  17.911  12.085 -0.2107 -0.3642  0.2799
 4874W        W20683  12.369  12.276   5.421 -0.0845 -0.2996  0.0572
 4875W        W20684   2.048  17.513  13.282  0.0234 -0.2629  0.0124
 4876W        W20685   6.721   1.727  12.451 -0.2429 -0.0373  0.3298
 4877W        W20686  17.921  13.568   0.398 -0.0025 -0.2600  0.0919
 4878W        W20687  13.611   9.162   2.576  0.2336  0.0230  0.0749
 4879W        W20688   3.912  18.028   4.133 -0.0161 -0.1201  0.0693
 4880W        W20689  12.714   5.713  14.598  0.0508  0.2707 -0.2817
 4881W        W20690  17.544   2.016  13.753 -0.0558 -0.4500  0.1389
 4882W        W20691  17.741  10.188   2.602 -0.0525  0.0458 -0.3406
 4883W        W20692   2.490   4.809   9.498  0.1146  0.0158 -0.0245
 4884W        W20693   2.004   3.510   2.497 -0.2930  0.1983  0.1578
 4885W        W20694  16.642   8.934  10.507 -0.2144 -0.0266 -0.2557
 4886W        W20695  18.990  17.960   1.275  0.2005 -0.1207  0.0129
 4887W        W20696   6.901  16.098  11.817  0.3260  0.2121 -0.3815
 4888W        W20697   8.626   1.816  10.542 -0.4396 -0.2680 -0.1783
 4889W        W20698   5.261  12.528  10.985 -0.1227  0.1658  0.2739
 4890W        W20699   4.514   5.038  14.605  0.0171 -0.1690  0.0163
 4891W        W20700   4.885   9.657   2.572  0.4585 -0.4972  0.1648
 4892W        W20701  13.610  14.243   5.196 -0.2036 -0.4347 -0.2832
 4893W        W20702   9.423  12.140   1.935 -0.2087  0.0058 -0.2048
 4894W        W20703  14.937  10.975   2.544 -0.0798  0.2894 -0.1076
 4895W        W20704  11.292   8.931   4.170 -0.2338  0.1964  0.2084
 4896W        W20705  18.070   3.049  12.716 -0.0174 -0.0996  0.0363
 4897W        W20706  10.955   5.709   3.451 -0.1779  0.2463  0.2379
 4898W        W20707  16.005  11.944  11.941 -0.0282 -0.1313 -0.1057
 4899W        W20708  12.505   0.951   4.688  0.0827 -0.1290  0.1417
 4900W        W20709   9.338   1.192   3.284  0.3608  0.1608  0.2942
 4901W        W20710   0.425  12.975   0.127  0.1316 -0.2094 -0.1928
 4902W        W20711   2.651   9.576   1.306 -0.3872 -0.1186 -0.2545
 4903W        W20712  14.173  12.820   4.200 -0.0592 -0.3682 -0.1783
 4904W        W20713  10.007   7.429   1.650 -0.1112 -0.1288  0.0640
 4905W        W20714  19.025  18.731  12.926 -0.0174  0.2263  0.1710
 4906W        W20715   3.183  13.438  12.753  0.2327 -0.1961 -0.1426
 4907W        W20716  15.239  10.045  14.631 -0.1367 -0.0370 -0.0857
 4908W        W20717  13.506   2.366   0.498  0.1322  0.0566 -0.1857
 4909W        W20718   5.440  12.515   0.313 -0.0994  0.0606 -0.3793
 4910W        W20719   3.074   6.309   3.585  0.3431  0.0519  0.1154
 4911W        W20720   2.310   5.167   4.913  0.0091  0.0106 -0.1797
 4912W        W20721   8.826   5.163  12.194 -0.0971 -0.0347  0.0498
 4913W        W20722   5.665  10.627   1.427 -0.0558  0.2656  0.0309
 4914W        W20723  17.323   8.380   4.148 -0.2064  0.0221 -0.1596
 4915W        W20724   7.582   4.102   1.838  0.0733 -0.1635  0.1403
 4916W        W20725   4.997  19.082  15.057 -0.0109  0.1946 -0.0483
 4917W        W20726   4.519   5.675   0.413  0.0221  0.0278  0.0640
 4918W        W20727  13.098  14.442   1.829  0.1525 -0.1831 -0.1462
 4919W        W20728   1.009  16.688  13.377 -0.1964  0.0194 -0.2426
 4920W        W20729  10.566  12.271  14.038 -0.0022 -0.0078 -0.0967
 4921W        W20730   8.368  18.394   2.635 -0.1776 -0.1116 -0.1868
 4922W        W20731  17.760  17.083   2.735  0.3201 -0.0841 -0.1024
 4923W        W20732   4.330   6.545   0.283  0.6232 -0.3259  0.2107
 4924W        W20733  10.519   2.590  14.485 -0.2111 -0.0372 -0.4401
 4925W        W20734   2.035   2.233   1.267 -0.1224 -0.0146  0.0922
 4926W        W20735   2.861   5.119  14.036  0.0497 -0.2962  0.0763
 4927W        W20736   7.829   9.643   4.116  0.1662  0.0196  0.3642
 4928W        W20737   6.853  17.357  12.367 -0.1850 -0.3268  0.3860
 4929W        W20738  14.568   6.307  13.140  0.0551 -0.1837  0.4156
 4930W        W20739   2.894   9.583  14.041  0.0654  0.2246  0.0466
 4931W        W20740  14.645  15.937  13.634  0.0112  0.2226  0.0513
 4932W        W20741  10.153   4.333   4.886  0.2107  0.0844 -0.0687
 4933W        W20742  18.061  11.922  14.781  0.1257  0.0875  0.1471
 4934W        W20743  16.843   7.383   3.928  0.1608 -0.2967  0.2628
 4935W        W20744  18.889  15.203  13.130  0.3606 -0.0879  0.0247
 4936W        W20745  10.327  12.173  14.859 -0.2463 -0.0276 -0.0049
 4937W        W20746   5.580   6.773   2.907 -0.5560 -0.2083  0.1190
 4938W        W20747  15.549  14.018  11.439  0.2196 -0.1350  0.0302
 4939W        W20748   0.064  13.241  10.921  0.3795  0.0704  0.0043
 4940W        W20749  18.521   9.634  14.828 -0.0733 -0.0556 -0.2033
 4941W        W20750  17.864   9.880   0.050  0.0792  0.2365 -0.1676
 4942W        W20751   9.170   2.343  11.908  0.1521 -0.0884 -0.0291
 4943W        W20752  11.483  18.386   1.777  0.0461 -0.1870 -0.0369
 4944W        W20753   2.657  17.878  10.660 -0.0447 -0.1071 -0.0690
 4945W        W20754   6.876  17.855  12.896 -0.1997  0.3052  0.3197
 4946W        W20755   2.958  13.942  12.812 -0.0141 -0.3237 -0.0068
 4947W        W20756   3.525  17.011   4.205 -0.1635 -0.2172 -0.0243
 4948W        W20757   5.479   5.638   4.357 -0.1506 -0.0566 -0.0667
 4949W        W20758  11.303  14.146   4.741 -0.2098 -0.2132 -0.0962
 4950W        W20759  18.062  11.124  14.739  0.4344  0.0803 -0.0203
 4951W        W20760  14.506   8.792  10.802 -0.3691 -0.2380  0.2601
 4952W        W20761   2.378  12.798   0.837 -0.0558 -0.2458  0.0205
 4953W        W20762   3.666  15.938   0.332  0.1993 -0.0769  0.0944
 4954W        W20763  14.640  12.843  14.389 -0.1959  0.1573  0.2586
 4955W        W20764   1.460  11.608   3.281 -0.1096 -0.3054  0.0464
 4956W        W20765  10.529  15.389   2.375 -0.2943  0.2447 -0.3912
 4957W        W20766  18.793  12.892   4.066  0.2615  0.2991 -0.1809
 4958W        W20767  14.529   3.705  13.130 -0.0004  0.2972  0.0757
 4959W        W20768  18.217  17.000  10.688  0.0905 -0.3098 -0.2517
 4960W        W20769   5.148  12.227   2.475 -0.4258  0.0441 -0.4761
 4961W        W20770   3.251  18.155   1.075 -0.1771  0.0223 -0.2462
 4962W        W20771  10.024  15.794  11.882  0.0303 -0.0380  0.1641
 4963W        W20772   5.884  11.934  10.743  0.1662 -0.0112 -0.0706
 4964W        W20773   5.011  11.683   4.251 -0.3169 -0.0612  0.0002
 4965W        W20774   9.891  12.756   3.604  0.0989  0.3315 -0.1267
 4966W        W20775   4.998  10.004   2.112  0.1183  0.1813  0.1395
 4967W        W20776  13.596  18.082   4.148  0.2575  0.0129 -0.0675
 4968W        W20777   3.108   9.090  14.236  0.1806  0.2281 -0.0388
 4969W        W20778   2.223   1.302  12.998  0.1942 -0.0449  0.5328
 4970W        W20779   9.106   6.822  12.804 -0.1330 -0.0795  0.0410
 4971W        W20780   6.412  13.963  10.281 -0.0068 -0.4610 -0.0124
 4972W        W20781   0.031  18.823  11.867 -0.1530  0.1798 -0.3201
 4973W        W20782  11.355  15.892   5.063 -0.2307  0.1028  0.3386
 4974W        W20783  10.935  16.687   4.138 -0.3621  0.1615  0.3126
 4975W        W20784  19.032   4.216  12.105  0.2615 -0.0871  0.4112
 4976W        W20785  15.574  19.088   2.209  0.0246 -0.2209 -0.0880
 4977W        W20786   1.993   7.816   1.646  0.3716 -0.5199 -0.0550
 4978W        W20787   6.016   9.693   3.931  0.0277 -0.3507  0.1228
 4979W        W20788  12.152   7.045  14.320  0.0634  0.1913  0.0307
 4980W        W20789   8.960  11.269   4.441 -0.0014 -0.0303  0.3968
 4981W        W20790  13.480  16.089   0.522  0.0263  0.3617 -0.0806
 4982W        W20791   0.581  11.380   3.665  0.0195  0.2126  0.1262
 4983W        W20792  17.147   5.270   0.033  0.0990  0.2740  0.0375
 4984W        W20793   8.374   6.883   9.808 -0.3210 -0.1006  0.0390
 4985W        W20794  14.077   4.768   4.729  0.2971 -0.1326  0.0594
 4986W        W20795   8.776  10.833   4.236 -0.0779  0.4660 -0.2797
 4987W        W20796   0.887   2.048  12.039 -0.1496  0.0932 -0.0477
 4988W        W20797   2.599  12.396  15.200 -0.0360  0.1059  0.2333
 4989W        W20798   9.235   6.610  12.426 -0.2440 -0.0419  0.1766
 4990W        W20799  17.493   0.042   1.637  0.0008  0.0571 -0.2374
 4991W        W20800  12.312   3.089  14.758  0.0583  0.4368 -0.0038
 4992W        W20801  17.618   5.412   3.177  0.6288 -0.0116  0.2815
 4993W        W20802  17.850   1.845   2.650 -0.1936  0.1594  0.2196
 4994W        W20803   9.787   7.387   9.891 -0.0267  0.1792 -0.2022
 4995W        W20804   6.294  18.576  11.808 -0.0891 -0.0738  0.0167
 4996W        W20805  11.906  15.081   0.952  0.1762 -0.2777  0.1493
 4997W        W20806  16.680  15.514  11.191  0.3237  0.0086 -0.0271
 4998W        W20807  13.780   1.338   0.332 -0.0487 -0.1093  0.1575
 4999W        W20808   5.105   1.274   9.043  0.2359  0.1458 -0.1266
 5000W        W20809  10.915   6.304  10.474 -0.0303 -0.3476 -0.1754
 5001W        W20810  10.432  17.946   1.139 -0.0762 -0.0203  0.0650
 5002W        W20811   4.203  19.080   3.001 -0.1812  0.1492 -0.2309
 5003W        W20812  17.916   8.759  14.066  0.1647  0.2858  0.4632
 5004W        W20813   1.795  18.669   1.787 -0.0051 -0.1757  0.1771
 5005W        W20814  17.318  11.443   1.204 -0.2018  0.1116  0.0468
 5006W        W20815   3.022   5.388   3.608  0.0795 -0.1599 -0.2641
 5007W        W20816  13.503  12.832  12.031 -0.2941  0.0040  0.1086
 5008W        W20817  17.229   4.953   3.336 -0.0099 -0.0613 -0.0186
 5009W        W20818   0.370   4.275   3.785  0.1175 -0.0377  0.0149
 5010W        W20819  12.612   1.412  11.648  0.0416  0.2579 -0.4183
 5011W        W20820   9.062   9.737  12.346  0.0782  0.0102  0.1281
 5012W        W20821  11.654   4.379   2.873 -0.6315 -0.1752  0.1607
 5013W        W20822  18.311  13.393   5.151 -0.3347 -0.0166  0.2580
 5014W        W20823   9.310  12.218  11.582  0.1225  0.2865  0.2191
 5015W        W20824   9.686   5.149  13.686  0.2587  0.3649 -0.1926
 5016W        W20825   2.550  11.986   0.335  0.2376 -0.2535  0.0006
 5017W        W20826  17.878  18.699  13.977 -0.0180  0.1039  0.0221
 5018W        W20827   3.160  15.282  13.756  0.0421  0.0643 -0.1054
 5019W        W20828  17.936  15.339   3.076  0.0451  0.3285  0.2328
 5020W        W20829  12.101   5.794   4.707 -0.0625 -0.0726  0.2024
 5021W        W20830   3.008   7.568  14.800 -0.0600  0.1581  0.0420
 5022W        W20831  14.530   5.035  12.692 -0.2213 -0.1031 -0.0170
 5023W        W20832   2.792  15.280  12.322 -0.1672 -0.1500  0.1400
 5024W        W20833   5.246   5.978  13.292 -0.0011  0.1927  0.1331
 5025W        W20834   1.700   4.121   5.429 -0.0782  0.0998 -0.1143
 5026W        W20835  12.806   1.713   1.328 -0.1923 -0.1618  0.0973
 5027W        W20836   8.701   7.842  14.548 -0.2303  0.1659 -0.0576
 5028W        W20837   5.651   7.019  11.096  0.1996 -0.1969 -0.0546
 5029W        W20838   4.374  13.747  10.735  0.2928 -0.1709 -0.0670
 5030W        W20839   5.408  11.520   5.068  0.0088 -0.0770  0.0018
 5031W        W20840  16.430   7.104   2.381  0.1219 -0.1808  0.0641
 5032W        W20841  11.813   3.035   2.291  0.0709 -0.0545  0.0446
 5033W        W20842  10.099  11.088  13.779  0.1827 -0.1988 -0.2951
 5034W        W20843  13.374  18.248  13.849 -0.3598  0.1689 -0.0407
 5035W        W20844   3.302   5.321  10.620 -0.0742 -0.1188 -0.1792
 5036W        W20845  11.772  13.807   5.789 -0.2303  0.0163  0.3521
 5037W        W20846  14.377  14.617   5.390 -0.1708  0.2339 -0.3670
 5038W        W20847   4.146   8.615  10.257  0.0451 -0.2819 -0.1101
 5039W        W20848   3.624  12.320  13.046 -0.0204  0.2102  0.1292
 5040W        W20849   6.048   7.843   3.772 -0.2603 -0.0665 -0.0648
 5041W        W20850   4.271  14.876   0.841 -0.1650  0.2072 -0.1144
 5042W        W20851  13.170   3.294   2.732  0.1615 -0.2090  0.4455
 5043W        W20852   8.880  13.504   5.686  0.0688 -0.0890 -0.1329
 5044W        W20853  16.466  11.085   1.186 -0.3269 -0.0331 -0.3841
 5045W        W20854   5.725   8.237  13.732  0.1611  0.1106  0.0951
 5046W        W20855   2.306  11.903  15.098 -0.2719 -0.0299  0.2163
 5047W        W20856   3.164  15.246   0.036  0.1345 -0.3165 -0.0067
 5048W        W20857  11.558   0.829   3.017 -0.2832 -0.1070 -0.1000
 5049W        W20858   9.723   9.126  12.093  0.3312  0.0917  0.0952
 5050W        W20859  16.432  15.163  13.584 -0.1523  0.0113  0.0293
 5051W        W20860  15.275  15.335   1.867  0.1116 -0.1673  0.1393
 5052W        W20861  11.030  14.589   2.221 -0.0661 -0.1248 -0.1037
 5053W        W20862  18.151  12.693   5.280 -0.0119 -0.0683  0.0732
 5054W        W20863   2.444   4.877   4.251 -0.1312  0.0203 -0.1163
 5055W        W20864  15.838  15.340   2.509 -0.0256 -0.0702  0.1254
 5056W        W20865   1.170  15.081   3.670 -0.1265  0.1218  0.0692
 5057W        W20866  10.960   2.288   4.129  0.0310 -0.0456 -0.2554
 5058W        W20867   6.878   2.033   1.546 -0.1843 -0.0599  0.2646
 5059W        W20868   0.117  11.399  12.962 -0.0767 -0.1752 -0.0695
 5060W        W20869  16.429  18.872   4.129  0.1431  0.2581  0.2887
 5061W        W20870   9.723  17.671   4.348  0.1280 -0.0676  0.0483
 5062W        W20871  13.356   3.646  10.833  0.1061 -0.1885  0.0780
 5063W        W20872  18.261   6.408   2.631 -0.0299  0.0294  0.2270
 5064W        W20873   4.575   6.272  15.137 -0.2303  0.2525  0.0520
 5065W        W20874   8.585  11.539  12.698 -0.1538 -0.1444 -0.1904
 5066W        W20875   2.177  15.080  13.247  0.3820 -0.2097  0.3134
 5067W        W20876  17.408   7.297   1.752  0.3214 -0.1722  0.4235
 5068W        W20877   4.099  11.722  12.684 -0.1179  0.0889  0.0011
 5069W        W20878  11.292  12.448   4.297 -0.3761  0.1371 -0.3511
 5070W        W20879   2.170   8.923  13.156 -0.1211  0.1902 -0.0719
 5071W        W20880   6.922   1.766   1.080  0.1730 -0.0017  0.1498
 5072W        W20881  16.551   1.850   0.392  0.0022  0.2163  0.1893
 5073W        W20882   7.940   1.679   4.644  0.1435  0.0990 -0.0308
 5074W        W20883   2.383  10.150  11.258  0.0023 -0.1711 -0.0577
 5075W        W20884   4.834   7.504  10.797  0.0499 -0.1006 -0.0673
 5076W        W20885  18.353   5.720  11.583 -0.1387  0.1849  0.0004
 5077W        W20886  15.600   3.494   0.483  0.1303 -0.0329  0.2332
 5078W        W20887   0.586   1.263  14.434  0.1536  0.1124  0.2586
 5079W        W20888   9.328   9.935  11.516 -0.1109  0.0116 -0.0172
 5080W        W20889   1.969   2.203  13.586 -0.0396 -0.3168  0.3148
 5081W        W20890   7.329   3.592  11.984 -0.0154 -0.0882  0.3941
 5082W        W20891   9.369   4.127  11.359  0.0792 -0.0540  0.0693
 5083W        W20892   5.465   1.808   4.471  0.2634 -0.0650  0.1755
 5084W        W20893  11.187  11.015   2.113  0.0667  0.1861 -0.1639
 5085W        W20894   3.090   3.569  11.764 -0.1297  0.0765 -0.3356
 5086W        W20895   2.899  17.825  14.886  0.3205 -0.1371  0.0128
 5087W        W20896  14.455  18.167  15.142 -0.0806 -0.1626  0.3848
 5088W        W20897   5.135   5.469  11.695  0.0175  0.0933  0.2258
 5089W        W20898   4.585  11.973  13.926 -0.1822 -0.0140 -0.1544
 5090W        W20899  12.529  10.876  12.722  0.2002 -0.1903 -0.1359
 5091W        W20900   6.103   2.485  10.670  0.1256 -0.1418  0.1909
 5092W        W20901  12.029  11.949   5.852 -0.2889  0.0919  0.4549
 5093W        W20902   6.777   7.944  13.176  0.5783  0.0053  0.0603
 5094W        W20903  16.002   6.824   3.514 -0.2378 -0.0955 -0.0116
 5095W        W20904   1.211  18.744   1.225  0.1934  0.0170  0.0623
 5096W        W20905   5.667   9.095  11.856 -0.2878 -0.0666  0.0045
 5097W        W20906   3.250   1.822   1.993 -0.2316 -0.4411  0.0571
 5098W        W20907   1.679   3.184   0.239 -0.2172 -0.0192 -0.1390
 5099W        W20908   5.218   5.870   2.638 -0.0981 -0.2834 -0.0634
 5100W        W20909   0.470  17.455  14.231 -0.1016  0.2464  0.0831
 5101W        W20910  12.090  12.824  13.029 -0.1362  0.1615  0.1803
 5102W        W20911  11.932  15.116   0.173 -0.2125 -0.1754  0.3806
 5103W        W20912   2.832  15.439  10.753  0.0006 -0.3330  0.0489
 5104W        W20913  12.141   8.301  10.617  0.2445  0.1534 -0.1933
 5105W        W20914   1.289  12.744  14.476  0.3751  0.1262  0.4146
 5106W        W20915   7.372  12.722   5.454  0.2202 -0.1107  0.2599
 5107W        W20916   5.549   5.994   1.002  0.3409  0.0541  0.1870
 5108W        W20917  13.327  17.881   3.248  0.0586 -0.0258  0.1344
 5109W        W20918  13.531   4.822   0.601  0.1037 -0.0564 -0.0055
 5110W        W20919  18.734  13.063   1.608  0.0806 -0.0457  0.2029
 5111W        W20920  18.098  12.911   4.812 -0.1013 -0.1663  0.2575
 5112W        W20921  12.294   4.425  12.278  0.1580  0.1289  0.1474
 5113W        W20922  11.911  15.432  11.499  0.2502  0.1420 -0.1205
 5114W        W20923   6.316   1.496  11.069 -0.0472  0.0708 -0.3045
 5115W        W20924   6.718   6.246  12.680  0.2211  0.1092  0.0932
 5116W        W20925   8.857   0.918   3.491  0.0636  0.1704 -0.0635
 5117W        W20926   0.304  18.588  12.655 -0.1060  0.1456 -0.1749
 5118W        W20927   4.591  14.548   4.716  0.3426  0.0981 -0.1344
 5119W        W20928   5.670   7.299  10.414  0.0035  0.2229  0.2736
 5120W        W20929  12.349  16.478  11.855  0.1669 -0.0116 -0.1232
 5121W        W20930   0.190   2.816   4.073  0.1954  0.1007 -0.1311
 5122W        W20931   3.574   7.453  10.428  0.2671 -0.4012  0.0609
 5123W        W20932   4.863   6.281   2.687 -0.0793 -0.0066  0.1785
 5124W        W20933   5.115  17.225   2.140  0.1084 -0.1650 -0.3082
 5125W        W20934  11.122  17.379  12.333 -0.1793 -0.0940  0.1336
 5126W        W20935   6.148   7.604   3.209 -0.1752  0.0719 -0.0920
 5127W        W20936   5.356  14.748   3.830 -0.0803  0.1865 -0.1829
 5128W        W20937   0.261   9.596   0.653  0.0830  0.1213  0.0447
 5129W        W20938  13.463  17.934  14.272  0.1067  0.1200 -0.1942
 5130W        W20939   3.505   6.054  12.335 -0.1328  0.1108 -0.0232
 5131W        W20940  17.840   6.178  10.574  0.2591  0.2995 -0.1042
 5132W        W20941   3.225   8.114  10.280 -0.1311  0.2812  0.1294
 5133W        W20942  12.453  13.908   4.548 -0.0494 -0.6087  0.0490
 5134W        W20943   9.396   6.408   0.879 -0.0847  0.0415 -0.2480
 5135W        W20944   0.227  12.197   4.061  0.6009 -0.1908 -0.2397
 5136W        W20945  13.631   3.507   1.102  0.1896  0.2972  0.1108
 5137W        W20946  12.936  10.335  11.287  0.1672 -0.1978 -0.2072
 5138W        W20947  19.134   4.629   2.776 -0.2370 -0.1599 -0.1304
 5139W        W20948   1.941  16.154  14.632 -0.0129 -0.1439 -0.1266
 5140W        W20949  18.837  18.390   0.380  0.4608  0.2034  0.2148
 5141W        W20950  13.437   2.700  12.832 -0.1457  0.1131 -0.1534
 5142W        W20951  17.745   1.891  10.733 -0.1886 -0.1016 -0.0957
 5143W        W20952  16.867   6.174  13.068  0.4634  0.1092 -0.1752
 5144W        W20953  15.293   9.734  10.299  0.0935  0.0059  0.1379
 5145W        W20954  18.211  10.930   2.752 -0.0795  0.2068 -0.0281
 5146W        W20955  14.578   2.156   0.301  0.0596 -0.0254 -0.1652
 5147W        W20956   7.818   6.223  11.754 -0.2217  0.0904  0.0105
 5148W        W20957  12.329  12.935  13.496 -0.1293  0.1596  0.1170
 5149W        W20958  14.523   1.233  13.795 -0.0621  0.2946 -0.0416
 5150W        W20959   3.389  13.509   2.593  0.1683  0.0687 -0.2144
 5151W        W20960   2.047  17.426  10.202 -0.3381 -0.1671  0.0571
 5152W        W20961   3.757  12.409  14.336  0.3952  0.1906  0.1461
 5153W        W20962  15.234  10.554  15.103 -0.1232  0.2118 -0.3382
 5154W        W20963  13.858   6.645  13.676 -0.1483  0.2414  0.3485
 5155W        W20964  18.026  18.754  10.967 -0.0783  0.0202  0.2254
 5156W        W20965  16.932   3.772  14.724 -0.2780 -0.1238 -0.0360
 5157W        W20966  17.870   1.521   4.872  0.1492 -0.0734  0.3114
 5158W        W20967   3.612  10.781   4.171  0.1310  0.2895 -0.1740
 5159W        W20968   9.669   1.361   4.527 -0.3144 -0.0124 -0.0910
 5160W        W20969  16.772   9.910  13.070  0.2381 -0.4124 -0.1265
 5161W        W20970  13.223   9.064  11.963  0.2385 -0.0452  0.2697
 5162W        W20971   6.791   9.029  13.580  0.1842 -0.2414 -0.0030
 5163W        W20972   2.308  11.000  12.160 -0.0361 -0.1340 -0.2688
 5164W        W20973   3.851   2.710   0.340  0.1547  0.0671  0.1308
 5165W        W20974   3.243  11.837   3.161  0.2143 -0.0035  0.0884
 5166W        W20975   7.973  12.052   5.453 -0.1413 -0.0864  0.0280
 5167W        W20976  10.969   6.747  10.793  0.0893 -0.0260  0.1149
 5168W        W20977   0.266   9.896   1.335  0.2901 -0.0902 -0.1552
 5169W        W20978  16.183   6.235   2.745 -0.0035  0.1432 -0.0866
 5170W        W20979   1.511   8.055   2.662 -0.1369  0.1101  0.0569
 5171W        W20980  11.021   0.217   2.439  0.0397  0.1764 -0.2327
 5172W        W20981   1.086   5.407  11.142  0.1627  0.3799  0.3664
 5173W        W20982  18.776  12.153  13.204 -0.0819  0.0870 -0.2259
 5174W        W20983   6.198  16.677  15.106  0.1243 -0.0841 -0.2539
 5175W        W20984   4.185   0.451  13.016 -0.3245 -0.2120  0.1561
 5176W        W20985  17.862  11.058  11.301 -0.3525  0.0637  0.1610
 5177W        W20986   6.470  12.890   3.108 -0.0130  0.0298  0.4145
 5178W        W20987   4.226  16.456   3.532 -0.0645  0.1360  0.2806
 5179W        W20988  18.159   3.417  14.019 -0.0763  0.2054 -0.1285
 5180W        W20989   4.673  16.781   2.680  0.1322  0.1350 -0.2914
 5181W        W20990  18.742   8.000   5.488  0.1469 -0.0714  0.0704
 5182W        W20991  14.438   5.271  14.922 -0.3768  0.1558 -0.0938
 5183W        W20992  16.215  13.913   2.721  0.1704 -0.0605  0.1235
 5184W        W20993   1.810   7.159   3.748  0.0939  0.0863  0.2390
 5185W        W20994  10.524   0.499   4.487  0.3800 -0.0593 -0.0066
 5186W        W20995   1.111   1.264   5.470 -0.1873 -0.2039 -0.3881
 5187W        W20996   9.839   7.963  13.982  0.1254  0.2983  0.3308
 5188W        W20997  10.893   5.734   0.505  0.1560  0.0018  0.0805
 5189W        W20998   3.241   5.713   0.524 -0.1524  0.3081  0.1360
 5190W        W20999   1.366   1.596   4.480  0.0380 -0.1126  0.1020
 5191W        W21000  12.984   3.787  13.282 -0.1255 -0.0736 -0.1461
 5192W        W21001  12.749  16.190   5.425 -0.0294  0.0577 -0.4207
 5193W        W21002   2.055   9.687   1.137 -0.4284  0.0184  0.1690
 5194W        W21003  11.303  12.066  11.779  0.1551  0.2072 -0.5184
 5195W        W21004  13.582   7.987   9.308 -0.4610 -0.0976  0.2193
 5196W        W21005   0.306  14.597  14.294  0.1850 -0.0157 -0.1408
 5197W        W21006  16.231  12.471   0.197 -0.4254  0.0034 -0.0482
 5198W        W21007  10.539  17.895   1.616  0.2512  0.2840 -0.1470
 5199W        W21008  14.778   5.326  10.477 -0.3094  0.1881 -0.0071
 5200W        W21009  15.337  18.417  13.397 -0.1092 -0.0175 -0.1817
 5201W        W21010   6.542  13.015  10.268  0.0717  0.1831 -0.1534
 5202W        W21011   4.719   9.084  11.645  0.0239  0.3708  0.2232
 5203W        W21012   1.335  15.208   9.706  0.0805 -0.2339  0.1779
 5204W        W21013  18.097   4.438  12.478 -0.0208  0.3328  0.0736
 5205W        W21014  16.653  10.865  13.399  0.1006  0.3012  0.1103
 5206W        W21015  18.760   9.464   4.847 -0.0955 -0.0334  0.2289
 5207W        W21016   7.680   8.479   4.070  0.4020 -0.0202 -0.0397
 5208W        W21017   7.541   3.115   0.384  0.0038  0.1811  0.0350
 5209W        W21018   8.199   8.070   4.866  0.2329  0.0099 -0.3211
 5210W        W21019  11.830   7.875   1.487 -0.0418  0.0311  0.0195
 5211W        W21020  17.640   6.790  14.044  0.2283 -0.0273  0.1851
 5212W        W21021  12.314   8.913   0.696  0.0672 -0.2339  0.0890
 5213W        W21022   1.566  16.468   1.688  0.0273 -0.0158  0.2116
 5214W        W21023   6.053   4.918   3.184 -0.1111 -0.2120 -0.1189
 5215W        W21024  16.188  12.433   1.717 -0.2212  0.1235 -0.2728
 5216W        W21025  12.079  16.516   3.710 -0.0030 -0.1412 -0.0309
 5217W        W21026  16.367   7.411  11.315 -0.4548 -0.1020  0.3818
 5218W        W21027  14.103   6.891   4.699 -0.1296 -0.0810  0.2488
 5219W        W21028   5.707   5.070   2.190  0.0179  0.0611 -0.1698
 5220W        W21029  13.239  18.844   3.306 -0.0572  0.1514  0.0016
 5221W        W21030   1.371  10.560   1.213 -0.3136  0.0277 -0.1832
 5222W        W21031  16.639   3.924  12.908 -0.3697 -0.3304 -0.0069
 5223W        W21032  12.633   2.944   4.833  0.1520 -0.0444  0.1466
 5224W        W21033   6.168  11.819   3.980  0.2059  0.3336 -0.0197
 5225W        W21034   6.981  11.843   2.034 -0.1644  0.0997  0.0616
 5226W        W21035   5.932  19.093   4.750 -0.1649 -0.2136 -0.1114
 5227W        W21036  10.866  12.941   6.119  0.3843 -0.0574 -0.2413
 5228W        W21037   3.724  15.228  11.420  0.1376  0.1340 -0.0492
 5229W        W21038   8.020   7.149   2.763 -0.0408 -0.0909 -0.1978
 5230W        W21039   3.374  11.113   5.952 -0.0084 -0.0476  0.3551
 5231W        W21040  15.303   9.587   4.409 -0.0664  0.1267  0.0208
 5232W        W21041   6.754   2.317   1.969  0.0164 -0.0179  0.1084
 5233W        W21042  11.169  16.790   3.574 -0.1597 -0.1448  0.2318
 5234W        W21043   8.735  11.334   2.726  0.0704  0.2191  0.0804
 5235W        W21044   7.821   1.131   5.939 -0.0537  0.0116 -0.0827
 5236W        W21045  15.093  11.995   4.696 -0.1985 -0.0691 -0.3026
 5237W        W21046  10.003  16.721   0.381  0.1460 -0.0906 -0.2735
 5238W        W21047  16.663  18.059   3.877  0.1179 -0.0815 -0.0650
 5239W        W21048  13.099   0.744  12.089 -0.0178 -0.1116 -0.1079
 5240W        W21049   9.322   0.110   3.971  0.0067 -0.2212  0.0997
 5241W        W21050  12.392  11.035   4.868 -0.0630  0.3931  0.0063
 5242W        W21051   5.458  12.039   5.063 -0.2486  0.1352  0.0155
 5243W        W21052  10.457   2.632  10.593 -0.0757  0.1106 -0.0599
 5244W        W21053  10.963   3.594  14.866 -0.0777 -0.3776  0.0377
 5245W        W21054   0.262   2.304   4.259  0.0900  0.1192 -0.1685
 5246W        W21055   6.207  16.352  14.430 -0.0323 -0.3248 -0.2635
 5247W        W21056  13.377   0.612   3.377 -0.0434 -0.0897 -0.1368
 5248W        W21057  11.052  12.055   1.822  0.0628 -0.1357  0.1346
 5249W        W21058  14.925  11.275   0.582 -0.0164  0.3259 -0.0910
 5250W        W21059   5.401   0.224  11.981  0.1399  0.0272 -0.0795
 5251W        W21060  13.083   4.525   0.592 -0.1435 -0.0552  0.0467
 5252W        W21061   3.969  11.371   4.166  0.2394 -0.1502 -0.0367
 5253W        W21062  17.433   7.728   2.289 -0.2101 -0.0094  0.3535
 5254W        W21063   8.741  13.960   4.999 -0.1970 -0.1552  0.5780
 5255W        W21064  13.352   7.928   2.356 -0.0461  0.0519  0.1820
 5256W        W21065  17.986  18.871   3.258 -0.4924  0.0161 -0.1232
 5257W        W21066  14.349   6.534   1.270  0.2612  0.0226  0.2250
 5258W        W21067   5.093   7.701   2.459 -0.3444 -0.1578  0.0695
 5259W        W21068  13.758  17.335  11.404 -0.2557 -0.0173 -0.0518
 5260W        W21069   0.115   6.734   2.672  0.0471  0.3146 -0.0169
 5261W        W21070   4.030  10.945  14.991  0.3933 -0.2372 -0.1665
 5262W        W21071  13.301  13.986   3.400 -0.1009  0.1008  0.1715
 5263W        W21072  15.648   7.827  11.223 -0.1617 -0.1806  0.1948
 5264W        W21073  17.826   2.816   2.782 -0.0700 -0.3242  0.1673
 5265W        W21074  16.587   9.566  12.754  0.2364  0.0594 -0.2998
 5266W        W21075   5.449   1.134   0.045 -0.0948  0.1714  0.0893
 5267W        W21076  10.093   6.358  14.095  0.2281  0.1421  0.0968
 5268W        W21077  16.043   8.584  11.224 -0.4223 -0.2231  0.1361
 5269W        W21078  11.806  17.080   6.210  0.0999  0.1828 -0.1311
 5270W        W21079   0.799   6.885   0.405 -0.0242  0.1821  0.0023
 5271W        W21080  17.284  17.302  15.156 -0.2038 -0.0552  0.2919
 5272W        W21081  17.002   8.699   3.905  0.0187 -0.0686  0.0481
 5273W        W21082   8.963   6.714   3.945 -0.1233  0.0070 -0.1767
 5274W        W21083   4.651  12.832  14.219 -0.0548 -0.3910  0.2177
 5275W        W21084  12.635   0.190   3.884 -0.0192 -0.2422 -0.1749
 5276W        W21085  14.131   1.408  12.549 -0.2589  0.5733 -0.1016
 5277W        W21086  13.928  18.560   2.809  0.0405  0.0964  0.0840
 5278W        W21087  13.010  18.901   4.845  0.2473  0.0365 -0.1306
 5279W        W21088   3.805  14.510   2.809  0.1273 -0.0132 -0.2822
 5280W        W21089   1.345  13.385   5.271 -0.1064 -0.1913  0.0699
 5281W        W21090   5.929   8.368   3.512  0.0650 -0.1731  0.0310
 5282W        W21091   2.053   5.416  10.369 -0.3529 -0.0787  0.2737
 5283W        W21092   4.093   6.625   4.399 -0.0881  0.2240 -0.0948
 5284W        W21093  16.617  14.074   1.770  0.3471  0.0981 -0.1859
 5285W        W21094  15.505  14.739   4.992 -0.1959  0.1234  0.0588
 5286W        W21095   9.047   4.739   8.951 -0.1066  0.0894 -0.1052
 5287W        W21096  17.690   5.904   3.078 -0.0404 -0.2334  0.0645
 5288W        W21097   7.150  18.287   3.354  0.0039 -0.0410  0.0136
 5289W        W21098  14.661   0.021  12.458  0.3556 -0.2145 -0.1480
 5290W        W21099   4.126   3.104   0.461  0.2052  0.0915 -0.1456
 5291W        W21100  12.232  13.455  15.125 -0.0627 -0.1332  0.1928
 5292W        W21101   0.556   1.672   1.149 -0.2521  0.1553  0.3270
 5293W        W21102   6.173   3.296   2.511  0.1473  0.1416 -0.0425
 5294W        W21103  10.719   8.209  14.451 -0.3564 -0.0335 -0.0981
 5295W        W21104  10.093   2.867   1.047  0.3063 -0.3145 -0.3804
 5296W        W21105  14.938   3.543  10.747  0.0518  0.0324  0.0714
 5297W        W21106   4.990   1.434  11.553  0.1616  0.3496 -0.2415
 5298W        W21107   2.922  14.262   0.112 -0.1867  0.2616 -0.0231
 5299W        W21108   5.494  11.055   0.714 -0.3095  0.0496  0.1045
 5300W        W21109   8.829   2.326  12.530  0.3177 -0.2163 -0.2421
 5301W        W21110   7.526  16.934   3.960 -0.0645 -0.3087  0.3311
 5302W        W21111   6.485  14.744   0.193 -0.0675  0.0507 -0.0371
 5303W        W21112  18.017   1.179   5.235  0.2639  0.3081 -0.5134
 5304W        W21113   2.889   7.112  14.006 -0.1814 -0.1427  0.0310
 5305W        W21114   3.836   3.818   1.088 -0.2317 -0.2471 -0.3155
 5306W        W21115   8.371   6.826   2.309 -0.0580 -0.0204  0.2014
 5307W        W21116  18.705   2.432  12.056 -0.2395  0.1130  0.1156
 5308W        W21117   4.990  17.393  12.120 -0.0650  0.0227 -0.1957
 5309W        W21118  11.857   5.710  14.601 -0.0320  0.1371 -0.1766
 5310W        W21119  10.732   0.674   4.995 -0.4790  0.1772  0.0966
 5311W        W21120   1.678  12.586   3.348 -0.2151  0.0115  0.2209
 5312W        W21121   7.487   0.181  10.572 -0.2711 -0.2303  0.0609
 5313W        W21122  13.163   6.416   3.160  0.2630 -0.1846  0.4149
 5314W        W21123  13.111   3.204   3.535 -0.1950  0.1989 -0.2455
 5315W        W21124  11.767   1.770  14.662 -0.2303  0.3026  0.1590
 5316W        W21125  14.976   5.025   1.570 -0.0716 -0.1734 -0.0229
 5317W        W21126   5.512  16.355   3.037  0.1013  0.0253  0.0510
 5318W        W21127   0.641  10.209   1.423  0.1583 -0.1170 -0.1825
 5319W        W21128   7.699   9.628   0.702  0.3373  0.1931 -0.4186
 5320W        W21129  14.337   7.996  11.453 -0.1788  0.1232 -0.1290
 5321W        W21130   1.056  15.522  14.968  0.1746  0.1633 -0.1250
 5322W        W21131  16.172  10.764  12.685 -0.1081  0.0354 -0.1895
 5323W        W21132  17.648  11.726  15.117 -0.0614  0.0900 -0.1245
 5324W        W21133   6.671   5.703  14.573  0.4456  0.1767 -0.1574
 5325W        W21134   3.682   3.714   3.986 -0.0367 -0.2269 -0.1631
 5326W        W21135  12.371  10.355  11.060 -0.2588  0.1772  0.1224
 5327W        W21136   2.380  17.831   3.588  0.1803  0.0005  0.0602
 5328W        W21137   6.603   9.639  11.684  0.0401 -0.1536  0.1444
 5329W        W21138  12.764   7.895   3.222  0.3604  0.4560  0.2391
 5330W        W21139  16.118  16.237   1.357 -0.2084 -0.4297  0.0894
 5331W        W21140  12.624  10.849   2.020 -0.1659  0.1396  0.1175
 5332W        W21141   9.108  14.352   2.391 -0.0269  0.1753 -0.0162
 5333W        W21142  13.877  17.549   0.142  0.0895 -0.0667 -0.0875
 5334W        W21143   2.515   0.589  12.626 -0.2106  0.0493 -0.1887
 5335W        W21144   2.222   1.656   4.876  0.0958  0.5736  0.0792
 5336W        W21145  10.030  16.730   1.445  0.0373 -0.2834  0.2362
 5337W        W21146  18.810  17.056   3.834 -0.0021  0.4718 -0.0291
 5338W        W21147  12.659  11.273  11.434  0.0259  0.2432  0.2348
 5339W        W21148   9.973  17.860  14.457  0.1432 -0.1486  0.0056
 5340W        W21149   7.728   3.901  13.026  0.0813 -0.2860 -0.2142
 5341W        W21150  14.903   6.731  11.278 -0.5031 -0.0932  0.3123
 5342W        W21151   9.445  13.984   1.982  0.1381 -0.0788 -0.0209
 5343W        W21152   9.076   0.553  13.893 -0.1051 -0.2026 -0.0447
 5344W        W21153   0.474  10.708   1.701 -0.3386  0.2435 -0.1752
 5345W        W21154   3.328  18.086  12.815  0.0931 -0.1436 -0.0721
 5346W        W21155  10.897  14.106   1.342  0.1335 -0.3729 -0.2291
 5347W        W21156  15.624  11.573  12.397 -0.1947  0.0274  0.0379
 5348W        W21157   8.909  11.364  12.256 -0.0870 -0.3022  0.1224
 5349W        W21158  18.064   7.327   0.960 -0.1666 -0.0876 -0.0370
 5350W        W21159   2.178   8.594   0.763 -0.0300  0.0131  0.1651
 5351W        W21160  12.967   0.767   4.616  0.0657  0.0757 -0.0469
 5352W        W21161   4.823  14.625  12.907 -0.2891  0.5412  0.0937
 5353W        W21162  18.084  12.004   0.059 -0.0491  0.1000  0.3393
 5354W        W21163  18.167   0.816  14.937 -0.1976 -0.0229 -0.1309
 5355W        W21164   3.481   8.905  11.215  0.1850  0.5345 -0.0520
 5356W        W21165   1.587  13.197   4.226  0.0912  0.1311  0.0978
 5357W        W21166  19.055   8.724   0.230  0.2535  0.1928  0.0346
 5358W        W21167   5.548   7.386   2.573 -0.3375 -0.1282  0.0796
 5359W        W21168   3.879   5.819   2.201  0.1265 -0.0625  0.1186
 5360W        W21169   8.420   7.274  10.639 -0.4682  0.0483  0.1804
 5361W        W21170   2.344  18.901  12.784  0.5978 -0.3690 -0.0055
 5362W        W21171  15.204   7.677   5.136 -0.0271 -0.1473  0.1417
 5363W        W21172  10.655  11.067   3.044 -0.1030  0.2638  0.3374
 5364W        W21173  17.865  17.518   2.389  0.1294 -0.2256 -0.2740
 5365W        W21174   7.708  15.951  12.518 -0.3463  0.0235  0.0260
 5366W        W21175  13.331   0.659  11.150 -0.6780 -0.2384 -0.0004
 5367W        W21176   2.099  14.619  13.227 -0.0038 -0.0811 -0.0563
 5368W        W21177   4.146   7.008  10.439 -0.2311 -0.0549  0.0798
 5369W        W21178   2.934   2.705   2.321 -0.1955  0.0735  0.2369
 5370W        W21179  19.092  15.211  14.478 -0.2871 -0.1035  0.3555
 5371W        W21180  16.193  16.581   3.815 -0.0169  0.4973  0.0024
 5372W        W21181  15.148  13.650   3.241 -0.0238  0.0255  0.3645
 5373W        W21182  12.761   4.169  13.557  0.0622 -0.0807  0.1645
 5374W        W21183   3.873  17.002   5.517  0.1425  0.1214  0.1539
 5375W        W21184   7.272  17.109   0.952  0.0863  0.0625  0.2055
 5376W        W21185   3.987  16.012   3.934 -0.0117  0.1525 -0.1715
 5377W        W21186  15.272   4.467   1.352  0.1054  0.4661  0.2193
 5378W        W21187  14.244  18.876   2.987  0.0747 -0.1535  0.0007
 5379W        W21188   4.862  13.015   0.842 -0.1705  0.0337 -0.1671
 5380W        W21189  13.912   4.847   5.736  0.1051  0.1413 -0.0238
 5381W        W21190  11.456   8.604   0.759  0.3154 -0.0266  0.3424
 5382W        W21191  14.673  13.944   0.673 -0.1332  0.4294  0.0556
 5383W        W21192  14.594   4.001  12.180  0.4367 -0.0112  0.0511
 5384W        W21193   9.889  10.643   3.592 -0.0630 -0.0300  0.0411
 5385W        W21194   7.955  15.574  12.149 -0.0322 -0.1112 -0.0455
 5386W        W21195  16.208  10.716   1.963 -0.0181  0.0704 -0.2451
 5387W        W21196  16.576   7.286   4.288 -0.1772  0.0911  0.1893
 5388W        W21197  14.650   8.111  14.113  0.1116  0.2217 -0.2970
 5389W        W21198   2.033  15.609   4.988  0.0805  0.2070 -0.1373
 5390W        W21199   9.210  18.497   2.609 -0.0191 -0.4712  0.1352
 5391W        W21200   6.581  10.205   4.253 -0.2145 -0.0300  0.1314
 5392W        W21201   3.610  13.592  12.406 -0.0255  0.1575  0.2977
 5393W        W21202  14.162  12.652   5.170  0.1800  0.0783  0.0926
 5394W        W21203   8.034  14.408   5.361  0.1821 -0.0306 -0.2617
 5395W        W21204  18.688  10.882   0.297  0.2222  0.1872  0.1352
 5396W        W21205  16.309   6.336  11.312  0.1518  0.2378  0.0595
 5397W        W21206  10.448  18.668  13.843  0.0955  0.3019  0.0248
 5398W        W21207   4.330  18.156  14.768 -0.1558 -0.1838 -0.1082
 5399W        W21208   2.367  16.986   1.497  0.1120 -0.2400 -0.2237
 5400W        W21209  11.112   1.135   2.942  0.4959  0.1617  0.3189
 5401W        W21210   4.830   9.175   3.593 -0.1027  0.2262 -0.0511
 5402W        W21211   9.065   2.892  11.630  0.2032 -0.0932  0.0360
 5403W        W21212   5.759  17.525  10.480  0.1104 -0.2803  0.1519
 5404W        W21213   1.045  12.990  10.612  0.0257 -0.3251  0.0429
 5405W        W21214   3.409  17.951  13.699 -0.1824  0.0438 -0.0293
 5406W        W21215  13.911   6.454  11.525 -0.0699 -0.1429 -0.5041
 5407W        W21216  14.058  10.082   4.175  0.1350 -0.1015 -0.1626
 5408W        W21217   6.348   3.385   4.987  0.2542 -0.1216  0.2134
 5409W        W21218   6.534   6.229  12.044 -0.0470  0.0170  0.0004
 5410W        W21219  14.904  17.061   5.337 -0.1396 -0.1014 -0.1169
 5411W        W21220   2.439   4.676  15.004  0.2789  0.1237  0.0683
 5412W        W21221  14.933   1.970  14.373  0.1730 -0.1057 -0.0055
 5413W        W21222   4.218  15.495   3.780  0.2978 -0.1144 -0.0299
 5414W        W21223   7.010  12.229   2.413  0.0050 -0.0177 -0.2041
 5415W        W21224  13.639  14.336  13.470 -0.0996  0.4562 -0.4434
 5416W        W21225  15.719   0.649  13.145 -0.3527 -0.0312 -0.2099
 5417W        W21226  14.712   9.697  11.006  0.1927  0.1598 -0.1807
 5418W        W21227   9.995  15.734   1.214  0.0234 -0.0083  0.1123
 5419W        W21228  13.390   1.812  12.621  0.0369  0.3186 -0.1903
 5420W        W21229   0.007   5.844   0.564  0.1485 -0.0185 -0.1488
 5421W        W21230   4.769   4.727  15.216 -0.0782  0.1272  0.2009
 5422W        W21231   9.375  10.721   3.348 -0.1910 -0.1508 -0.0435
 5423W        W21232   5.078  12.385   5.748 -0.1012 -0.1057 -0.0204
 5424W        W21233  12.092  11.961   2.725 -0.1148  0.0588 -0.1950
 5425W        W21234   1.150   8.283  12.425 -0.0899  0.2229  0.1363
 5426W        W21235   2.891   9.672  14.997 -0.2123  0.0036  0.0845
 5427W        W21236   0.002   1.305  14.110 -0.0956 -0.2427  0.3975
 5428W        W21237   0.545   6.424   5.466  0.0161  0.1794  0.0977
 5429W        W21238  14.802   3.042   0.613 -0.2458  0.1442  0.0742
 5430W        W21239   8.524   7.139   2.703 -0.1156  0.0002  0.1115
 5431W        W21240   7.178  17.998   0.509  0.1168  0.2721  0.1772
 5432W        W21241  15.350  17.980   3.246 -0.3479 -0.0735  0.1973
 5433W        W21242  16.550   2.894   9.938 -0.0896  0.0334 -0.2894
 5434W        W21243   7.177  17.934  11.948  0.0100 -0.1471 -0.1561
 5435W        W21244  15.389   7.102   3.492 -0.1948 -0.1096  0.4646
 5436W        W21245   7.171  13.270   4.669  0.0174 -0.0047 -0.1975
 5437W        W21246  14.380   0.287  11.581 -0.1380 -0.1153 -0.2755
 5438W        W21247  11.297  13.841   2.950 -0.2024  0.0562 -0.0811
 5439W        W21248   3.517  18.056   0.057  0.1367  0.1626 -0.0383
 5440W        W21249   9.772   6.060  13.733 -0.0768  0.1677 -0.2133
 5441W        W21250   0.015  12.073  12.036  0.0475  0.2486  0.1532
 5442W        W21251   2.274   8.007   0.249  0.0452  0.0273  0.0313
 5443W        W21252  17.539   6.631   4.462 -0.1876 -0.1873 -0.6647
 5444W        W21253   5.996   8.653   2.517  0.1610  0.0450 -0.0112
 5445W        W21254  13.786  19.134  13.565 -0.0640  0.1389  0.1382
 5446W        W21255  13.841  16.618   1.091 -0.2728  0.0365  0.2301
 5447W        W21256   5.708   2.264   9.560  0.0898  0.0878  0.3371
 5448W        W21257   0.603  18.523  15.124  0.3526  0.0108 -0.1140
 5449W        W21258  16.230   8.063  10.617  0.2134  0.0013 -0.0482
 5450W        W21259   6.328  17.455  14.237  0.0004 -0.1508  0.2799
 5451W        W21260   0.456  18.702  11.072  0.0014 -0.1439 -0.2789
 5452W        W21261  11.010   5.150   1.180 -0.0305 -0.1679 -0.2306
 5453W        W21262  16.705   1.883   2.695 -0.1585 -0.1007 -0.4671
 5454W        W21263  14.089   4.166  11.294  0.0092  0.1700 -0.0671
 5455W        W21264   8.806   5.944   2.503 -0.0428 -0.3243  0.3969
 5456W        W21265   3.045  11.235  13.443  0.1807  0.0947 -0.1870
 5457W        W21266   9.518   8.535  13.421  0.1777 -0.3226  0.0922
 5458W        W21267   8.425  18.670  12.759 -0.1493 -0.1246  0.1862
 5459W        W21268  13.613  14.256   2.298 -0.3852  0.0411  0.2191
 5460W        W21269  10.629   2.681   0.176 -0.0684 -0.0831 -0.4768
 5461W        W21270   4.672   4.278  11.330 -0.0385 -0.4099  0.0996
 5462W        W21271   8.886   8.786   1.200  0.0668 -0.0803 -0.0318
 5463W        W21272   0.141  10.458   3.140 -0.0141  0.0359  0.1189
 5464W        W21273   6.248   5.943  12.692 -0.0007  0.1098  0.2642
 5465W        W21274   9.680  18.741   2.630  0.2026  0.1670  0.3645
 5466W        W21275  13.064   1.009  11.491 -0.0249  0.1628  0.0175
 5467W        W21276   6.490   9.845  14.977  0.4078  0.4438 -0.0656
 5468W        W21277   1.651   4.017  12.507 -0.2246  0.0122  0.0895
 5469W        W21278  18.635  17.401   4.099  0.0066  0.2456 -0.1036
 5470W        W21279   6.483   6.960   0.289 -0.1034  0.2144 -0.2822
 5471W        W21280   2.495   3.811  11.201  0.0175 -0.0763 -0.0385
 5472W        W21281   9.593  17.059   3.565  0.1511  0.0264 -0.0914
 5473W        W21282  18.952   7.762   5.081 -0.4090  0.3706 -0.1015
 5474W        W21283  17.662  12.908  14.770 -0.2603  0.1148  0.0011
 5475W        W21284  12.242   0.884   2.212  0.0498 -0.0778  0.0241
 5476W        W21285  13.104   1.943  10.767 -0.2245 -0.1573  0.3402
 5477W        W21286  17.480   8.524   2.558 -0.1675 -0.1703  0.0094
 5478W        W21287   8.366  18.703   0.773 -0.1627 -0.0478  0.0218
 5479W        W21288  12.268   7.804   3.373 -0.0098  0.4930  0.0710
 5480W        W21289  18.362  11.263   1.959  0.3832 -0.0151 -0.1218
 5481W        W21290   2.289   4.289  13.754 -0.0020 -0.3084  0.1799
 5482W        W21291   4.965  12.958   5.405 -0.0484 -0.2070 -0.1110
 5483W        W21292   5.976  17.599  10.936 -0.0335  0.0172  0.4795
 5484W        W21293  17.883  12.578  10.676 -0.5740  0.0866  0.2105
 5485W        W21294   8.611  15.499  14.013  0.3607 -0.0926 -0.2460
 5486W        W21295  18.893  12.463  10.515  0.0564  0.4215 -0.0596
 5487W        W21296   3.600  11.135  13.346 -0.0997  0.1538 -0.0102
 5488W        W21297   3.670  10.310  10.811 -0.2314 -0.3017 -0.2325
 5489W        W21298  17.614  12.525  13.324 -0.0758  0.1792 -0.2350
 5490W        W21299   8.533   1.229   5.379  0.1588  0.0731 -0.2173
 5491W        W21300   6.367  12.380   3.002 -0.1136  0.2429 -0.1789
 5492W        W21301  19.002   3.726   1.229 -0.0443 -0.2948 -0.2714
 5493W        W21302   7.934  14.630  14.428 -0.0873  0.1960  0.2189
 5494W        W21303  14.930  16.158   2.136 -0.2645 -0.3253  0.3878
 5495W        W21304  15.217   3.798   4.758 -0.0946 -0.4151 -0.0701
 5496W        W21305  10.757  10.638  14.129  0.0826 -0.1550 -0.1799
 5497W        W21306   1.314   8.051  13.127 -0.0627  0.4135  0.0465
 5498W        W21307   0.334   3.183   4.456 -0.1437  0.2367  0.0996
 5499W        W21308   9.700  14.002  13.205  0.0905  0.1968 -0.1085
 5500W        W21309  16.875   3.169   0.925  0.0054  0.1342  0.0135
 5501W        W21310   6.618   3.463   2.771  0.0499  0.0105  0.1745
 5502W        W21311  17.541  11.765   4.535 -0.1979  0.1069  0.1243
 5503W        W21312  16.010  19.130   3.115  0.0304 -0.2340  0.2093
 5504W        W21313   4.382  11.872   5.059  0.0836  0.2381 -0.2590
 5505W        W21314   7.115   0.172   0.444  0.0992 -0.1735 -0.0610
 5506W        W21315   6.303  12.005   0.261  0.1065 -0.1309  0.2581
 5507W        W21316  12.175   1.591   5.128 -0.0713 -0.1776 -0.2783
 5508W        W21317   9.998  18.423  13.777 -0.1047  0.3361  0.3136
 5509W        W21318  15.352  17.680  12.225  0.0397  0.2448 -0.1477
 5510W        W21319  11.060   4.576   1.076  0.0911 -0.0996 -0.2027
 5511W        W21320   1.278  12.776   4.383 -0.0120  0.2286 -0.2005
 5512W        W21321  16.879  17.766  11.451  0.3419  0.0958  0.2201
 5513W        W21322  13.725  15.756   1.206 -0.0817  0.0534 -0.1316
 5514W        W21323   8.523   1.529  14.486 -0.0895  0.1611  0.0412
 5515W        W21324  15.659   6.537   0.584  0.1795  0.1592  0.4220
 5516W        W21325  10.848  11.539   2.316 -0.1641 -0.2724  0.2759
 5517W        W21326   6.432   1.372   5.803  0.0455 -0.2351 -0.4718
 5518W        W21327  12.373   0.597  10.958 -0.0498 -0.1019  0.1926
 5519W        W21328  15.746  17.322  14.632  0.0319 -0.0625  0.1297
 5520W        W21329   4.968  14.501  12.440  0.0033  0.3493 -0.2389
 5521W        W21330   8.312   1.590  13.514  0.1077  0.2562  0.1898
 5522W        W21331  13.936   9.005  13.946  0.2057 -0.1024 -0.4445
 5523W        W21332  11.632   1.348  14.428  0.1003  0.1609  0.2818
 5524W        W21333   2.829   5.619   0.755 -0.1267  0.2162 -0.0918
 5525W        W21334  15.585  10.465  14.757 -0.0616 -0.0425  0.0374
 5526W        W21335   8.825   7.262   4.720 -0.1042  0.1465  0.3942
 5527W        W21336  10.068   6.584  10.047 -0.0112 -0.0646  0.1404
 5528W        W21337  10.728  16.984   3.730  0.0353 -0.1140 -0.0089
 5529W        W21338   3.957   0.434  11.966 -0.2553 -0.2796 -0.3093
 5530W        W21339  15.119   8.508   4.311  0.1049 -0.0371  0.1797
 5531W        W21340   9.081  12.028   4.495 -0.1137 -0.1313  0.0558
 5532W        W21341   7.803   2.226   2.593  0.0753  0.2161 -0.1782
 5533W        W21342  11.398  10.033   1.567  0.1131 -0.3975 -0.2171
 5534W        W21343  11.339  18.342   0.975  0.1669 -0.4252 -0.1213
 5535W        W21344   9.397   7.611   5.456 -0.2355 -0.2405  0.2364
 5536W        W21345   2.310   8.296   1.689  0.2762 -0.0730  0.3534
 5537W        W21346   7.846  12.856  12.371 -0.1526 -0.0167  0.0028
 5538W        W21347  16.486  18.747  12.257 -0.2679 -0.1449  0.0571
 5539W        W21348  11.624   8.395   4.171 -0.1753  0.1343  0.1265
 5540W        W21349   8.369   1.682   4.020 -0.1799 -0.0108  0.1360
 5541W        W21350   5.747   6.395   0.165 -0.0050  0.0847 -0.1286
 5542W        W21351   1.343   7.161  11.713 -0.1640  0.1593 -0.1814
 5543W        W21352  11.996   3.134  11.444 -0.4318 -0.3047  0.1878
 5544W        W21353   8.054  13.889  12.919 -0.3828  0.1302  0.1473
 5545W        W21354  16.259  17.880  13.914 -0.0870 -0.0266  0.0723
 5546W        W21355  10.087  15.872  15.141  0.0257 -0.0802  0.5610
 5547W        W21356   3.970   0.819  10.909  0.3643  0.2229  0.3007
 5548W        W21357   2.399   6.302   1.326 -0.1878 -0.3014  0.0197
 5549W        W21358   4.078   8.932  13.397 -0.1620  0.0623  0.4873
 5550W        W21359  11.710   5.122   2.554  0.0186 -0.1930 -0.0308
 5551W        W21360   3.194   6.579  13.983  0.0730  0.3222  0.1493
 5552W        W21361   8.952  15.828   2.466 -0.3854 -0.1543  0.1184
 5553W        W21362   5.312   6.200  12.826 -0.0490  0.0725  0.3585
 5554W        W21363  16.498  16.091   2.296 -0.0829  0.2070  0.2087
 5555W        W21364   5.349  16.488  13.805 -0.1494 -0.3667  0.1854
 5556W        W21365   3.359  11.333  11.551 -0.2778 -0.2741 -0.2883
 5557W        W21366   6.183  10.755  12.119 -0.3325  0.2769 -0.2676
 5558W        W21367   5.215  11.069  11.644 -0.2659 -0.1782 -0.0772
 5559W        W21368   7.997   1.041  10.978 -0.1282  0.0031 -0.0134
 5560W        W21369  17.580  16.435   1.749 -0.1076  0.0321 -0.0383
 5561W        W21370  10.799   0.743  14.313 -0.4638  0.3105  0.1240
 5562W        W21371   5.812   9.970  11.230 -0.1525 -0.2984 -0.5817
 5563W        W21372  16.447  15.170   5.717  0.0739  0.0143 -0.1888
 5564W        W21373  10.056   0.847  14.001  0.2602  0.0474 -0.0992
 5565W        W21374   8.968  13.710  14.796 -0.0470 -0.0332  0.1878
 5566W        W21375  13.173   5.564  13.230  0.3974 -0.4830  0.3924
 5567W        W21376   9.608   5.979  10.106  0.0935 -0.0818 -0.1906
 5568W        W21377  16.554  12.394  12.547 -0.0030  0.0167  0.0322
 5569W        W21378  10.150   9.847  14.781 -0.0388 -0.2352  0.1119
 5570W        W21379   5.005   1.879  11.105 -0.0784 -0.0537  0.1204
 5571W        W21380   5.733  18.531   2.752  0.0724 -0.0699 -0.2781
 5572W        W21381   0.279   3.837  13.710  0.4596  0.2881  0.0283
 5573W        W21382   9.486   7.328   1.566  0.2540  0.2007  0.2726
 5574W        W21383   0.437   9.154  11.498  0.0821  0.1690 -0.1111
 5575W        W21384   0.585  13.198   5.037  0.0482 -0.0861 -0.3325
 5576W        W21385   3.023  12.169   0.251  0.0545  0.4164  0.3949
 5577W        W21386  11.944  15.425  12.786 -0.2132 -0.0987 -0.0832
 5578W        W21387  16.666  12.538  11.572 -0.1240  0.1056 -0.0848
 5579W        W21388   0.452   3.775   0.293  0.1737 -0.1007  0.0597
 5580W        W21389  14.217  15.353   1.691 -0.0524  0.2806 -0.0677
 5581W        W21390   9.692  12.200   1.543  0.4611 -0.2950 -0.3677
 5582W        W21391  10.226  15.939  12.674 -0.1260 -0.0398 -0.1082
 5583W        W21392   7.949   3.673  14.893 -0.4537  0.2788 -0.1427
 5584W        W21393  14.748  17.961   5.152 -0.1340  0.2120  0.3592
 5585W        W21394   5.622   0.867  12.707 -0.0138 -0.0275 -0.1749
 5586W        W21395   2.648   0.044   4.353  0.1381 -0.3650  0.0599
 5587W        W21396   0.394   8.825  13.372  0.1809 -0.0398  0.0573
 5588W        W21397  15.148   7.151   3.011  0.2022  0.2320 -0.2769
 5589W        W21398  17.041  19.014   1.741 -0.1042 -0.0377  0.1927
 5590W        W21399   0.739   1.546  11.445  0.2868  0.0458 -0.3506
 5591W        W21400   3.176   1.712   4.239  0.0763  0.0556 -0.1348
 5592W        W21401  12.340  17.167   3.948 -0.3108 -0.3429 -0.1506
 5593W        W21402  13.614   2.922   5.146  0.1047  0.0520  0.1870
 5594W        W21403  18.927  12.868   3.384  0.2124  0.0737 -0.0608
 5595W        W21404  16.152   4.080   5.382 -0.1440 -0.4106  0.5483
 5596W        W21405  13.316  15.613   1.562 -0.1823  0.0758 -0.0436
 5597W        W21406  17.744  13.410  15.178 -0.0585 -0.0779  0.1523
 5598W        W21407   5.102  10.037  13.048 -0.6325 -0.1952  0.0265
 5599W        W21408  15.341  15.415   0.622 -0.1049  0.0928 -0.1103
 5600W        W21409  14.518  16.733  14.230 -0.1910  0.1418 -0.1581
 5601W        W21410  18.058   0.558   1.955 -0.0602  0.1481  0.0446
 5602W        W21411   9.346   3.513   2.683 -0.0506 -0.2584 -0.1083
 5603W        W21412  11.588   4.966   9.990  0.1912  0.1575  0.1062
 5604W        W21413  15.599   2.988   3.489  0.0158  0.2378  0.1692
 5605W        W21414   7.339  15.894  12.047  0.2106 -0.1974  0.2942
 5606W        W21415   7.829  16.718   3.216 -0.0001 -0.3821  0.0934
 5607W        W21416  13.634   5.615  14.281 -0.1664 -0.3192  0.1769
 5608W        W21417  16.621   6.350   1.959  0.0055  0.1061 -0.1030
 5609W        W21418   5.300  13.636  14.523 -0.1486  0.0995  0.1160
 5610W        W21419  15.439  13.770   0.900  0.2157 -0.2592  0.0758
 5611W        W21420   0.081   1.372  10.713 -0.1031 -0.0831  0.2594
 5612W        W21421   3.038  17.100  13.891  0.1633  0.0021 -0.0745
 5613W        W21422   2.992  14.815  13.872 -0.2744 -0.0028  0.0704
 5614W        W21423  12.136   7.036  13.183  0.0853 -0.0586  0.2362
 5615W        W21424  13.595   7.853  13.165 -0.2785 -0.3440 -0.0521
 5616W        W21425   2.963  12.074   4.784  0.3218  0.0662 -0.2607
 5617W        W21426   3.380   2.951   2.209 -0.2427  0.1053 -0.2273
 5618W        W21427   5.354  12.789   1.495 -0.1156  0.0330 -0.0201
 5619W        W21428   3.079   9.353  13.645 -0.0860 -0.1626  0.0523
 5620W        W21429   2.669  14.740  10.408 -0.0673 -0.0970 -0.4112
 5621W        W21430   8.851   9.661  14.904 -0.3003 -0.0016 -0.0296
 5622W        W21431  17.255  17.002  12.538  0.0257  0.0550  0.1986
 5623W        W21432   3.919  12.010   4.970 -0.1124 -0.0731 -0.1032
 5624W        W21433  12.909  17.457  14.748 -0.1545  0.3592  0.1218
 5625W        W21434   6.391  16.070   3.387 -0.0805 -0.0195  0.0499
 5626W        W21435  11.343  17.130  11.353 -0.0866 -0.3006  0.0881
 5627W        W21436  18.592   8.423  11.014  0.1994 -0.2704 -0.1284
 5628W        W21437  17.847   8.161   4.411 -0.1285 -0.0442 -0.1729
 5629W        W21438   3.384   7.615   4.536 -0.2143 -0.1744 -0.2115
 5630W        W21439  15.697  15.077   0.691  0.1477 -0.2391  0.2632
 5631W        W21440   8.863  17.769  12.814 -0.2025 -0.1060 -0.3046
 5632W        W21441   3.376   0.550   9.757 -0.1301 -0.3779  0.1481
 5633W        W21442   4.325   0.987  11.282 -0.2804 -0.3022  0.2752
 5634W        W21443  11.780   5.809  10.229 -0.2528 -0.3546  0.0449
 5635W        W21444  16.785  17.865  12.070  0.0962 -0.1064 -0.2813
 5636W        W21445  18.786  16.039   3.860  0.0091  0.0033 -0.0755
 5637W        W21446   8.415   4.415  11.709  0.3453  0.2116  0.1719
 5638W        W21447   7.771   7.925   4.043 -0.2631 -0.0966  0.0862
 5639W        W21448   7.992  12.748  14.067 -0.0324 -0.0287 -0.0114
 5640W        W21449  15.641  18.186   1.477  0.1894  0.1870  0.1018
 5641W        W21450  16.787   6.557  11.359  0.0554 -0.0574  0.1024
 5642W        W21451  11.755  12.006   2.296  0.0637  0.1358  0.1438
 5643W        W21452   1.145  16.314  10.362 -0.1742 -0.0972 -0.2341
 5644W        W21453   7.155   1.577  10.956  0.0557 -0.1423  0.1292
 5645W        W21454   5.376   4.450  10.018 -0.2257  0.0680 -0.3778
 5646W        W21455   7.300   2.921  13.494  0.0738  0.1433 -0.1596
 5647W        W21456   8.338   9.576   0.153 -0.0437 -0.2097 -0.0175
 5648W        W21457   7.145  15.472  12.983  0.1382  0.0501  0.2507
 5649W        W21458  11.039  13.459  13.655  0.3804  0.0593 -0.0865
 5650W        W21459  14.043  10.635   0.559 -0.0035  0.0672 -0.2755
 5651W        W21460  11.568  14.873   3.276 -0.4633  0.2112  0.0044
 5652W        W21461  12.163  18.301  11.070  0.0374  0.0241 -0.0693
 5653W        W21462   1.949  15.860  11.237 -0.1016  0.0039 -0.2677
 5654W        W21463   0.513  13.465   4.590  0.1344  0.1842  0.1652
 5655W        W21464  14.584  16.822   5.753 -0.0610 -0.1864 -0.0107
 5656W        W21465   8.646   9.001  14.212 -0.0826 -0.2078 -0.1593
 5657W        W21466   4.869   9.220  14.314 -0.0851 -0.1574 -0.3238
 5658W        W21467   9.573   1.449   2.158  0.0801  0.3739 -0.1590
 5659W        W21468  10.905   9.129  14.843 -0.1569  0.0246  0.1532
 5660W        W21469  18.218   4.399   0.946 -0.2263  0.0918 -0.1248
 5661W        W21470   1.960   8.483  13.712  0.0747  0.2773 -0.1424
 5662W        W21471   7.775  13.262   3.923 -0.5262 -0.0296  0.1876
 5663W        W21472   4.835   7.649   0.465 -0.0887  0.3278 -0.0554
 5664W        W21473   1.977   9.914  10.485 -0.2683  0.0485  0.1623
 5665W        W21474  13.514   5.981  11.090 -0.0001 -0.1525  0.2062
 5666W        W21475  16.424  17.589   3.921  0.2478  0.2029  0.1165
 5667W        W21476  15.349   4.233  11.298  0.0068  0.0028  0.0151
 5668W        W21477  11.807   3.134   0.892  0.1630  0.0136  0.2701
 5669W        W21478  12.534   9.123  14.379 -0.0953 -0.1398  0.0972
 5670W        W21479  13.675  16.110   3.009 -0.2432 -0.0017 -0.3233
 5671W        W21480   8.940  12.405   1.980 -0.1848 -0.2816  0.1540
 5672W        W21481  18.163   8.688  11.331  0.2028  0.0109 -0.2262
 5673W        W21482   9.090   0.785  14.372 -0.0372 -0.0825 -0.2476
 5674W        W21483  11.479  14.068   2.015  0.3043  0.1214  0.3041
 5675W        W21484  10.051  18.789   1.946 -0.2289 -0.0130  0.1680
 5676W        W21485   3.962   5.849   4.705  0.2034  0.1741 -0.0252
 5677W        W21486   7.901  18.402   2.479  0.3026  0.2559  0.2054
 5678W        W21487  15.821  14.475  14.348 -0.1142  0.0003  0.0307
 5679W        W21488   8.286   0.300  13.400 -0.3339  0.1319 -0.1336
 5680W        W21489   9.778  10.712   1.018 -0.0753 -0.1005 -0.3450
 5681W        W21490   8.028  16.766  13.462 -0.1189  0.2304 -0.0743
 5682W        W21491  11.863  13.089   1.392  0.1990 -0.0444  0.2454
 5683W        W21492  16.658  18.296  14.940 -0.0201  0.2001  0.2564
 5684W        W21493   7.888  13.706   2.770  0.2461  0.1235 -0.0227
 5685W        W21494  14.678  11.114   2.054  0.2924  0.1012 -0.0233
 5686W        W21495  19.064   1.331  10.233  0.2117  0.0078  0.0382
 5687W        W21496  14.609   7.123   2.006 -0.0730  0.2012  0.0649
 5688W        W21497  18.339   6.529  13.324  0.1981 -0.4045 -0.1177
 5689W        W21498  11.522  11.066   5.509  0.2024 -0.0638 -0.0200
 5690W        W21499   8.004   6.127  14.200 -0.1130 -0.0945 -0.1529
 5691W        W21500   9.590   2.601  13.267 -0.0674 -0.2111 -0.0767
 5692W        W21501   4.896  13.662  14.735 -0.1423 -0.0647 -0.0359
 5693W        W21502  14.296   4.561   2.397 -0.3159  0.1104  0.0421
 5694W        W21503   8.032   9.923  13.242 -0.2935  0.0749 -0.2613
 5695W        W21504   5.508  16.836   3.188  0.0959  0.2972  0.0215
 5696W        W21505   7.580  16.563   4.311 -0.1346 -0.0311 -0.1424
 5697W        W21506  16.683   3.660   1.900  0.0915  0.1980  0.3619
 5698W        W21507   3.496   9.670  13.578 -0.3328  0.2798 -0.0947
 5699W        W21508  11.415   0.357   3.094  0.1004  0.2797 -0.0883
 5700W        W21509   2.978   2.092  11.058  0.1274  0.0141 -0.0427
 5701W        W21510   4.459   8.545  13.028  0.1746  0.1282  0.2505
 5702W        W21511   8.591  10.078  14.236  0.1951 -0.0507 -0.1041
 5703W        W21512  12.904   4.663  12.075  0.1003  0.3206 -0.1815
 5704W        W21513   7.491   2.146   4.937 -0.1350  0.0610  0.1309
 5705W        W21514  16.542   0.793   2.077  0.2568 -0.0397  0.0155
 5706W        W21515   8.036   2.182  11.058 -0.4439 -0.4963 -0.1004
 5707W        W21516   2.923   1.501   2.164  0.0375 -0.0517  0.2697
 5708W        W21517  17.375  17.813  15.053  0.0777 -0.0068 -0.1563
 5709W        W21518   0.107   7.916   1.116 -0.3619 -0.1738  0.3259
 5710W        W21519   9.640  11.309  12.093  0.1924  0.1716 -0.1850
 5711W        W21520  15.270  15.793   1.384 -0.0046  0.0884 -0.1957
 5712W        W21521   4.196   6.110   3.366  0.1227  0.0454 -0.2205
 5713W        W21522   9.264  13.374   3.975  0.2720 -0.1554  0.1131
 5714W        W21523   2.937  12.661  13.984 -0.1918  0.0295  0.0123
 5715W        W21524  10.646  11.965   5.873  0.1254 -0.1266  0.0238
 5716W        W21525   3.622   1.807  12.536  0.1956 -0.0484 -0.2209
 5717W        W21526  14.931  11.070   3.445 -0.3764 -0.1138 -0.0843
 5718W        W21527  13.633   4.063   5.032  0.2020  0.2487  0.0226
 5719W        W21528  10.262  15.012   0.037  0.0945 -0.0121 -0.1641
 5720W        W21529  15.579   6.634   3.498 -0.1822  0.2805 -0.0966
 5721W        W21530   2.276   9.120  12.676  0.0966 -0.2503  0.0747
 5722W        W21531  10.561   9.020   4.386 -0.0543 -0.0831 -0.0717
 5723W        W21532   6.580   2.982   2.297 -0.3489 -0.0939 -0.0666
 5724W        W21533   9.598   9.122   4.394 -0.0561  0.0482 -0.1356
 5725W        W21534  17.600   6.368   3.237  0.2323 -0.0290  0.0167
 5726W        W21535  18.916   4.988   3.646  0.0488  0.1478 -0.3104
 5727W        W21536   0.860  14.722   0.110  0.2195 -0.1213 -0.0710
 5728W        W21537  19.149  17.597   1.995  0.1855 -0.0462  0.0036
 5729W        W21538   3.764   7.880   0.263 -0.0638 -0.0054 -0.1301
 5730W        W21539   2.200   9.698  13.385  0.0297 -0.2745 -0.0990
 5731W        W21540   6.163   1.672  12.361  0.1117 -0.2609 -0.0492
 5732W        W21541   2.223   8.739  14.626 -0.3864  0.2114 -0.3077
 5733W        W21542   8.028  13.995   4.348 -0.2587  0.0887  0.1547
 5734W        W21543   1.406  15.652  11.901 -0.2476  0.0970 -0.2044
 5735W        W21544   3.298   9.784  11.275  0.0358 -0.0106  0.1849
 5736W        W21545   7.089  14.899   2.011  0.6332  0.2622  0.0312
 5737W        W21546   3.798   8.957   1.941 -0.4200 -0.1898 -0.1256
 5738W        W21547   7.817   7.946   2.197 -0.0663  0.0939 -0.1962
 5739W        W21548  12.744   0.891   5.547  0.0741 -0.1735 -0.0781
 5740W        W21549  13.659  13.965   4.004 -0.3134  0.5044  0.0229
 5741W        W21550   5.205  15.561  12.659  0.3816  0.1301 -0.2699
 5742W        W21551  14.661   8.751   4.114  0.3910  0.1321 -0.3013
 5743W        W21552   7.579  12.201   1.206 -0.1292 -0.0386  0.0793
 5744W        W21553  15.089  18.942   3.926  0.1556 -0.1153  0.0129
 5745W        W21554  13.262  18.808  12.250 -0.0422  0.0839 -0.4967
 5746W        W21555  16.301   6.450  12.111 -0.0194 -0.1398 -0.0831
 5747W        W21556  13.681   1.628   1.089 -0.0410 -0.1047 -0.0304
 5748W        W21557  16.980   2.675   5.428 -0.4142 -0.0080 -0.2279
 5749W        W21558   9.454  16.665  14.916  0.2076  0.2414  0.0057
 5750W        W21559  10.595   8.730   1.101  0.1241  0.0148  0.1411
 5751W        W21560  18.658   2.839   3.382  0.0612 -0.1811 -0.2534
 5752W        W21561  17.884   9.613   3.253  0.0388  0.0627  0.0147
 5753W        W21562   9.055  16.513   2.644  0.2617 -0.3447  0.1616
 5754W        W21563  13.929   9.732  13.346  0.2448  0.5313 -0.1475
 5755W        W21564   8.712   4.207   1.751  0.1972 -0.1839 -0.0421
 5756W        W21565   4.642   0.533  11.503  0.0386 -0.2524 -0.2953
 5757W        W21566   5.556   5.136  13.697 -0.1514 -0.1488  0.0868
 5758W        W21567  11.657  17.820   2.890  0.0122 -0.0794  0.3923
 5759W        W21568   6.726   4.282  10.777  0.1204 -0.1396  0.0511
 5760W        W21569   4.647  16.686   9.598 -0.1476 -0.3357 -0.1515
 5761W        W21570  12.695   3.837  14.436  0.1749  0.1077  0.0694
 5762W        W21571  14.017   9.826  12.183 -0.0029  0.0212  0.0059
 5763W        W21572  16.870   3.476  11.648 -0.1404  0.0506 -0.0561
 5764W        W21573   4.154   7.419  13.779 -0.0795 -0.3192 -0.0153
 5765W        W21574   2.165  18.100   0.646 -0.1777  0.1397 -0.1949
 5766W        W21575   6.817  12.055  10.668 -0.0922  0.1018  0.0849
 5767W        W21576   7.750  16.003   0.784 -0.1637  0.1877  0.3517
 5768W        W21577   8.654  15.151  13.656  0.0250 -0.1953  0.1531
 5769W        W21578  15.958   5.565  13.814  0.0604  0.0814 -0.0562
 5770W        W21579   3.244   8.853   5.581  0.0658 -0.1606 -0.1494
 5771W        W21580  11.863   3.904  14.718 -0.0397  0.0433 -0.1475
 5772W        W21581   8.901   0.280   0.751  0.0306 -0.0357  0.0494
 5773W        W21582  15.514   4.486   2.056 -0.2682  0.0480 -0.0328
 5774W        W21583   3.660  10.903   0.787  0.2148  0.2620  0.1146
 5775W        W21584   3.092  18.325  15.141  0.4930  0.1987 -0.0545
 5776W        W21585  10.811   3.792   1.856  0.1267  0.0732  0.3188
 5777W        W21586  17.646   1.922  13.222 -0.1857  0.0181  0.0075
 5778W        W21587   9.481  11.729   2.266 -0.2846  0.1375 -0.2080
 5779W        W21588  12.229  10.293  11.968  0.2671 -0.1581 -0.0785
 5780W        W21589   3.010   5.675   1.623  0.2882 -0.1523 -0.2137
 5781W        W21590  14.178   5.260  10.386  0.0713 -0.0813  0.3169
 5782W        W21591  11.502  17.729   5.213  0.1489 -0.0357  0.4217
 5783W        W21592   0.771   2.533  14.425  0.2958  0.0610  0.1556
 5784W        W21593   9.949  12.208   5.018  0.1086  0.1087 -0.2268
 5785W        W21594  16.626  14.530  14.808  0.0952 -0.0963  0.0393
 5786W        W21595  16.726  15.142   1.856 -0.0058  0.4812  0.1848
 5787W        W21596  11.564   3.141  14.307  0.0569  0.1706  0.1697
 5788W        W21597   1.767  14.298   1.095  0.2083 -0.0686  0.1748
 5789W        W21598  14.490  13.660   4.358  0.0179  0.1991 -0.1435
 5790W        W21599   5.083   9.271   5.232  0.3250  0.0720 -0.2298
 5791W        W21600   0.853  17.039   3.872  0.0204 -0.2342  0.0457
 5792W        W21601   5.957   4.837   1.835 -0.1464 -0.0871 -0.3028
 5793W        W21602   2.997  12.797   5.466 -0.0565 -0.0771 -0.1100
 5794W        W21603   4.061  16.532   3.984 -0.2609  0.2122  0.1878
 5795W        W21604   9.017  15.426  14.394 -0.0172 -0.1296 -0.0741
 5796W        W21605  10.704  16.554   3.520 -0.1082  0.0546 -0.1006
 5797W        W21606  13.247  15.341  12.224  0.2423  0.2379 -0.0630
 5798W        W21607  18.595   0.477  11.912  0.3462  0.3563 -0.1130
 5799W        W21608  14.198   0.567   1.862  0.2109  0.1731  0.0854
 5800W        W21609   6.942  18.875   0.083  0.1994 -0.1272 -0.2130
 5801W        W21610   0.050  12.390  14.176  0.0253 -0.2031 -0.1753
 5802W        W21611   4.032  16.023  14.654  0.1108 -0.1949  0.3406
 5803W        W21612   5.901   3.227   3.478 -0.0703  0.2115 -0.0202
 5804W        W21613  11.130   1.870  14.429  0.0610 -0.0566  0.2346
 5805W        W21614   4.141   2.339   2.094  0.0594 -0.0508 -0.1710
 5806W        W21615  12.323  10.026  14.986  0.1585 -0.1447 -0.2818
 5807W        W21616   9.100   7.301  13.740  0.0353 -0.3227 -0.0436
 5808W        W21617  18.883   1.105   3.143 -0.1372 -0.0189 -0.1009
 5809W        W21618  13.989   1.081  12.931 -0.1581  0.3177  0.2087
 5810W        W21619   9.906  16.537  12.020 -0.3023  0.1376 -0.2135
 5811W        W21620  14.562   7.179  10.406 -0.0750 -0.1569 -0.3198
 5812W        W21621   8.760   4.787  11.596 -0.1435 -0.1712  0.0679
 5813W        W21622   4.188  11.882   0.057  0.4108  0.0946  0.0289
 5814W        W21623  16.339   0.470  14.955  0.0714 -0.3254 -0.0641
 5815W        W21624  16.281   3.730   3.958 -0.0343 -0.2454 -0.1402
 5816W        W21625  14.306  11.495   3.930  0.2080  0.0591 -0.3798
 5817W        W21626   1.368   3.601   0.046 -0.0545 -0.0799  0.2332
 5818W        W21627  11.231  18.708   5.183 -0.0945  0.1014 -0.2174
 5819W        W21628   9.226   5.212  11.910 -0.0715 -0.2129 -0.0516
 5820W        W21629  13.883   9.766   3.136 -0.1217 -0.0635 -0.0667
 5821W        W21630  11.672  13.519  11.818  0.1909  0.2048 -0.2878
 5822W        W21631   5.938   3.449   5.681  0.3458  0.2226 -0.3887
 5823W        W21632  10.535  15.642   5.606  0.1221  0.0261  0.0123
 5824W        W21633   9.333  17.463  11.334 -0.1280  0.1353  0.2149
 5825W        W21634   2.224   4.878   3.676 -0.2245 -0.1767 -0.4061
 5826W        W21635   9.770  17.378   3.116 -0.1826 -0.2093 -0.3671
 5827W        W21636  18.506  14.575   3.808  0.1930 -0.0545 -0.2260
 5828W        W21637  16.925   4.799   5.504  0.0933  0.4400  0.1397
 5829W        W21638  10.430   4.040   3.845  0.3634 -0.0012 -0.1520
 5830W        W21639  11.357   0.391   0.964  0.0903  0.1944 -0.3122
 5831W        W21640   3.278   1.165   1.816 -0.2795  0.0010  0.0767
 5832W        W21641  12.006   2.528   4.301 -0.0271 -0.0313  0.2292
 5833W        W21642  10.176  17.847   4.456  0.2416  0.2992  0.2789
 5834W        W21643   5.936  10.057  14.092 -0.0395 -0.0563 -0.2422
 5835W        W21644   0.972   9.650   4.407  0.3136  0.0258  0.1564
 5836W        W21645   3.702  18.796   2.927 -0.3159  0.0267 -0.0018
 5837W        W21646  16.887  15.812   4.701  0.2714 -0.2441  0.1494
 5838W        W21647  14.388  17.329   5.027 -0.2891 -0.1103  0.1816
 5839W        W21648   8.577  17.969   2.916  0.1699  0.4430 -0.0868
 5840W        W21649  15.765  17.701  11.911 -0.2038  0.3099 -0.2555
 5841W        W21650   7.070   7.764  13.704  0.1981 -0.2674 -0.0388
 5842W        W21651  18.861  10.259  10.177  0.2032  0.0893  0.2286
 5843W        W21652   8.484  18.389  11.918 -0.0363 -0.4081  0.1353
 5844W        W21653  12.357   7.090  13.672  0.0990  0.2693 -0.1476
 5845W        W21654   6.545  11.933   1.782 -0.1710 -0.4047 -0.0858
 5846W        W21655   8.596   4.258   1.095 -0.0925  0.0320 -0.0288
 5847W        W21656   2.283  14.356   3.268 -0.2802 -0.1762 -0.1566
 5848W        W21657   4.493  16.129  10.875 -0.0043  0.2800  0.1625
 5849W        W21658   0.514  11.588   4.228 -0.0223  0.0983  0.3284
 5850W        W21659   5.438  10.308  13.293 -0.1811  0.1788 -0.0246
 5851W        W21660   2.594   5.496  12.363 -0.2327 -0.1566  0.1120
 5852W        W21661   8.207  13.646   4.717 -0.1681 -0.1405  0.2142
 5853W        W21662  11.524   3.099  12.829 -0.0697 -0.1153 -0.0330
 5854W        W21663   8.833   0.916   4.011  0.3334  0.0361  0.1035
 5855W        W21664  15.945   4.965   1.267  0.0925  0.2560  0.0261
 5856W        W21665   5.256   8.231   1.553  0.0453 -0.2636  0.3331
 5857W        W21666   1.621  15.534  12.493  0.0722 -0.1186 -0.1521
 5858W        W21667   0.557  16.817   1.383 -0.1170 -0.0922 -0.2234
 5859W        W21668   8.268   9.185  12.311 -0.2471  0.0915  0.2035
 5860W        W21669   1.053   6.634  11.456  0.5208  0.0219 -0.1486
 5861W        W21670  14.914   0.914  12.441  0.2644 -0.1226  0.1161
 5862W        W21671  15.391  13.740  12.510 -0.0354 -0.0251  0.1301
 5863W        W21672  10.135   9.364  15.090 -0.2489  0.3488  0.1690
 5864W        W21673  13.308  10.425   4.367  0.1116  0.1322  0.2247
 5865W        W21674   2.586  16.683   0.705  0.1700  0.2234  0.0877
 5866W        W21675   7.626  18.079  10.793 -0.1805 -0.1135 -0.0429
 5867W        W21676  15.605  11.871   4.684 -0.0736  0.0481 -0.0125
 5868W        W21677   7.305  14.525   1.267 -0.1055  0.1394  0.0432
 5869W        W21678   3.953   7.165   3.392 -0.3113 -0.1694 -0.2699
 5870W        W21679  10.490  18.241   0.549 -0.0235  0.3447  0.1306
 5871W        W21680  13.923  16.755   0.164  0.1271  0.0089  0.2849
 5872W        W21681  18.751  14.214  14.474  0.3223  0.2163 -0.3948
 5873W        W21682   6.496  11.099   2.407 -0.2468  0.0611  0.0537
 5874W        W21683   4.138  16.257  11.188 -0.0532 -0.0173 -0.3148
 5875W        W21684  10.866  11.716  13.298 -0.0142  0.0568  0.2327
 5876W        W21685  16.111   6.925  15.027  0.2046  0.2169 -0.0796
 5877W        W21686  12.151  10.716  13.048  0.1059 -0.1355  0.1495
 5878W        W21687  10.962  14.328  13.251  0.0395  0.0075 -0.1460
 5879W        W21688  15.276   9.696  11.325  0.0805 -0.1121 -0.1404
 5880W        W21689   7.902  16.244   1.785  0.0037  0.2962 -0.0044
 5881W        W21690   0.144  11.077  11.805  0.0329  0.1850  0.2800
 5882W        W21691  18.164   4.086  13.170 -0.3651 -0.0175  0.1935
 5883W        W21692   2.395   0.834  13.107 -0.1712  0.1504  0.0385
 5884W        W21693   3.445   0.955   4.728 -0.0373 -0.5135  0.1842
 5885W        W21694   0.849  17.051  10.170 -0.0004  0.4335 -0.1438
 5886W        W21695   8.796   6.461   0.792  0.0114  0.1699  0.2061
 5887W        W21696  15.863   9.758  12.241  0.0707 -0.0707  0.1173
 5888W        W21697  11.404  12.759   1.098 -0.2308 -0.0066 -0.1248
 5889W        W21698   3.533  10.329  12.949  0.0302  0.1607 -0.0825
 5890W        W21699   5.123  17.564  14.425 -0.3288 -0.0187 -0.0389
 5891W        W21700   6.885   6.188  14.438 -0.2687 -0.1253  0.0869
 5892W        W21701  14.689   2.372  14.055 -0.2948  0.2475  0.2593
 5893W        W21702   2.268   9.226  14.725 -0.1161  0.2647  0.0079
 5894W        W21703   8.562  18.394   4.145 -0.0168  0.2019 -0.0890
 5895W        W21704  16.058  13.221  11.831  0.0740 -0.1358  0.0007
 5896W        W21705  15.590   9.887   2.586 -0.0184  0.0041  0.3438
 5897W        W21706  11.846  14.675  14.426 -0.1370  0.2094  0.1155
 5898W        W21707   2.288  13.930  10.482 -0.4030  0.1620  0.1065
 5899W        W21708   8.422  18.855  14.951 -0.2057  0.1874 -0.0414
 5900W        W21709  12.470  12.427  13.207  0.1482  0.0039  0.1474
 5901W        W21710   7.171   7.671   3.781  0.1224 -0.1222  0.1212
 5902W        W21711  13.610   0.506  14.261  0.1958 -0.2271 -0.0457
 5903W        W21712  16.815  11.740   3.907 -0.1185 -0.0166  0.1071
 5904W        W21713  17.173  18.201   3.038  0.2296  0.2902  0.0691
 5905W        W21714   8.537  10.568  14.456 -0.1569 -0.0863  0.2683
 5906W        W21715   1.523   3.083   9.400  0.1029 -0.1166 -0.4406
 5907W        W21716   4.779   1.451   1.868 -0.2293  0.1823  0.0753
 5908W        W21717   0.102   2.509   0.359 -0.2458  0.2191  0.2089
 5909W        W21718  15.007  15.142   1.333 -0.2772 -0.2974  0.4282
 5910W        W21719  15.694   6.624   2.643  0.5501 -0.2920  0.2448
 5911W        W21720   5.134   0.530  11.518 -0.2615  0.0159  0.3475
 5912W        W21721   1.010   0.923   2.868 -0.0505 -0.1088 -0.1403
 5913W        W21722   5.761   4.409  12.111 -0.2181  0.3714  0.2085
 5914W        W21723   6.372  12.244  14.121 -0.0662  0.0254  0.0650
 5915W        W21724   1.815  13.643  11.183 -0.2124  0.2465  0.0758
 5916W        W21725   8.574  11.290  14.918 -0.3089  0.3374 -0.5593
 5917W        W21726  15.072  13.948   1.716 -0.3270 -0.3018 -0.3080
 5918W        W21727  10.873   6.745  13.948 -0.0427 -0.0204 -0.0223
 5919W        W21728  17.190  11.453  15.190  0.0297  0.2424 -0.0225
 5920W        W21729   2.495   0.588   4.584 -0.2182 -0.0104 -0.3495
 5921W        W21730  19.025  15.486   1.979 -0.2226 -0.1233  0.0796
 5922W        W21731   0.697   5.654   0.014 -0.2279 -0.3246 -0.3006
 5923W        W21732   1.012  10.900  11.830 -0.3188  0.2214  0.1065
 5924W        W21733   3.642  14.107  13.939 -0.0055  0.2862  0.2395
 5925W        W21734  16.505  18.882   1.382  0.1307 -0.1458 -0.3113
 5926W        W21735  18.379   8.949  11.919  0.0975 -0.0771 -0.1969
 5927W        W21736   5.462   8.721   3.636 -0.1205  0.3388 -0.0051
 5928W        W21737   4.461   0.527   1.561 -0.0229  0.0342  0.0315
 5929W        W21738   7.917  14.957   5.451 -0.3261  0.0094  0.1069
 5930W        W21739  14.120  14.510   4.760  0.1027 -0.2974 -0.0205
 5931W        W21740  10.425  18.544  13.351 -0.2141  0.1646 -0.1722
 5932W        W21741  14.200  13.972  15.091  0.0899  0.3690 -0.0946
 5933W        W21742  18.337  15.025   3.059  0.1974 -0.0300  0.1251
 5934W        W21743   6.081  15.630   0.426  0.1859  0.1448 -0.0397
 5935W        W21744  15.316  18.246  10.610 -0.1310  0.3695 -0.0527
 5936W        W21745  13.648   3.418   5.132 -0.2635  0.2321  0.1600
 5937W        W21746   8.121   4.048  13.812  0.0605  0.0715 -0.2239
 5938W        W21747  14.870   1.703  12.401 -0.1072 -0.1690  0.1936
 5939W        W21748  16.400  11.665   0.618  0.0300 -0.0038 -0.5272
 5940W        W21749   0.214   6.684  10.426 -0.4902  0.2077 -0.3693
 5941W        W21750   8.712   7.200  13.460  0.1173  0.0877  0.3465
 5942W        W21751  11.506   3.142   5.633 -0.1631 -0.1276  0.0278
 5943W        W21752  10.906   5.765   1.755  0.2901 -0.3264  0.6385
 5944W        W21753   8.122   9.523  11.985 -0.0948  0.0587  0.0228
 5945W        W21754   4.021  11.857   4.157 -0.1031 -0.1979 -0.1416
 5946W        W21755   9.047  11.069   3.118  0.0240 -0.1150  0.1032
 5947W        W21756   0.367  11.536   4.720  0.1188  0.3132 -0.1011
 5948W        W21757   5.473  13.772  12.970 -0.0763  0.1936  0.0476
 5949W        W21758   0.351   1.053   1.119 -0.1502 -0.2209  0.3616
 5950W        W21759  13.526  18.318   5.034 -0.1068 -0.1447  0.0534
 5951W        W21760   2.281  10.691   1.970  0.0686  0.2917  0.1439
 5952W        W21761   0.897   5.972  10.016  0.2359  0.1124  0.2397
 5953W        W21762   3.562   9.006   2.721 -0.0207 -0.0075  0.2469
 5954W        W21763  17.856  17.042  13.699 -0.2042  0.1268 -0.3156
 5955W        W21764  17.082  16.700  13.421  0.3022 -0.3079  0.0819
 5956W        W21765   9.785   1.617  14.812 -0.0627  0.0261 -0.1129
 5957W        W21766  19.027  11.796   0.087 -0.0252 -0.0395  0.1598
 5958W        W21767  12.675   5.606  12.762 -0.2620 -0.0069 -0.1577
 5959W        W21768  14.645   4.724  10.821 -0.2341  0.0735  0.1781
 5960W        W21769  16.260   3.783   2.548 -0.2881 -0.2134 -0.3592
 5961W        W21770  18.814   0.350   1.700  0.3162  0.1710  0.1364
 5962W        W21771   0.344   1.177  15.184  0.0579 -0.1062 -0.1887
 5963W        W21772   2.788   8.673   4.499 -0.0471 -0.0762 -0.1289
 5964W        W21773  15.837  12.621   3.699  0.0175  0.1284 -0.3084
 5965W        W21774  18.272  10.581   5.866  0.1014  0.0293  0.1078
 5966W        W21775   1.405   8.041  12.076  0.1347  0.0539  0.1344
 5967W        W21776  16.845   8.991  13.514 -0.0106 -0.0874  0.1683
 5968W        W21777  11.908   7.017  11.900 -0.1529 -0.0685  0.1109
 5969W        W21778  16.693  12.163   5.161  0.0131 -0.3523  0.1006
 5970W        W21779   8.687  15.861  14.518 -0.0453  0.0394  0.4523
 5971W        W21780   9.887  17.834   0.456 -0.3557 -0.1151  0.0871
 5972W        W21781  11.421   3.056   3.971  0.1894  0.0949  0.1729
 5973W        W21782   7.804  14.148  13.292  0.0475 -0.0243 -0.0829
 5974W        W21783  11.494   4.385   9.870  0.0330 -0.0555  0.2367
 5975W        W21784   1.012   6.981  14.380  0.2926  0.0945 -0.0432
 5976W        W21785   6.913   7.983   1.670 -0.0572 -0.0341 -0.4131
 5977W        W21786   6.173  13.985   3.467 -0.4455  0.1265  0.3650
 5978W        W21787  13.073  13.063  13.656  0.1436  0.4831  0.0078
 5979W        W21788  17.087  12.141  11.267  0.1781  0.0822 -0.2581
 5980W        W21789  16.626   0.186   5.245 -0.1479 -0.1108  0.1537
 5981W        W21790  10.640  15.111  11.655  0.1923  0.1423  0.2694
 5982W        W21791   9.623   6.192   1.898 -0.0411  0.2233  0.1518
 5983W        W21792  14.778   6.037  11.220 -0.0906 -0.0699 -0.0535
 5984W        W21793  12.682   9.128  10.169  0.0613 -0.2120  0.0389
 5985W        W21794  11.397  15.125  14.451 -0.0344  0.0087 -0.0066
 5986W        W21795  10.548   4.661  12.607 -0.0721 -0.1183  0.0463
 5987W        W21796  11.606  15.657   3.022  0.1749  0.0140  0.0133
 5988W        W21797   9.437   1.320  11.755  0.0976 -0.0899  0.2338
 5989W        W21798   0.700  12.157   0.736 -0.0490  0.0957 -0.0852
 5990W        W21799  17.885  13.502  12.211  0.0936 -0.0589  0.3630
 5991W        W21800   3.360   1.733  13.946 -0.0747 -0.0888 -0.2166
 5992W        W21801  18.834  13.229   0.170  0.5708  0.1994 -0.1049
 5993W        W21802  17.735   3.149  15.169 -0.0170  0.2409 -0.2027
 5994W        W21803   3.186  13.499   5.492 -0.1647 -0.2758  0.2690
 5995W        W21804   3.338  12.289   1.885  0.0506 -0.1638  0.0097
 5996W        W21805  10.939   0.805  13.653  0.0497  0.0722  0.2093
 5997W        W21806  10.785  11.145   4.206  0.1270  0.2282 -0.0634
 5998W        W21807   4.491   6.139  12.657 -0.0067 -0.0656 -0.1379
 5999W        W21808  14.159   2.537  14.037  0.1708  0.1632  0.1643
 6000W        W21809  11.220   7.745  12.196 -0.1410  0.3543  0.0611
 6001W        W21810   6.693   7.232  12.139 -0.0630 -0.0876 -0.0596
 6002W        W21811  15.055  11.738  12.243 -0.2115  0.1397 -0.3157
 6003W        W21812  10.358   8.939  10.577  0.3658 -0.2402  0.0069
 6004W        W21813   5.089  15.458  14.540 -0.1672 -0.2048  0.1654
 6005W        W21814   6.291   8.499   4.941  0.3091 -0.1453 -0.3923
 6006W        W21815  15.127  12.385   0.962  0.3082  0.0091  0.2117
 6007W        W21816   5.691  17.567   0.894  0.1513  0.0126 -0.0112
 6008W        W21817  14.306  10.272   3.131 -0.3470  0.1368  0.2256
 6009W        W21818   1.864   8.205  14.560 -0.0156 -0.1095 -0.2095
 6010W        W21819   3.154   5.241   0.593 -0.1224  0.0845 -0.1716
 6011W        W21820  17.319  16.122  10.984 -0.0453 -0.0855  0.1916
 6012W        W21821   9.267   5.978  13.359 -0.1032 -0.1687 -0.0723
 6013W        W21822   4.936  18.063   1.743  0.1836 -0.2332 -0.1082
 6014W        W21823   3.110   7.841   3.926 -0.1333 -0.2311  0.0958
 6015W        W21824   2.222   7.031  13.566 -0.2288 -0.1111  0.0805
 6016W        W21825   6.596  15.544   1.257 -0.0376 -0.1428  0.2709
 6017W        W21826   7.266  10.674   1.423  0.0250 -0.5681  0.3929
 6018W        W21827  17.703   3.212  11.435 -0.0289  0.3094  0.1129
 6019W        W21828   7.887  13.233   2.997 -0.0687 -0.0469 -0.1237
 6020W        W21829   5.161  12.982  11.733 -0.1072 -0.0634  0.0701
 6021W        W21830  16.810   8.074   4.913 -0.1142 -0.2131 -0.3430
 6022W        W21831  17.224   1.360   3.325  0.2162 -0.4364 -0.3920
 6023W        W21832   5.332   7.190  15.175 -0.2666 -0.1371  0.2270
 6024W        W21833  18.885  15.611   2.504  0.0790 -0.1477 -0.1951
 6025W        W21834   2.066   5.498  13.917 -0.1622  0.0610 -0.2792
 6026W        W21835   2.196  18.240  10.023 -0.4162  0.0078  0.0153
 6027W        W21836  16.367  13.150   0.148  0.0174 -0.2461  0.1442
 6028W        W21837   5.385  15.078  11.067 -0.0307 -0.0126  0.0613
 6029W        W21838  18.921  15.339   1.351  0.0719  0.0454  0.0248
 6030W        W21839   1.456   6.190  10.596 -0.2112 -0.0273 -0.3352
 6031W        W21840   6.352  14.082  10.840 -0.0516  0.2024  0.0715
 6032W        W21841   1.456   4.716   4.936 -0.1867  0.2034 -0.2523
 6033W        W21842  11.306  14.385   0.619 -0.0354  0.2675  0.0868
 6034W        W21843  18.126   1.294   4.506  0.2544 -0.5341  0.1896
 6035W        W21844  16.425   2.297   2.965 -0.0196  0.1538 -0.0465
 6036W        W21845   6.253   0.930   4.945  0.2594  0.1825 -0.2338
 6037W        W21846   8.798  14.512  11.248 -0.2265  0.1524  0.1114
 6038W        W21847  16.003   9.100  12.017  0.0900 -0.1184 -0.1819
 6039W        W21848  12.115  14.933   1.487  0.0761 -0.2595  0.2338
 6040W        W21849  17.711  16.066   2.575  0.0587  0.3323  0.3509
 6041W        W21850   0.372   0.057  11.812 -0.1749 -0.1939  0.1093
 6042W        W21851   3.333   9.161   4.003  0.1926 -0.0685 -0.0762
 6043W        W21852   9.211   0.271   4.711  0.2419 -0.0118  0.1014
 6044W        W21853   4.651  13.126  12.538  0.0750 -0.2279 -0.1243
 6045W        W21854  11.617  14.879  12.043 -0.0257  0.2021  0.0109
 6046W        W21855   5.965   4.587  11.221 -0.1233 -0.0644 -0.0728
 6047W        W21856  14.621   7.678  13.857 -0.0079  0.1294  0.0370
 6048W        W21857   9.174  13.130   0.620 -0.1806  0.0327 -0.3273
 6049W        W21858   6.456  18.759  12.934 -0.2583  0.1138  0.2685
 6050W        W21859  14.455  17.768  12.888  0.0676  0.1921  0.1127
 6051W        W21860  11.485  12.326  10.876 -0.2661  0.2109  0.3273
 6052W        W21861  11.199   2.426  13.823  0.3008 -0.1985 -0.0539
 6053W        W21862  16.452   0.424  10.807 -0.0912  0.1596 -0.2040
 6054W        W21863   7.534   0.688  14.250 -0.0021  0.2651 -0.2103
 6055W        W21864   0.572   4.645   0.761  0.1330  0.0184 -0.1116
 6056W        W21865   2.933   6.849  13.257  0.0599  0.2823 -0.1235
 6057W        W21866   2.950  10.263   0.573 -0.0565 -0.1772  0.2402
 6058W        W21867   8.652   4.950  14.684  0.0936  0.0709  0.0651
 6059W        W21868  13.442  11.060  12.458  0.0811  0.0481  0.2353
 6060W        W21869   2.785  13.931  11.928 -0.0104 -0.5147 -0.2482
 6061W        W21870   1.204   8.472   2.712  0.6054  0.2234 -0.0062
 6062W        W21871   6.074   6.347  11.905  0.2104 -0.1652  0.0107
 6063W        W21872  18.754   2.189   2.004 -0.1452 -0.2763 -0.2409
 6064W        W21873   5.924   6.753   4.676  0.1102  0.1118  0.0717
 6065W        W21874  13.093  17.006   3.080 -0.1638 -0.2759  0.2023
 6066W        W21875   5.635  17.390   1.659  0.2173 -0.2461  0.0150
 6067W        W21876  18.217   7.066   4.827  0.1110 -0.2086 -0.0317
 6068W        W21877   2.116  11.927   1.200  0.1252 -0.0329  0.0005
 6069W        W21878  10.035  18.195   4.002 -0.0457 -0.1047  0.3088
 6070W        W21879  12.880  10.273  13.495 -0.0564 -0.0050  0.1755
 6071W        W21880  10.515   3.889  13.073 -0.0820 -0.1320  0.2815
 6072W        W21881  14.008   5.456   5.488 -0.1159  0.2029  0.2162
 6073W        W21882  11.779   2.033   4.259  0.1543 -0.0230 -0.4311
 6074W        W21883   3.969  12.552   0.623 -0.1760  0.1609 -0.3014
 6075W        W21884  10.882  17.574   3.217 -0.0745  0.3353 -0.1344
 6076W        W21885   7.424   1.519  13.784  0.1982  0.1699 -0.2290
 6077W        W21886   6.596   5.771   3.170  0.1436 -0.0944  0.3514
 6078W        W21887   8.074  11.302  14.722  0.2073 -0.1867  0.0049
 6079W        W21888   5.828   0.416   2.228 -0.3891 -0.1700  0.2031
 6080W        W21889  18.893   7.945  14.247 -0.0035  0.2132  0.0657
 6081W        W21890  12.563  14.506   4.476 -0.1559  0.0738 -0.2336
 6082W        W21891   7.771  10.660  14.066 -0.0830 -0.0153  0.1135
 6083W        W21892  17.947   0.411  12.984  0.3230  0.0468  0.5379
 6084W        W21893  10.022  11.371   9.900 -0.0424 -0.0127 -0.2714
 6085W        W21894   7.607   9.783  10.832  0.0441  0.0628 -0.0442
 6086W        W21895   4.319  18.126   2.625 -0.2326  0.2473  0.0126
 6087W        W21896  16.142   5.424  11.806  0.1843 -0.1131 -0.1326
 6088W        W21897   7.558   9.178   2.203  0.0197  0.0241  0.1164
 6089W        W21898  14.461  11.943   1.397 -0.0519 -0.2381  0.1750
 6090W        W21899  10.811  17.284  10.564 -0.5777 -0.1064 -0.0967
 6091W        W21900  14.374   3.853  11.559 -0.1949  0.4101 -0.1486
 6092W        W21901   1.228  17.850   2.005 -0.1631  0.0282 -0.2531
 6093W        W21902  15.561   7.661   0.223  0.1239  0.1104  0.1354
 6094W        W21903   2.480   1.612   0.648  0.0397  0.0668  0.0141
 6095W        W21904  13.028   6.559  13.406 -0.2810 -0.1487 -0.3421
 6096W        W21905   7.855   8.080   0.314 -0.0708  0.1606 -0.1099
 6097W        W21906  16.614  11.749   4.900 -0.2177  0.0305  0.0367
 6098W        W21907   2.083  11.142   4.389 -0.3375  0.0095 -0.1207
 6099W        W21908   6.010   0.576   9.596  0.1419 -0.2354 -0.1174
 6100W        W21909   5.244   1.542  15.129  0.0129 -0.5716  0.2181
 6101W        W21910  18.504  16.803   3.519 -0.2615  0.0177 -0.5639
 6102W        W21911   3.125  16.355   2.053  0.0990  0.2301 -0.0516
 6103W        W21912   8.528  11.312  13.961  0.0551  0.1635 -0.2805
 6104W        W21913  11.695   5.799  10.721  0.1535 -0.0015 -0.0575
 6105W        W21914   2.930  10.832   0.234 -0.0244 -0.1585  0.0380
 6106W        W21915   2.629   9.144  12.224 -0.1512 -0.0887  0.0476
 6107W        W21916   7.724   1.125   0.336 -0.0009  0.0186  0.0864
 6108W        W21917  15.692   6.795   0.156  0.1630  0.1607 -0.2236
 6109W        W21918   7.483  10.990   0.164 -0.3517 -0.2565 -0.1256
 6110W        W21919   8.125  15.536  13.821  0.1512 -0.0037  0.2722
 6111W        W21920  16.273   5.017   2.372  0.2191 -0.0173 -0.1682
 6112W        W21921   2.699   5.671   4.321 -0.1935  0.2717 -0.1792
 6113W        W21922   6.713   8.055  13.982  0.1496 -0.3568  0.0588
 6114W        W21923   3.139   7.445  13.559  0.0245  0.0095 -0.2267
 6115W        W21924  13.364  15.696   4.064 -0.3436 -0.3352 -0.2381
 6116W        W21925  10.820  17.032  11.976  0.1409 -0.3998 -0.1913
 6117W        W21926  14.214  15.974  11.430 -0.1559 -0.0456 -0.4039
 6118W        W21927   4.151  15.063   5.545 -0.2093  0.0332  0.0193
 6119W        W21928   7.188   5.664  11.137 -0.3045  0.2065 -0.1098
 6120W        W21929   3.502   0.881   4.274 -0.1852 -0.2687 -0.1015
 6121W        W21930   3.902   6.774  13.036 -0.1260 -0.0256  0.0909
 6122W        W21931   8.687  16.197   2.533  0.2491  0.0616  0.2612
 6123W        W21932  11.626   2.439   2.190  0.0421  0.3185  0.1398
 6124W        W21933   6.468   4.599  14.416 -0.4025 -0.0277 -0.1121
 6125W        W21934   4.173   4.094   0.871 -0.1207  0.3235 -0.0166
 6126W        W21935  14.396  18.073  14.615  0.2266 -0.0088  0.1395
 6127W        W21936   9.676  16.053   5.200  0.2352  0.0955 -0.0118
 6128W        W21937   0.242   2.635  13.216  0.1568 -0.1519 -0.1724
 6129W        W21938  11.282   8.669  12.831  0.1122 -0.1364  0.1898
 6130W        W21939  11.321   6.989   4.255 -0.0304  0.2572  0.4184
 6131W        W21940  12.342  17.543   1.915 -0.0284  0.2652 -0.1225
 6132W        W21941   4.200  11.686   4.569 -0.3017 -0.1030 -0.0896
 6133W        W21942  16.940  11.220  10.000 -0.0600 -0.0284  0.6006
 6134W        W21943  17.663  10.715   2.608 -0.4655  0.0128 -0.3736
 6135W        W21944   6.559   6.883   4.025  0.0618 -0.1826  0.2167
 6136W        W21945   3.115   6.458  10.744 -0.0328 -0.3054  0.0911
 6137W        W21946  15.064  15.497   1.015 -0.0181 -0.0908 -0.3190
 6138W        W21947   8.878   2.850   0.743  0.1626  0.3613  0.3882
 6139W        W21948  19.028   6.790   3.157  0.2332  0.0242  0.3826
 6140W        W21949   2.709  12.657  12.915  0.0089 -0.1244  0.1749
 6141W        W21950   5.228   2.164  10.802 -0.0144 -0.3903 -0.0117
 6142W        W21951  16.936   4.908  12.090 -0.0245 -0.0892 -0.4345
 6143W        W21952  16.725   3.748   4.659  0.4956 -0.0247 -0.1091
 6144W        W21953   5.691  10.158   1.337  0.1233 -0.1975 -0.2426
 6145W        W21954   6.489   2.789  10.754 -0.0150 -0.4059  0.0745
 6146W        W21955  16.293   4.473   4.809  0.1382  0.0747  0.0370
 6147W        W21956   2.173  11.767  13.857  0.0205  0.0183  0.0161
 6148W        W21957   8.609   3.260   3.886  0.0338  0.3758 -0.1251
 6149W        W21958   7.058  19.105   3.716 -0.2017 -0.4323 -0.0695
 6150W        W21959  11.974   4.832   1.142 -0.0343  0.1969 -0.2507
 6151W        W21960   1.924  13.197   0.154  0.0268 -0.0488  0.3895
 6152W        W21961   2.910  12.997   3.352 -0.2095  0.1191  0.1156
 6153W        W21962  15.277  17.430   1.095  0.0110 -0.0492  0.2392
 6154W        W21963   5.322  17.300   0.681  0.4110 -0.2581  0.0134
 6155W        W21964   3.204  16.326   4.360  0.1442  0.2496 -0.1384
 6156W        W21965   5.165   2.506  12.366 -0.0617  0.3657 -0.2017
 6157W        W21966  12.066  15.182  11.005  0.3153  0.1961 -0.0507
 6158W        W21967  16.100  17.255   0.723 -0.0209  0.0869 -0.4314
 6159W        W21968   2.137  12.955  12.026  0.3146 -0.1589  0.0096
 6160W        W21969  10.404   5.988   1.892 -0.0082  0.2865  0.1494
 6161W        W21970  13.528   9.631   5.676  0.4333  0.1706  0.0418
 6162W        W21971   1.794   0.898   4.772  0.1988  0.0796  0.0618
 6163W        W21972   2.541   0.840  14.372 -0.0471 -0.0736  0.0043
 6164W        W21973   8.787  16.389   1.138 -0.0583  0.1998  0.4653
 6165W        W21974  18.383   3.766   6.104 -0.2159  0.0118 -0.2344
 6166W        W21975   5.630  15.182   0.201 -0.0604 -0.0908 -0.1720
 6167W        W21976   1.771   8.278   0.374 -0.0542  0.3270  0.2827
 6168W        W21977  12.677  16.319   0.260  0.2429 -0.0208 -0.0395
 6169W        W21978   6.420   5.013   2.888 -0.3628  0.1405 -0.0118
 6170W        W21979  12.246  14.255   0.774  0.2376 -0.1786  0.1558
 6171W        W21980   9.105  16.123  12.711 -0.1077  0.0083  0.0094
 6172W        W21981   1.669  17.091  11.540  0.2063 -0.0633 -0.1107
 6173W        W21982  15.685  11.279   0.496 -0.2467 -0.0958  0.1646
 6174W        W21983   5.715  13.152   5.430 -0.2014 -0.1095 -0.1213
 6175W        W21984  11.689   1.599   4.841 -0.2500 -0.1529 -0.1610
 6176W        W21985  15.252   2.381  11.319  0.3202  0.0252  0.0736
 6177W        W21986  10.304  17.022  11.751 -0.2631 -0.3030  0.0087
 6178W        W21987  19.002  16.957   1.858 -0.1977  0.2254 -0.0278
 6179W        W21988   2.623  14.196  11.388  0.0978  0.1354 -0.0818
 6180W        W21989   1.702   3.105  10.379  0.0591 -0.1905 -0.0942
 6181W        W21990   5.575   6.779  14.575 -0.1000 -0.2242  0.0452
 6182W        W21991   8.580   5.350  10.834 -0.0379 -0.0569 -0.3904
 6183W        W21992   1.181   3.285  11.260 -0.1781 -0.4228  0.1008
 6184W        W21993   1.223   3.280   2.104  0.0882 -0.0800  0.0726
 6185W        W21994  11.536   4.322   5.636 -0.1640  0.0830 -0.1391
 6186W        W21995  15.807  13.453   0.854  0.0771 -0.0840 -0.2267
 6187W        W21996  12.827   1.961   3.595 -0.1705  0.1119  0.0126
 6188W        W21997   5.685  15.093  11.985 -0.4202  0.1295  0.0985
 6189W        W21998  14.446  11.390   1.654 -0.0086  0.0021 -0.0391
 6190W        W21999  11.637  15.641   1.954  0.0199  0.2295 -0.2282
 6191W        W22000  14.003  18.732   1.398 -0.2328  0.1301 -0.2873
 6192W        W22001  12.447  14.565  13.947 -0.0135  0.0851 -0.1989
 6193W        W22002   5.390   6.544   0.463  0.0906  0.0678 -0.2561
 6194W        W22003   0.894  15.840   4.934 -0.1137  0.0786  0.0405
 6195W        W22004   3.010  15.009  12.854 -0.1541  0.0582  0.2443
 6196W        W22005  13.684   5.693   0.458 -0.2742 -0.1868 -0.1142
 6197W        W22006  16.783  13.147   4.444 -0.3154  0.0992 -0.1116
 6198W        W22007   6.201   4.268   4.404  0.0627 -0.0935  0.4091
 6199W        W22008  18.746   5.707   0.284  0.3199 -0.3036  0.0701
 6200W        W22009  13.872  13.277   5.215  0.2176 -0.2291 -0.1184
 6201W        W22010   1.961  16.660  12.451 -0.1704  0.0507  0.1404
 6202W        W22011  10.450  17.789   0.299 -0.1628 -0.4183 -0.1933
 6203W        W22012   0.469  14.304   0.357  0.4304  0.2646 -0.1843
 6204W        W22013   2.156  17.855   4.767 -0.1891  0.0038 -0.2138
 6205W        W22014   8.693  16.675  13.339 -0.4794  0.6238  0.1930
 6206W        W22015  10.493  12.317  11.281 -0.2908  0.1636 -0.3552
 6207W        W22016  15.687   5.117   4.917  0.0464 -0.0645  0.0744
 6208W        W22017   1.545  10.610   0.721  0.1033  0.0196  0.3122
 6209W        W22018  15.603   0.295   0.498 -0.2669 -0.0629  0.1432
 6210W        W22019  10.705   9.267   0.753 -0.0655 -0.2513 -0.0425
 6211W        W22020  18.832  18.517  14.877 -0.1168 -0.2041 -0.2409
 6212W        W22021  17.391  15.284  12.698  0.2917  0.0713 -0.0682
 6213W        W22022   1.371   2.274   0.541 -0.0586 -0.0962  0.2272
 6214W        W22023  10.486  11.505   5.082  0.0921 -0.2024 -0.5991
 6215W        W22024   8.352  18.748   1.433 -0.2856  0.0753  0.1352
 6216W        W22025  12.021   8.065  10.141  0.1559 -0.1016 -0.0644
 6217W        W22026  16.520   4.051   5.041 -0.2211 -0.0707 -0.5130
 6218W        W22027   2.537   1.450  10.358 -0.3288 -0.1637 -0.0718
 6219W        W22028   5.864   3.685   9.909  0.2103 -0.3052 -0.0642
 6220W        W22029   3.587   6.368   2.169  0.0762  0.2347 -0.0914
 6221W        W22030   3.326   0.472   9.161  0.2360 -0.0973  0.0714
 6222W        W22031   4.143   9.445   4.187  0.1577  0.2548  0.0719
 6223W        W22032  11.469  17.616  10.113 -0.1338  0.0233 -0.3347
 6224W        W22033  11.979  17.798  14.757  0.0087 -0.1989 -0.3518
 6225W        W22034  19.060  18.761   5.969 -0.0759  0.2592 -0.0650
 6226W        W22035  10.035  18.878  12.493  0.1175 -0.4125 -0.0918
 6227W        W22036   8.364  18.255   0.622 -0.1383 -0.1973  0.5340
 6228W        W22037   4.894   3.139  12.049  0.2022  0.1428  0.2898
 6229W        W22038   9.183  14.261   5.009 -0.2291 -0.2677 -0.3694
 6230W        W22039  13.329  17.033   4.175 -0.1218  0.4055  0.2185
 6231W        W22040   0.372   2.404  11.517  0.4108  0.1141  0.3201
 6232W        W22041   7.339   2.207   2.827  0.2091  0.0836  0.0641
 6233W        W22042   0.516   2.641  12.737  0.1445 -0.0252  0.0857
 6234W        W22043  16.154   9.520   0.260  0.1987 -0.0788 -0.2429
 6235W        W22044  13.333   9.987  14.243  0.0142 -0.3646  0.2330
 6236W        W22045   7.704  16.121   4.087 -0.1450 -0.0807 -0.2219
 6237W        W22046  16.303   9.922  14.449  0.1261 -0.1063  0.4341
 6238W        W22047  11.086  13.923  13.015  0.3455 -0.2069  0.0174
 6239W        W22048  12.725  16.891  14.427  0.0094  0.1115  0.1925
 6240W        W22049   3.258   6.953  13.633 -0.2601  0.1737  0.1014
 6241W        W22050  15.211   9.612   0.190  0.2218  0.0201  0.0749
 6242W        W22051   0.754   3.537  13.216  0.1936  0.1548  0.2162
 6243W        W22052  12.811  11.268   3.260 -0.1015  0.1097  0.2225
 6244W        W22053  16.302  10.657   3.747  0.0165 -0.2361  0.0187
 6245W        W22054   1.036   1.153  11.625 -0.0474 -0.3572 -0.0612
 6246W        W22055  15.137   2.049   4.698  0.2319 -0.0715  0.0071
 6247W        W22056   2.826   2.078   1.766 -0.2318  0.1743  0.1596
 6248W        W22057  12.203   8.059  12.596 -0.1637  0.1828  0.2978
 6249W        W22058   2.759  17.223  14.905 -0.2514 -0.0128 -0.0958
 6250W        W22059  14.992  16.600   5.474  0.0102  0.0299  0.0264
 6251W        W22060   1.767  10.327  12.799  0.0695 -0.2140  0.0378
 6252W        W22061   2.933   6.869   2.192 -0.0715  0.4464  0.1851
 6253W        W22062   0.844   6.213  12.878  0.4243 -0.1071  0.0089
 6254W        W22063  17.867   3.237   4.955 -0.0326 -0.2317  0.0181
 6255W        W22064  10.909  11.241  10.952  0.2780 -0.2975 -0.2485
 6256W        W22065  17.192  10.219   4.473 -0.0922 -0.2223  0.2309
 6257W        W22066   9.344  17.611  14.321 -0.0418  0.2701 -0.2380
 6258W        W22067  15.232   6.205  10.426  0.1247  0.0495 -0.2617
 6259W        W22068   0.170   3.887  11.771 -0.0464 -0.1195 -0.2665
 6260W        W22069  11.498   6.865   5.075 -0.0334  0.4827 -0.2883
 6261W        W22070   5.108  10.842   2.883  0.3719  0.0068  0.0954
 6262W        W22071   1.775  14.592  10.369 -0.0800  0.0184  0.0473
 6263W        W22072   1.460  14.381  14.528  0.0575  0.2207 -0.1038
 6264W        W22073  13.531   5.353  14.997 -0.0092  0.0519 -0.1020
 6265W        W22074  16.945   6.422   3.836  0.0534 -0.0692 -0.2507
 6266W        W22075   2.879   7.057   4.145  0.1281 -0.1828  0.0275
 6267W        W22076  16.927  17.554   3.042  0.0478  0.1252 -0.1548
 6268W        W22077   4.493  17.799   1.661  0.0247 -0.0944  0.1549
 6269W        W22078   3.651   1.148  13.070  0.1041 -0.1804  0.4215
 6270W        W22079   1.467   2.542   3.563 -0.1124  0.0257  0.3766
 6271W        W22080  12.265   4.522   1.871 -0.1162 -0.0463  0.0669
 6272W        W22081  10.976  10.074   2.437  0.0509 -0.1376 -0.2671
 6273W        W22082   7.033  10.966   1.109 -0.1020 -0.3202  0.1181
 6274W        W22083   3.861  17.847   3.700  0.0917  0.2390  0.2347
 6275W        W22084   1.022   2.594   3.231  0.1489  0.0820  0.0654
 6276W        W22085   9.341  12.614   1.570  0.0418 -0.0147  0.0631
 6277W        W22086   7.708   8.810   4.609 -0.2476  0.0677 -0.3448
 6278W        W22087   4.860  18.266  14.475  0.1686  0.0905  0.2110
 6279W        W22088  15.032  14.560   5.061  0.1579  0.1139  0.0436
 6280W        W22089  14.951   7.433   5.692  0.0009 -0.3234 -0.0158
 6281W        W22090   8.337   0.858  13.474 -0.1533 -0.1900 -0.0261
 6282W        W22091   2.499  17.306   3.549 -0.0012 -0.1023 -0.5143
 6283W        W22092   0.164   3.268   3.777  0.0552 -0.2583  0.3108
 6284W        W22093  16.144  11.736  13.987 -0.0373 -0.0622 -0.0465
 6285W        W22094  17.628  17.070   2.261  0.1236  0.0744  0.2299
 6286W        W22095  15.208  12.192   2.052 -0.1055 -0.3145 -0.2198
 6287W        W22096   8.659   0.324  11.188 -0.0127  0.1880 -0.0082
 6288W        W22097  10.862   4.460  12.291 -0.0569 -0.3614  0.0271
 6289W        W22098  11.581  14.407  14.973 -0.3083 -0.1615 -0.1003
 6290W        W22099   9.577   7.908   0.767  0.0142  0.1405  0.1580
 6291W        W22100   0.958  14.479   0.586  0.4848 -0.1078  0.3502
 6292W        W22101  18.213  18.746  11.594  0.3315  0.1176  0.2834
 6293W        W22102   5.653   4.006   4.235 -0.1339 -0.2716  0.0634
 6294W        W22103   9.626   4.417   4.590 -0.0678  0.0069 -0.1008
 6295W        W22104  14.123   2.676  11.285 -0.0767  0.2961  0.1927
 6296W        W22105   3.529  10.838  10.071  0.3076  0.2169  0.0733
 6297W        W22106   7.402   6.631   0.371 -0.0958 -0.1960 -0.0368
 6298W        W22107   5.769   7.500   3.532  0.2319 -0.4018  0.1051
 6299W        W22108   7.954  15.096  14.643 -0.0890 -0.0059  0.0227
 6300W        W22109  13.283  17.475  13.378 -0.4824 -0.0613  0.2750
 6301W        W22110  14.734   6.966   4.744  0.4026  0.1891 -0.2406
 6302W        W22111  17.718   9.056   2.220  0.2679  0.0576  0.1183
 6303W        W22112   9.581  18.532  13.981  0.2151  0.1211  0.0633
 6304W        W22113  11.286   4.097   2.654 -0.0673 -0.0306 -0.0248
 6305W        W22114  13.850   1.671  14.903  0.1192 -0.3258  0.2927
 6306W        W22115  15.778   4.003   9.812  0.3088 -0.1678  0.3417
 6307W        W22116  11.385  11.180  12.790  0.2662 -0.0496  0.0363
 6308W        W22117   5.045   8.455   0.226  0.0672 -0.0173 -0.3965
 6309W        W22118   1.014   0.589   1.888  0.2659  0.1452 -0.2331
 6310W        W22119   2.021   4.065  11.155 -0.0780 -0.1233 -0.1722
 6311W        W22120   9.833  11.464   3.803 -0.1992  0.0451 -0.2067
 6312W        W22121   3.103  13.185   0.866  0.1444  0.0748 -0.1300
 6313W        W22122   3.338  13.044  13.626 -0.3032 -0.5477 -0.1560
 6314W        W22123  15.253   1.797   2.244 -0.2455 -0.4853 -0.2327
 6315W        W22124   2.611  11.963   1.313 -0.2163  0.0030 -0.1175
 6316W        W22125  10.731   0.620   2.666  0.2668  0.1803  0.0189
 6317W        W22126  17.486   8.328  14.764 -0.0122  0.2071  0.1571
 6318W        W22127  13.658  19.139  12.211 -0.1311 -0.3193  0.1475
 6319W        W22128  15.243   0.642   3.591 -0.1908  0.1008  0.1730
 6320W        W22129   5.934   8.854   3.534  0.0851  0.2473  0.5254
 6321W        W22130  17.364   4.860   0.200  0.0612  0.2646  0.2529
 6322W        W22131   9.070   8.688  14.133  0.1388  0.0538 -0.0976
 6323W        W22132  17.610  11.113  13.116  0.1095  0.0365 -0.1700
 6324W        W22133   3.302   1.031  11.528  0.1183 -0.0883 -0.2513
 6325W        W22134  15.152   4.473   2.680  0.2780  0.3251  0.0271
 6326W        W22135  13.670  14.281  11.116  0.0496 -0.4701 -0.0169
 6327W        W22136  17.410  17.555  12.756 -0.1273 -0.1544 -0.3591
 6328W        W22137   8.252  13.101  14.322 -0.0864 -0.1511 -0.1904
 6329W        W22138  17.023  10.650  13.654  0.2003 -0.2347 -0.1347
 6330W        W22139  11.151  11.578  15.216  0.0281 -0.2893 -0.0385
 6331W        W22140   8.024   3.263  11.078  0.2871  0.1557 -0.2178
 6332W        W22141   2.067  14.629   1.235 -0.0924  0.0638 -0.1579
 6333W        W22142  15.777  14.490  13.786  0.1341 -0.0629  0.1494
 6334W        W22143   3.407   2.079  10.854  0.0293 -0.0479 -0.1130
 6335W        W22144   6.467   8.104   4.585 -0.3144  0.2035 -0.1842
 6336W        W22145   0.453  15.007   2.003  0.1187  0.1297  0.1753
 6337W        W22146  16.838   8.345   5.407  0.3636 -0.1342 -0.0236
 6338W        W22147   7.988  13.247  12.706  0.0659 -0.0707  0.1163
 6339W        W22148   0.022  13.920  14.669 -0.0374 -0.2827  0.1885
 6340W        W22149   4.760   9.165   4.859 -0.0090  0.1070  0.0308
 6341W        W22150   2.690   0.667  11.740 -0.1717 -0.0935  0.0434
 6342W        W22151   4.733  10.150  10.005 -0.2731  0.2663 -0.2672
 6343W        W22152   8.901  14.674   4.683 -0.0902  0.1106  0.0476
 6344W        W22153   7.108  16.635  11.661 -0.4889  0.0401  0.0267
 6345W        W22154   0.634  10.904   2.155 -0.3318  0.3489  0.1043
 6346W        W22155  18.824  15.554  15.200 -0.2877 -0.2220 -0.2784
 6347W        W22156   6.597  13.277  14.015  0.0077  0.1597  0.0166
 6348W        W22157  16.881  12.572   3.720  0.2857  0.3255 -0.2822
 6349W        W22158  10.254   1.576   0.986 -0.1533 -0.1260 -0.1473
 6350W        W22159  14.653  15.505  10.915 -0.1189  0.3594 -0.2606
 6351W        W22160  16.884  15.500  12.780  0.1522 -0.2374 -0.0860
 6352W        W22161   0.745   0.567  13.084  0.2410  0.0435 -0.1421
 6353W        W22162  19.015  13.411  14.568  0.0388 -0.0178  0.4207
 6354W        W22163   2.602   8.301  12.827 -0.3002  0.3592  0.0668
 6355W        W22164  18.035  12.547   4.477 -0.2724  0.1577 -0.1097
 6356W        W22165  16.727   1.602  13.468 -0.2849  0.1161  0.1633
 6357W        W22166  11.879   8.933  11.649  0.2495 -0.0217 -0.1610
 6358W        W22167  12.777   0.215  14.963  0.5148  0.1792  0.1963
 6359W        W22168   6.495  13.698   1.901  0.0456 -0.3850  0.4726
 6360W        W22169  18.846   4.418   5.140  0.0736 -0.1937 -0.0353
 6361W        W22170   5.533  18.891   4.476 -0.1286 -0.2323  0.2188
 6362W        W22171  15.381  10.185   2.985  0.1724 -0.1735 -0.3865
 6363W        W22172  16.162  17.436   1.843  0.0169 -0.4172 -0.0101
 6364W        W22173   4.913   8.143   4.407  0.1157  0.2540  0.1134
 6365W        W22174  10.265  10.141  13.528  0.1475 -0.4104 -0.1015
 6366W        W22175   6.583   5.295  11.892  0.4143  0.0722 -0.0425
 6367W        W22176  10.926  12.822   1.365 -0.0468  0.2491 -0.1780
 6368W        W22177  14.698  14.999  14.130  0.0823 -0.2204 -0.0923
 6369W        W22178   8.713   0.323   0.231  0.1460 -0.2074  0.0966
 6370W        W22179   5.419  13.865   2.711  0.3086  0.2378  0.2889
 6371W        W22180  17.004   5.853   1.167 -0.1192 -0.1254  0.0018
 6372W        W22181  14.692  18.414   0.614  0.0114 -0.2949  0.2968
 6373W        W22182   0.764  17.970   1.285 -0.1234 -0.0430  0.0294
 6374W        W22183  10.379   3.932  12.383 -0.1173 -0.2314 -0.1738
 6375W        W22184   6.063   4.764  12.842 -0.1474 -0.1305 -0.1545
 6376W        W22185  16.799   5.756   2.796 -0.3427  0.2692  0.0555
 6377W        W22186  12.523  11.313  15.059  0.2033 -0.2171 -0.1187
 6378W        W22187   1.332  15.357  10.530  0.1339  0.0563 -0.0766
 6379W        W22188  14.503  18.937   1.144 -0.1163 -0.0017 -0.1861
 6380W        W22189   0.227  16.739  14.412  0.1392  0.1855  0.1817
 6381W        W22190   6.352  11.020   0.150  0.1403  0.0802 -0.1640
 6382W        W22191   7.204   5.246  10.468  0.0129 -0.1188  0.0832
 6383W        W22192  14.607  10.342  11.616 -0.0944  0.0666  0.3467
 6384W        W22193  12.534  15.925  14.418 -0.3829  0.0418 -0.0338
 6385W        W22194  15.031   8.493  13.360 -0.0047 -0.2452  0.3196
 6386W        W22195   2.310   5.876  12.607  0.4638  0.2604 -0.2941
 6387W        W22196  14.734   5.885   3.302  0.0346 -0.0183 -0.1922
 6388W        W22197   6.626   3.127  11.706  0.0055 -0.1346 -0.1669
 6389W        W22198  16.250  12.007  10.893  0.2122  0.0244  0.1493
 6390W        W22199   0.969  12.716  10.104 -0.1255  0.2831 -0.2599
 6391W        W22200  18.724   4.590   0.880 -0.3203  0.1395  0.2662
 6392W        W22201  18.739   1.117  12.558  0.1681 -0.1291 -0.0461
 6393W        W22202   8.167   6.456  11.371  0.0400  0.0575  0.2627
 6394W        W22203   7.904   3.645   2.770 -0.2284 -0.2582 -0.1084
 6395W        W22204   2.428  12.692  12.421 -0.4684 -0.2801  0.2026
 6396W        W22205   9.485   6.684   3.833  0.1482 -0.0915 -0.5164
 6397W        W22206  15.472   4.540   0.044 -0.3212  0.1785  0.0900
 6398W        W22207  11.249   0.607  14.488 -0.0113  0.2359 -0.1080
 6399W        W22208  12.322  17.816   1.452  0.2048 -0.0076 -0.2239
 6400W        W22209  16.739  17.913  10.955  0.1967 -0.0343  0.1135
 6401W        W22210  13.831   6.054   0.185 -0.1599 -0.0617 -0.1994
 6402W        W22211  14.659  18.610  11.606  0.3616  0.4153  0.2536
 6403W        W22212  10.223   5.064  13.747 -0.0361 -0.2297  0.0456
 6404W        W22213   5.882  17.852  13.267 -0.2454 -0.1182 -0.0396
 6405W        W22214  13.181   5.231   2.422 -0.0951  0.0585 -0.0706
 6406W        W22215  10.961   4.887  11.075 -0.2268  0.2685  0.1873
 6407W        W22216  15.015   6.463   3.974  0.0131  0.3409  0.5835
 6408W        W22217   9.279   5.924   4.837 -0.0710  0.0442  0.3330
 6409W        W22218  14.205   1.499  13.081  0.1224 -0.2590 -0.1965
 6410W        W22219  18.925   4.007   0.016 -0.2093  0.1149  0.0356
 6411W        W22220  15.677  17.466  13.400  0.1026 -0.1415 -0.0468
 6412W        W22221  13.599   7.374  10.487 -0.2752  0.0587 -0.1466
 6413W        W22222  11.722   0.095  10.836  0.0266 -0.0970 -0.2393
 6414W        W22223   9.836  11.503   0.894  0.2693  0.0076 -0.0658
 6415W        W22224  17.909   2.401   5.869  0.0780 -0.1437 -0.0371
 6416W        W22225  12.902   0.728  10.260 -0.3002 -0.3450 -0.2503
 6417W        W22226  10.330  17.167   4.824  0.1469  0.0125 -0.0735
 6418W        W22227   9.512   0.800  14.046  0.1230 -0.1557 -0.0401
 6419W        W22228  16.152   1.773   4.201  0.1740  0.1525 -0.1001
 6420W        W22229   6.842  15.254   0.388  0.4480 -0.2788  0.0362
 6421W        W22230   5.006   8.376   3.996  0.0352 -0.1260 -0.0957
 6422W        W22231  11.001  10.428   0.342 -0.2761 -0.2156  0.1958
 6423W        W22232  17.066   6.584   4.920 -0.1758 -0.1627  0.2395
 6424W        W22233  18.552   8.032  13.254 -0.1087 -0.3757  0.0827
 6425W        W22234  14.715   2.582   4.181  0.0338 -0.1348  0.1233
 6426W        W22235   1.014   1.324   1.070  0.0671 -0.0893  0.1704
 6427W        W22236  18.272   7.584  13.421 -0.1462  0.0298 -0.1404
 6428W        W22237   6.390  17.086  13.782  0.0885  0.0091  0.3421
 6429W        W22238   9.966   7.760  11.051  0.3284  0.0738  0.1846
 6430W        W22239  13.427  17.418   3.114  0.1321  0.1203  0.0505
 6431W        W22240   8.650  13.717   2.328  0.1104 -0.3490  0.0528
 6432W        W22241  10.457  10.484   5.013  0.0561 -0.0744 -0.2884
 6433W        W22242   3.090   3.725  13.639  0.1316 -0.0227 -0.2248
 6434W        W22243  10.958  12.072  13.629 -0.0906 -0.1094  0.1866
 6435W        W22244   3.889   6.340   4.819 -0.1907 -0.0136  0.1738
 6436W        W22245   1.051   3.059   9.604 -0.1251 -0.1702 -0.3050
 6437W        W22246  18.362  16.559  13.644 -0.3040  0.0735  0.0048
 6438W        W22247   6.219   7.796  10.685 -0.0549 -0.3369 -0.2732
 6439W        W22248  10.508  10.223   0.444 -0.1090 -0.1095 -0.1279
 6440W        W22249   2.746  10.563   4.166  0.0148 -0.2416  0.1531
 6441W        W22250   3.812   2.345  13.669 -0.0015  0.1096  0.1097
 6442W        W22251   1.467  15.972  14.950  0.1216 -0.0651 -0.2530
 6443W        W22252   1.360  17.889   4.262  0.1048 -0.1775 -0.0008
 6444W        W22253   1.744  11.031   1.317 -0.0441 -0.2289 -0.2291
 6445W        W22254   8.162  10.897  15.041 -0.2518 -0.2809  0.0758
 6446W        W22255  13.257  19.078   2.169 -0.0641  0.1978  0.0700
 6447W        W22256   9.386   9.149  14.387 -0.0449 -0.2921  0.1060
 6448W        W22257   1.008   8.784  12.355 -0.1107 -0.0583 -0.1011
 6449W        W22258  12.404  19.088   0.012  0.2677 -0.3750 -0.0342
 6450W        W22259  16.505  18.863  11.246 -0.0913  0.0447  0.2802
 6451W        W22260   2.795   1.132   0.644  0.0900 -0.1767 -0.2964
 6452W        W22261  16.309   0.458   4.818  0.0807  0.1502  0.0224
 6453W        W22262  13.181  10.837   1.956  0.1054  0.0304 -0.0789
 6454W        W22263   9.683   9.571   0.517 -0.0709  0.1490 -0.4023
 6455W        W22264   0.381  11.641   1.459 -0.2399  0.0935  0.0483
 6456W        W22265   0.413   3.611   1.837 -0.0623  0.1207  0.1529
 6457W        W22266   4.545  14.830   9.979 -0.4446 -0.1355  0.0566
 6458W        W22267   4.926   2.491   0.575 -0.1611  0.0082  0.3009
 6459W        W22268  13.867   1.218   2.583  0.0467 -0.3396 -0.1839
 6460W        W22269  14.606   3.379   5.240  0.2260 -0.1416 -0.1130
 6461W        W22270   1.055   0.557  12.297 -0.0819  0.1155 -0.0638
 6462W        W22271   0.852   6.062   1.489  0.0324 -0.0349 -0.0765
 6463W        W22272  14.113   7.831   1.701 -0.1411 -0.1028 -0.1321
 6464W        W22273  12.645   3.888   5.004  0.0721 -0.1101  0.1997
 6465W        W22274  13.088  17.328   0.881  0.2709 -0.2023 -0.1502
 6466W        W22275  16.652  10.000  12.550 -0.2799  0.2139  0.2105
 6467W        W22276   4.093   2.655  10.587 -0.2975  0.1081 -0.1782
 6468W        W22277  18.198  11.521   3.086 -0.1816  0.0582  0.2498
 6469W        W22278  13.065  11.391   3.898 -0.2911  0.3110  0.2843
 6470W        W22279  13.127   1.092  12.450 -0.0161  0.1016  0.0077
 6471W        W22280   3.015  14.475   0.775  0.1335 -0.2598 -0.0406
 6472W        W22281  12.723  14.066  13.501  0.2519 -0.0032 -0.1465
 6473W        W22282  17.980  16.882   0.963 -0.3113 -0.1960  0.3725
 6474W        W22283   6.914  18.694   3.447 -0.0431  0.2587 -0.0498
 6475W        W22284  16.386  11.231  12.694 -0.1805 -0.4888 -0.2953
 6476W        W22285  15.490  12.456  14.516 -0.1050 -0.2562 -0.1926
 6477W        W22286  13.897   2.300  14.395  0.2325  0.2723 -0.2142
 6478W        W22287   3.714  14.591  10.751  0.2380 -0.2150 -0.0429
 6479W        W22288   7.817  18.735  12.764 -0.2515 -0.0288 -0.3406
 6480W        W22289  14.467   6.668  14.616  0.0086  0.1911 -0.3354
 6481W        W22290  11.381   0.574  11.076  0.2309 -0.2730 -0.1004
 6482W        W22291   2.245   0.202  13.670 -0.2009 -0.0891  0.1477
 6483W        W22292  11.584   2.645   3.188 -0.1135  0.0398 -0.0361
 6484W        W22293   8.855  17.808  11.322 -0.1308  0.4261 -0.0325
 6485W        W22294   5.371   7.007  11.551  0.1084  0.0379 -0.1704
 6486W        W22295   7.490  14.063   9.819 -0.2705  0.0068 -0.2507
 6487W        W22296   4.470  11.312   0.536 -0.0230 -0.0200  0.1566
 6488W        W22297  10.190   8.942   4.738  0.2746 -0.1510  0.0036
 6489W        W22298  18.802  16.466  12.004 -0.0572 -0.0669  0.2254
 6490W        W22299   3.124  10.290   2.525 -0.2128  0.2347  0.1001
 6491W        W22300   3.685   7.918  10.245  0.5555 -0.1678 -0.0573
 6492W        W22301  13.342   1.542  10.819 -0.0019 -0.0759  0.2507
 6493W        W22302  11.438   8.027   0.629  0.2140  0.1666  0.0221
 6494W        W22303  12.573   1.924  14.933 -0.0618 -0.2221 -0.2096
 6495W        W22304   4.279  18.064  13.956 -0.2354  0.5082  0.0811
 6496W        W22305   6.989   5.257  10.995 -0.0376  0.1356  0.1512
 6497W        W22306   6.784   3.455   0.336  0.2176 -0.0346  0.1947
 6498W        W22307   7.641   4.125  10.885  0.2924 -0.1884 -0.0641
 6499W        W22308  12.962  11.612  11.904  0.1134  0.1079  0.2044
 6500W        W22309  11.384  14.446   1.091  0.0109  0.1403 -0.0124
 6501W        W22310   1.231  10.445  12.792  0.2494 -0.1219 -0.4340
 6502W        W22311  17.561   8.448  14.287  0.0788 -0.2043  0.1829
 6503W        W22312  14.735   5.864  13.042  0.0537 -0.1768  0.0659
 6504W        W22313  15.076   8.578   0.779  0.1466 -0.0036  0.1604
 6505W        W22314   8.021  12.364   2.265 -0.0704 -0.0487 -0.0535
 6506W        W22315  14.022   7.464   4.727 -0.1359 -0.3365 -0.0784
 6507W        W22316  10.793  18.621   5.464  0.0302 -0.0572 -0.0180
 6508W        W22317  10.507  10.425  12.674  0.1732  0.1998  0.1322
 6509W        W22318  12.675  18.517  14.565  0.0857  0.0598 -0.0679
 6510W        W22319  15.477   2.212  12.653 -0.1011 -0.2786 -0.0956
 6511W        W22320  17.508   3.592  14.414  0.0881 -0.0917 -0.5527
 6512W        W22321   9.554   5.442   1.337 -0.1212 -0.0007 -0.4194
 6513W        W22322   4.240   5.945   1.145  0.3100  0.4131  0.1004
 6514W        W22323  14.548  16.794  13.253  0.1266  0.2884  0.1154
 6515W        W22324   7.612  16.589   3.654 -0.0337  0.1924  0.2321
 6516W        W22325  11.524  16.422  10.776  0.1431  0.0215 -0.0619
 6517W        W22326  13.440  18.356   5.894  0.0419  0.1212  0.0453
 6518W        W22327  18.124  10.875   3.742 -0.0810  0.0297 -0.0462
 6519W        W22328   8.295  14.107   3.753  0.0190  0.0965  0.0210
 6520W        W22329   2.837   0.809  13.537  0.4395 -0.3386 -0.3458
 6521W        W22330   4.522  10.853  14.820 -0.3025 -0.1022  0.1028
 6522W        W22331   8.663  13.452   4.879 -0.1594  0.0838 -0.3423
 6523W        W22332   3.288  12.134  10.796  0.0006 -0.0201  0.3402
 6524W        W22333   7.042   3.453   0.769  0.0495 -0.3226 -0.1424
 6525W        W22334  10.521   6.903  10.085 -0.1341  0.2460  0.0874
 6526W        W22335   8.474  13.139   9.851  0.3253  0.2844  0.0057
 6527W        W22336   2.805   3.172  10.612  0.1595  0.0311  0.0132
 6528W        W22337  13.495   3.826  11.899 -0.2047 -0.0310  0.0462
 6529W        W22338   9.562  18.912  15.100 -0.1676 -0.0158 -0.2792
 6530W        W22339   5.949   6.525  10.122  0.2948  0.0219  0.1373
 6531W        W22340  12.356  14.921  11.313  0.1474 -0.1490 -0.1619
 6532W        W22341  10.286   1.418  10.483  0.0642  0.0754 -0.0359
 6533W        W22342   3.755  15.232   0.790  0.4269  0.1389 -0.4694
 6534W        W22343  14.481  18.443   1.689  0.0098 -0.1459  0.2825
 6535W        W22344  16.951   1.566   0.201 -0.2545  0.1674 -0.1510
 6536W        W22345   5.264   9.036   4.709  0.3631 -0.3288 -0.0986
 6537W        W22346  11.705   8.116  10.587 -0.0396 -0.3332 -0.0859
 6538W        W22347   0.717   6.751  12.653 -0.0701 -0.1746 -0.1403
 6539W        W22348   8.118  10.152   3.166 -0.1977 -0.1615  0.0797
 6540W        W22349   5.936   3.178  15.141 -0.1381 -0.0239 -0.0550
 6541W        W22350  10.825  16.260  11.412  0.0578 -0.1279  0.2729
 6542W        W22351   6.646  15.148  11.902  0.0212 -0.1513  0.1877
 6543W        W22352   3.919   5.213  11.188  0.2194 -0.1676  0.0638
 6544W        W22353   3.149  10.154  13.240  0.2912  0.0392 -0.0060
 6545W        W22354  17.846   2.262   3.420  0.1691 -0.0519 -0.1590
 6546W        W22355   4.929   5.182  12.036 -0.2449 -0.2708 -0.3405
 6547W        W22356  18.492   9.829   0.173 -0.3719 -0.2608  0.2528
 6548W        W22357   5.671   1.881  13.675  0.4286 -0.3343  0.0214
 6549W        W22358  16.584  18.832   3.443  0.2686 -0.2058 -0.0134
 6550W        W22359   2.995   3.048   0.400 -0.4279  0.0635  0.2790
 6551W        W22360  14.849   6.162   4.746 -0.3730  0.2233 -0.2139
 6552W        W22361   9.664  11.584  14.661  0.1692  0.0994  0.0539
 6553W        W22362   0.181  16.269   4.004 -0.0237 -0.2141  0.0670
 6554W        W22363   4.613  16.189  13.984 -0.1342  0.0532 -0.2829
 6555W        W22364   9.811   1.218   2.932 -0.1194 -0.2962  0.0573
 6556W        W22365   4.930   6.646   9.405 -0.3331  0.1973 -0.2055
 6557W        W22366   5.875   7.863  13.071  0.0549  0.0070 -0.0077
 6558W        W22367   3.746  14.598   1.584 -0.0200  0.1678  0.1453
 6559W        W22368   3.442   0.153  10.654  0.2511  0.2740  0.1552
 6560W        W22369  14.463   7.319   4.542  0.1932  0.0710  0.0601
 6561W        W22370   4.911  10.051  13.798  0.0800  0.1338  0.0057
 6562W        W22371   5.047  13.888  13.262 -0.1309  0.1161 -0.0010
 6563W        W22372   5.047   3.925  13.153  0.0653 -0.0788 -0.0504
 6564W        W22373   3.671   8.020  13.140  0.2205 -0.0038 -0.0038
 6565W        W22374  16.633   5.339  13.249 -0.0662  0.0253 -0.0027
 6566W        W22375   3.065   1.053  14.484  0.1900  0.1414  0.0613
 6567W        W22376  10.208   2.232  10.936 -0.3754 -0.1048  0.0244
 6568W        W22377   8.574   2.528   2.739 -0.0898 -0.0161  0.0942
 6569W        W22378   8.684   9.924   0.044 -0.0985  0.0652 -0.3785
 6570W        W22379  18.137  17.067   2.296 -0.2470 -0.5110  0.1008
 6571W        W22380   8.897  15.490   1.268 -0.1435  0.2201 -0.1393
 6572W        W22381   0.512   1.216  10.504 -0.1227 -0.0575  0.1257
 6573W        W22382   1.693   1.110  13.156 -0.0333 -0.1705  0.5176
 6574W        W22383  15.670   0.150  13.605  0.2982 -0.0604 -0.2546
 6575W        W22384   0.548  16.746  13.654 -0.1010  0.4446  0.0134
 6576W        W22385   3.034  16.395   0.337  0.3138 -0.0215 -0.0529
 6577W        W22386   1.103  16.581  11.902 -0.0467  0.1274 -0.2983
 6578W        W22387   9.489   6.727   3.095 -0.3722  0.4210  0.1226
 6579W        W22388  17.539   2.960   5.239  0.2964 -0.0607 -0.1261
 6580W        W22389  10.534   2.309   0.675 -0.0214 -0.0075  0.2849
 6581W        W22390   4.374  11.864  13.434  0.1547  0.0521  0.2338
 6582W        W22391   1.016  16.393  13.865  0.0037 -0.1370  0.0707
 6583W        W22392   4.739   0.728   2.912 -0.0090  0.1461  0.7881
 6584W        W22393   1.346   5.659  14.519 -0.4175 -0.0952  0.3058
 6585W        W22394   5.908  17.618   3.360  0.1917 -0.0102  0.3148
 6586W        W22395   7.244   3.824   1.594  0.0013  0.1605 -0.0732
 6587W        W22396  11.874   2.413  11.862 -0.0455 -0.3251  0.1162
 6588W        W22397   6.812   8.323  14.449 -0.2953  0.3695  0.1969
 6589W        W22398   0.762   2.460   4.116  0.0223  0.3214  0.6844
 6590W        W22399  12.786  18.076   1.836  0.1678 -0.2120 -0.0111
 6591W        W22400   7.551  15.366   1.189  0.0439 -0.2246  0.1230
 6592W        W22401   1.906  13.447   0.600  0.2079 -0.1346 -0.0310
 6593W        W22402   0.514   5.967  14.382 -0.1993  0.1929  0.1467
 6594W        W22403  17.833   5.776  14.952  0.0353  0.2284  0.1780
 6595W        W22404  14.040   6.570  12.420 -0.4886  0.2147 -0.1090
 6596W        W22405   2.219  13.582   1.028  0.0117  0.1660 -0.0363
 6597W        W22406  13.487  17.269   5.375  0.0373 -0.1259  0.0023
 6598W        W22407  15.896   7.476  12.828  0.2758  0.0104 -0.1906
 6599W        W22408   4.885  12.257  11.722 -0.1147 -0.0873  0.1089
 6600W        W22409  12.449  14.181  13.035  0.1102 -0.2216  0.2183
 6601W        W22410   1.149   2.871   3.813 -0.0780  0.2105  0.1130
 6602W        W22411   3.192  18.300   3.149  0.0746  0.2788  0.1143
 6603W        W22412  12.147   9.688   4.284  0.4479 -0.0323  0.1221
 6604W        W22413   6.893   5.347  11.464  0.2243  0.3853  0.1142
 6605W        W22414  14.767   4.389   0.055 -0.3167 -0.0881  0.0283
 6606W        W22415  18.315   9.584   3.636 -0.0533  0.4550  0.0739
 6607W        W22416  11.064  15.372  11.809 -0.2561  0.3999  0.0822
 6608W        W22417   3.913  17.384   0.521 -0.1982  0.1046 -0.2570
 6609W        W22418  14.283   7.560   1.285  0.2820  0.1073 -0.3194
 6610W        W22419  14.128   3.369  11.564 -0.3717 -0.2115 -0.0857
 6611W        W22420  12.211   0.499  13.279 -0.0680 -0.0652 -0.1721
 6612W        W22421   5.942  14.128  10.533 -0.1543  0.0954 -0.2236
 6613W        W22422  18.844   5.688  14.948 -0.1289 -0.1958  0.1353
 6614W        W22423   5.648   1.330  10.505 -0.0698 -0.1182  0.0782
 6615W        W22424   7.211   2.571  13.840  0.0033 -0.2338  0.0149
 6616W        W22425  15.432   8.628   2.989  0.2121  0.0639  0.0621
 6617W        W22426  10.986  13.849   5.693  0.0971 -0.5314  0.1768
 6618W        W22427   3.036  17.444   0.524  0.2124  0.1871  0.0705
 6619W        W22428  17.368   1.498  10.008 -0.0484  0.1168 -0.0475
 6620W        W22429  11.716   5.310   2.091 -0.0186  0.0138 -0.1502
 6621W        W22430   9.089   0.716   0.333 -0.1664 -0.1216  0.0655
 6622W        W22431  13.686  14.952  10.476  0.0448 -0.0723  0.4518
 6623W        W22432  12.545   1.533  14.277 -0.0702 -0.0799 -0.2685
 6624W        W22433   1.342  12.700  11.290 -0.0465 -0.1411 -0.1568
 6625W        W22434  12.746   3.708   3.386  0.1336 -0.0065  0.0559
 6626W        W22435   7.090   1.182  11.220  0.0377  0.4227 -0.2178
 6627W        W22436  16.251   1.949   1.078  0.0320  0.1226  0.0447
 6628W        W22437   8.009   5.991   0.892 -0.0158 -0.3463  0.0670
 6629W        W22438   5.541   3.514  14.979  0.1829 -0.0934  0.2087
 6630W        W22439   6.691  13.811   1.459 -0.0660  0.0015  0.0219
 6631W        W22440  10.645   5.176  12.772 -0.0267 -0.2713 -0.0520
 6632W        W22441   9.842   2.932  13.505 -0.0811 -0.2155  0.3711
 6633W        W22442   7.652   4.093  14.081 -0.2015 -0.1557 -0.0684
 6634W        W22443  18.944   6.393   4.274 -0.1259  0.0569 -0.2344
 6635W        W22444  17.417  18.248   4.305  0.1565  0.3244 -0.0836
 6636W        W22445   1.232  12.204   0.091 -0.3025  0.1331 -0.0754
 6637W        W22446   8.350  10.434   5.495  0.1335 -0.1475  0.1201
 6638W        W22447   8.633  14.674  11.683  0.0287 -0.0511 -0.2508
 6639W        W22448  18.258   9.270  13.333 -0.0797 -0.1588 -0.1407
 6640W        W22449  14.460   2.902   1.567 -0.1922  0.2000 -0.1952
 6641W        W22450  13.145  14.382  14.395  0.2356 -0.0225  0.1959
 6642W        W22451  15.059   3.602  14.058 -0.1529  0.0994  0.0706
 6643W        W22452   0.880  18.711  14.165 -0.0182 -0.0580 -0.0085
 6644W        W22453  11.453  17.305   1.733 -0.1222 -0.1232  0.2676
 6645W        W22454   7.764  12.652   0.906 -0.3251 -0.2747 -0.3578
 6646W        W22455  12.212  14.924   2.171 -0.0445 -0.4547  0.2280
 6647W        W22456   0.107  11.301   4.377  0.0608  0.0500 -0.2052
 6648W        W22457   8.110  11.352   4.480  0.3601 -0.2013 -0.1038
 6649W        W22458  10.988   6.307  13.701 -0.3071  0.0067  0.0915
 6650W        W22459  13.390  17.511  10.967 -0.1938  0.0228 -0.0069
 6651W        W22460  13.715  17.788  12.118  0.2713 -0.1180  0.4637
 6652W        W22461   4.108  18.237   0.814  0.0090  0.1985 -0.1254
 6653W        W22462  13.985   3.445   1.481  0.3138  0.1780 -0.0881
 6654W        W22463  13.616   3.234  14.513 -0.0748  0.2614 -0.2051
 6655W        W22464   9.543   0.865  12.163  0.2753 -0.0086 -0.2361
 6656W        W22465   0.586  10.942  12.059  0.0512  0.0401 -0.1535
 6657W        W22466  17.828  13.201   5.243  0.2020  0.1796 -0.1063
 6658W        W22467   1.436  10.012  14.085 -0.0478 -0.1988 -0.0438
 6659W        W22468   5.825   8.040   9.994 -0.1233  0.0719 -0.5026
 6660W        W22469  17.364   5.688   1.970  0.1827 -0.1937  0.2768
 6661W        W22470   9.844  17.502  12.304  0.2556 -0.4154 -0.5302
 6662W        W22471   5.627   7.296   1.607  0.0479 -0.0738  0.0965
 6663W        W22472   5.069   7.343  11.170  0.1247  0.0031  0.1908
 6664W        W22473   8.812  14.214  14.043  0.2754  0.1160  0.0732
 6665W        W22474  18.681  13.347  11.743  0.2370  0.0848 -0.1019
 6666W        W22475  17.764   3.429  13.766  0.2504 -0.0488  0.2532
 6667W        W22476  18.710  12.964  13.008  0.2617 -0.3378  0.5134
 6668W        W22477   5.723   4.599   9.624 -0.1867 -0.1719 -0.0980
 6669W        W22478  13.906   7.414  10.970 -0.1291  0.0236 -0.1899
 6670W        W22479   9.396  14.320   0.739 -0.0329  0.4229  0.0839
 6671W        W22480   3.760  16.790  14.545  0.0288  0.4500 -0.1029
 6672W        W22481   8.702  15.121   3.771 -0.2452  0.0159 -0.0845
 6673W        W22482   9.440  17.444   0.597 -0.0104 -0.1378  0.3281
 6674W        W22483  15.255   5.223  10.338  0.2490 -0.0561  0.2015
 6675W        W22484   9.411   7.062  11.536 -0.0243  0.2047  0.1141
 6676W        W22485   0.782  17.311   0.511  0.2465 -0.1675  0.0981
 6677W        W22486   8.816  16.019   0.059  0.1421 -0.0096  0.1544
 6678W        W22487   6.787  15.156   3.668  0.2389  0.0554  0.2162
 6679W        W22488   1.722   3.993   4.951  0.2920  0.0497  0.1630
 6680W        W22489  15.640   9.803  12.711  0.0494  0.0828  0.0617
 6681W        W22490  16.884   3.997  13.470 -0.1595 -0.0395 -0.1867
 6682W        W22491   8.114   1.486  11.131  0.2349 -0.3025 -0.0142
 6683W        W22492   0.377   7.737   4.032 -0.2595 -0.2830  0.1493
 6684W        W22493   3.729  12.008   2.921  0.1020 -0.0228  0.0270
 6685W        W22494   8.091  14.657  11.062  0.0308 -0.1914 -0.2018
 6686W        W22495  16.592  18.941   0.871  0.1295 -0.0129 -0.0103
 6687W        W22496   7.209   6.864  10.283 -0.0596  0.3427  0.1890
 6688W        W22497  19.010   1.613  12.634  0.1773 -0.0487  0.3387
 6689W        W22498   9.584  12.955   4.104 -0.0996 -0.2181 -0.0743
 6690W        W22499   3.672  11.159   2.137  0.0355 -0.0432  0.0451
 6691W        W22500  15.002  15.951   0.862 -0.3878  0.0774  0.1060
 6692W        W22501  16.157  11.728  14.986  0.0982 -0.0011  0.0561
 6693W        W22502  10.608  12.600   3.967 -0.0974  0.0558 -0.2216
 6694W        W22503  14.021   0.241  14.169  0.1266  0.1674 -0.1605
 6695W        W22504  15.026   7.356  13.061 -0.0455  0.1899  0.0852
 6696W        W22505   7.209   3.595  14.171 -0.3120 -0.1911  0.5179
 6697W        W22506   6.271   9.260  13.539 -0.2641  0.0526 -0.1300
 6698W        W22507  18.789   9.973  14.179  0.0807 -0.3455  0.1892
 6699W        W22508   6.481   6.507  11.079  0.1114 -0.0874 -0.1866
 6700W        W22509  17.513  15.648   4.447  0.0298  0.3341  0.1392
 6701W        W22510   6.749  14.197  11.718  0.0061 -0.1117  0.3352
 6702W        W22511   6.068   9.390   3.503  0.1105 -0.3189 -0.0994
 6703W        W22512  11.908  15.530   5.203  0.2558 -0.2112 -0.0140
 6704W        W22513   9.597   3.828   2.382 -0.2466  0.0095 -0.1595
 6705W        W22514  14.304   6.425  13.534  0.0046  0.2901  0.1970
 6706W        W22515  14.118   8.049  10.582 -0.1041  0.1595 -0.0697
 6707W        W22516  13.612  15.626   5.528  0.1548 -0.1055  0.3834
 6708W        W22517  12.411  14.965   3.220 -0.0909 -0.0128 -0.0167
 6709W        W22518  11.977   4.541  13.121 -0.0594 -0.2775 -0.1567
 6710W        W22519   3.446  14.044   3.327 -0.3630  0.0807  0.2516
 6711W        W22520   4.677  12.772  11.775 -0.2669  0.3189  0.1942
 6712W        W22521  14.295   7.864   3.575  0.0554 -0.3469  0.0641
 6713W        W22522  14.918  13.610   2.727 -0.0268  0.1484  0.0546
 6714W        W22523  15.389  18.281  11.319  0.0906 -0.2103  0.3234
 6715W        W22524   4.320   1.875  15.166  0.0990 -0.2899 -0.1625
 6716W        W22525   4.658  10.333   0.394 -0.3851  0.0618  0.3571
 6717W        W22526  17.226  10.692  12.967  0.1567  0.0081 -0.0120
 6718W        W22527   0.213  16.984   0.080  0.3194  0.2390 -0.0442
 6719W        W22528   5.972   3.805   2.382 -0.1124 -0.3680  0.1001
 6720W        W22529   8.492  12.276  12.490  0.3927  0.1489  0.0666
 6721W        W22530  15.699  11.407   4.881  0.1443 -0.0396  0.0813
 6722W        W22531  14.027  10.992   0.903  0.1520  0.0034  0.2301
 6723W        W22532  10.731  13.768   6.110  0.0208  0.2695  0.0334
 6724W        W22533  14.373   7.762  10.969  0.2352  0.1811  0.0030
 6725W        W22534  18.168  18.442   3.409  0.6098 -0.3250 -0.0021
 6726W        W22535  11.745  14.211   0.320  0.1198 -0.0845  0.2884
 6727W        W22536   8.359   2.217   2.196 -0.0268 -0.0095 -0.3294
 6728W        W22537  18.527  10.802   0.819  0.3179  0.1744 -0.3433
 6729W        W22538   0.632  17.069   0.952  0.1172 -0.0299  0.2456
 6730W        W22539   5.540   3.042   3.943 -0.1638 -0.0751 -0.0857
 6731W        W22540  11.494   1.630   3.744  0.1879  0.2220 -0.0993
 6732W        W22541  10.048  13.382   3.466 -0.1248  0.0670  0.0411
 6733W        W22542   2.066  12.306   1.503  0.1003  0.0741  0.0489
 6734W        W22543   9.980   1.082  12.238  0.2899 -0.1218  0.2862
 6735W        W22544   7.029  13.299  12.501  0.1441  0.2364  0.2626
 6736W        W22545  11.766   1.490   2.538 -0.3213 -0.4048 -0.1513
 6737W        W22546   4.892   0.130  14.042 -0.0310  0.0420 -0.0922
 6738W        W22547   6.163  18.109   1.635  0.0562 -0.2584  0.0571
 6739W        W22548  13.606   7.073   1.138  0.1457  0.0816 -0.1003
 6740W        W22549  10.075  15.608   3.867  0.1688 -0.1211  0.0850
 6741W        W22550   0.128  17.814  14.993  0.2064  0.1000 -0.2524
 6742W        W22551   3.453   6.734   2.626  0.0673  0.1087  0.0652
 6743W        W22552  15.877   3.167   0.238  0.0228 -0.0774 -0.3140
 6744W        W22553  12.064   0.930   0.583  0.0791 -0.0031  0.1213
 6745W        W22554  11.562  12.597   2.873  0.3098  0.1174  0.3179
 6746W        W22555   1.496  19.025  13.091  0.2555  0.0057  0.3579
 6747W        W22556  15.727  18.252  14.364  0.0448 -0.0255  0.1252
 6748W        W22557  15.324  15.382   3.285 -0.4478 -0.0214 -0.1233
 6749W        W22558   3.524  17.137   3.302  0.0312 -0.4512  0.2148
 6750W        W22559  10.034   9.619  12.673 -0.2021  0.1202  0.1716
 6751W        W22560  14.516  14.924   3.710  0.1289  0.1866  0.2909
 6752W        W22561   9.316   1.807  11.659 -0.1252 -0.1647 -0.0838
 6753W        W22562   3.951  17.111   2.885  0.0065 -0.1772  0.0242
 6754W        W22563   2.176  11.052   1.604  0.0665 -0.1748  0.0800
 6755W        W22564  14.947   8.824  15.016  0.0722  0.2888 -0.1922
 6756W        W22565   7.505  13.852   0.130 -0.0915  0.3578  0.2154
 6757W        W22566  11.122   9.439   1.018  0.0783 -0.1672 -0.0398
 6758W        W22567  13.511   1.181   1.758  0.2275 -0.0341  0.1231
 6759W        W22568  10.571   4.181  13.868  0.0945  0.1345 -0.4355
 6760W        W22569   9.374   7.242  15.001  0.0930 -0.1661 -0.1207
 6761W        W22570  11.635   8.298  13.976 -0.0595 -0.1145  0.0297
 6762W        W22571   5.801  12.080   1.627  0.2167 -0.1319  0.3541
 6763W        W22572  15.783  17.851  14.833  0.4122  0.0408 -0.0047
 6764W        W22573   3.921  13.103   0.456  0.0912 -0.4085 -0.0335
 6765W        W22574  12.592  16.496   0.820 -0.0266  0.2122  0.3733
 6766W        W22575  11.057  19.102   5.460  0.2419  0.0675  0.1527
 6767W        W22576   1.375   9.062  11.656 -0.3043 -0.3777  0.2573
 6768W        W22577   9.545   5.550  10.359  0.0374 -0.1059 -0.1951
 6769W        W22578  12.627  10.159   3.120  0.1073  0.2397  0.0369
 6770W        W22579  12.407   7.259   9.997  0.1384  0.1692  0.5678
 6771W        W22580  14.966  18.582   1.864 -0.0395  0.1428 -0.3369
 6772W        W22581  18.534  13.858   4.819  0.0431  0.2959  0.0668
 6773W        W22582  14.155   3.514   0.825 -0.4278  0.2373  0.1393
 6774W        W22583  19.024   2.873   3.696 -0.0657  0.4041 -0.1320
 6775W        W22584  14.398   5.105   3.113 -0.2922 -0.2789 -0.3552
 6776W        W22585   6.445   6.207   0.841 -0.3665  0.1568  0.1433
 6777W        W22586   1.964   1.861   4.095  0.0269 -0.2958 -0.3481
 6778W        W22587  16.777   0.239   2.887 -0.3671  0.0646 -0.1481
 6779W        W22588   6.968   5.014  15.188 -0.5682  0.0656  0.2822
 6780W        W22589   1.341  13.323  13.212 -0.0906 -0.0740  0.0643
 6781W        W22590   1.394   8.706   3.404  0.1553 -0.2320  0.1554
 6782W        W22591   8.647   9.241   3.826  0.2078 -0.0204  0.0978
 6783W        W22592   9.377   6.393   4.259 -0.1449 -0.1627  0.0338
 6784W        W22593  10.279  19.151   3.013 -0.1022  0.1670  0.0549
 6785W        W22594   8.094  13.360   0.612 -0.1466 -0.4445 -0.4798
 6786W        W22595  17.850  18.640   5.241 -0.0732 -0.1156 -0.0622
 6787W        W22596  11.777  15.740  12.445  0.1983  0.1258  0.1073
 6788W        W22597  18.431  10.566  14.723 -0.0045  0.0358 -0.3342
 6789W        W22598   8.506   1.099  11.820 -0.1692  0.0593  0.0449
 6790W        W22599  11.210  16.271   2.701 -0.0021  0.0563  0.1627
 6791W        W22600   1.257  16.961   3.101 -0.0942  0.1066  0.0432
 6792W        W22601   0.621  18.902   2.160 -0.0300 -0.0725  0.2683
 6793W        W22602  14.828  12.761  11.859 -0.1037 -0.3632  0.0338
 6794W        W22603  16.523  11.504  11.645  0.0517 -0.3439 -0.3392
 6795W        W22604  10.939  12.883  11.291  0.2355  0.1768  0.0617
 6796W        W22605   6.917  18.156  12.419 -0.1168  0.0965  0.1445
 6797W        W22606  14.183   2.946  14.682 -0.0391  0.1613 -0.1090
 6798W        W22607   2.303  11.466   1.331 -0.1213  0.2634  0.1740
 6799W        W22608   3.678   3.187  14.670  0.0836 -0.2027  0.0687
 6800W        W22609   4.586  17.685   2.572  0.3779 -0.1886 -0.1113
 6801W        W22610   3.682   1.926   1.134  0.0350 -0.0528  0.0483
 6802W        W22611  11.132   8.771  14.059  0.0459  0.2596  0.0050
 6803W        W22612  13.088  17.426   4.396 -0.0936  0.1707 -0.0681
 6804W        W22613  11.789   2.683  12.680  0.1046 -0.1610 -0.2145
 6805W        W22614  13.063   9.495  12.210  0.0124 -0.0272  0.1443
 6806W        W22615  14.699  17.818  14.216 -0.1474 -0.1897  0.0145
 6807W        W22616  10.458   7.770   4.289 -0.5488  0.0998 -0.4024
 6808W        W22617  13.733   0.866   4.302  0.1492  0.0599 -0.3427
 6809W        W22618   8.781   9.920   3.050  0.0652 -0.2346  0.2262
 6810W        W22619  15.609   4.026   4.606  0.1915  0.1146  0.1253
 6811W        W22620   9.453   7.007  10.028  0.3283  0.0118 -0.2185
 6812W        W22621  13.717  18.722  13.252  0.1987  0.0341 -0.1028
 6813W        W22622  12.836   4.675   3.061  0.2354 -0.0818 -0.2651
 6814W        W22623  19.026  10.473  11.276 -0.2054 -0.1942 -0.0124
 6815W        W22624   8.649  14.183   2.469 -0.1701  0.0655  0.4694
 6816W        W22625   0.821  15.578   3.938 -0.3044 -0.2935 -0.0450
 6817W        W22626  14.764   6.119   2.625 -0.1819 -0.1381  0.0070
 6818W        W22627   2.316  16.823   4.222  0.4102  0.3574  0.0608
 6819W        W22628  12.983   5.558   9.822  0.0763 -0.0806 -0.3068
 6820W        W22629  18.623  10.005  10.532  0.3037 -0.2532 -0.1105
 6821W        W22630  10.286  12.667  14.838  0.0094 -0.5523 -0.0501
 6822W        W22631   6.291   7.678   0.610 -0.1332 -0.1233  0.0146
 6823W        W22632   3.260   5.912   3.219  0.1535 -0.2433 -0.0228
 6824W        W22633  12.941  14.065  10.713  0.2634  0.0946 -0.3566
 6825W        W22634  12.844   1.271   1.076  0.0791  0.1361  0.2207
 6826W        W22635  17.530  13.822   0.189  0.2097 -0.2373  0.1954
 6827W        W22636   2.518  17.417  10.359 -0.2868 -0.1268 -0.1927
 6828W        W22637   1.045   5.229  12.878  0.1764 -0.1430 -0.0424
 6829W        W22638  13.958  13.453  13.909 -0.3831  0.2443 -0.0921
 6830W        W22639  14.245  10.091  11.867  0.0194  0.0809  0.0595
 6831W        W22640   3.602   8.784   3.673  0.4088  0.0232 -0.0029
 6832W        W22641   0.982  18.168   3.954 -0.1982 -0.0915 -0.0902
 6833W        W22642  11.070  10.137   1.204  0.1295  0.2612  0.3920
 6834W        W22643   4.168   8.558   9.476 -0.2744  0.2331  0.1324
 6835W        W22644  16.094   4.301   0.844  0.2161  0.0406  0.0630
 6836W        W22645  17.314   7.420  14.510 -0.1162  0.1727 -0.1292
 6837W        W22646   8.677  15.987  11.400 -0.0826  0.1607  0.0994
 6838W        W22647   2.115  13.566  14.869  0.1395 -0.0194 -0.1402
 6839W        W22648   7.256  10.748  14.160  0.3690  0.0167  0.2084
 6840W        W22649   7.922  18.453   0.807 -0.0804 -0.0143  0.0971
 6841W        W22650   1.266  11.937   3.592  0.0599 -0.0984  0.1141
 6842W        W22651  14.992   1.012   1.792 -0.0275  0.1332 -0.0407
 6843W        W22652   7.119  18.754   4.616  0.1002  0.4025  0.0127
 6844W        W22653   6.875   3.067   3.806 -0.1935  0.1242 -0.1250
 6845W        W22654   7.128  13.097  11.502  0.1469  0.0131 -0.3375
 6846W        W22655  15.918  11.399  14.695 -0.3337 -0.2031  0.4257
 6847W        W22656   7.811   8.136   2.784  0.1484 -0.2770  0.1442
 6848W        W22657  11.404   5.352  12.071  0.2883 -0.4366  0.0740
 6849W        W22658   7.635   6.216   0.592  0.0202  0.1181  0.0901
 6850W        W22659   2.037  16.352  12.085  0.1953 -0.0565 -0.2644
 6851W        W22660   3.719  10.287   5.591 -0.1861  0.4466  0.1983
 6852W        W22661  11.395  18.706   4.052 -0.1231  0.0931  0.0071
 6853W        W22662   5.668  18.626  14.942 -0.0651  0.0886 -0.1727
 6854W        W22663  10.579   9.752   2.543 -0.0969 -0.0909  0.0994
 6855W        W22664  10.001   7.531  14.247  0.0989  0.1070 -0.3072
 6856W        W22665   6.851  18.288  14.926  0.2336 -0.1382 -0.1486
 6857W        W22666   6.623  17.810  14.500  0.2515  0.0257  0.1846
 6858W        W22667  18.618  11.799   1.928  0.0401 -0.1188  0.1438
 6859W        W22668   3.942   5.967  12.593 -0.0406 -0.1864  0.3026
 6860W        W22669  16.592   6.114   1.440  0.0083  0.0503 -0.1067
 6861W        W22670  18.975   2.048   4.467 -0.3864 -0.1269  0.2597
 6862W        W22671  19.107   2.151   2.873  0.0816 -0.1927 -0.0044
 6863W        W22672   3.656   6.066   2.628  0.1742 -0.2412  0.0446
 6864W        W22673  11.804  13.223   5.652  0.0191  0.1034 -0.2667
 6865W        W22674  17.766  10.587   4.583 -0.1402  0.0460  0.2372
 6866W        W22675   0.318  16.560   2.477  0.1674 -0.0877  0.0094
 6867W        W22676   9.004  15.978  12.261 -0.1799 -0.1640  0.0975
 6868W        W22677   7.923   1.935  13.435 -0.1060 -0.3132 -0.1109
 6869W        W22678  14.241   9.630   3.925  0.1204  0.0169  0.3491
 6870W        W22679  12.352   2.991  14.230  0.0200 -0.0578 -0.0634
 6871W        W22680   5.642   2.275  12.466 -0.0494 -0.0133 -0.0931
 6872W        W22681  14.562   1.851   2.158  0.1917  0.3692  0.4252
 6873W        W22682  11.022  10.345  12.238 -0.0070 -0.1236 -0.1977
 6874W        W22683   5.408   1.471   4.076 -0.1077 -0.3175 -0.0535
 6875W        W22684   1.556  10.877   2.314 -0.0516 -0.4774  0.0596
 6876W        W22685  10.839  10.613   2.879  0.2682  0.0242 -0.0666
 6877W        W22686   4.431  19.011   2.590 -0.2326 -0.4875 -0.0850
 6878W        W22687  12.645   6.779  12.139  0.0874 -0.2714 -0.0958
 6879W        W22688  18.691   4.416  11.718 -0.2468 -0.2887 -0.1930
 6880W        W22689  15.346   9.762  13.478  0.0039  0.1604  0.3457
 6881W        W22690   5.174   6.386   3.994  0.1261 -0.0810  0.1029
 6882W        W22691   4.655   8.310  13.439  0.0324  0.0755 -0.0785
 6883W        W22692  10.180  12.690  12.376  0.2414 -0.1524  0.2597
 6884W        W22693   0.381   9.648  11.458 -0.0897 -0.0071 -0.2703
 6885W        W22694   0.904  10.140   5.028 -0.2204  0.1336 -0.3327
 6886W        W22695  12.073  15.272  13.973 -0.4028  0.0128  0.3238
 6887W        W22696  18.731   8.656   4.138 -0.1305 -0.1259  0.1916
 6888W        W22697  13.917  11.526   4.265 -0.1872  0.2602  0.0495
 6889W        W22698   1.313   9.790   2.479 -0.0126 -0.4420 -0.1564
 6890W        W22699  17.446  18.615  14.511 -0.1438  0.3031 -0.0095
 6891W        W22700   2.223  18.583  14.763  0.0365  0.1569 -0.0723
 6892W        W22701   9.525   3.010   5.492 -0.1353 -0.0166 -0.0027
 6893W        W22702   4.202  13.145   4.363  0.3236 -0.3444  0.1042
 6894W        W22703  13.281   8.243   3.079  0.2420 -0.0942  0.2339
 6895W        W22704   1.144   0.447  14.092  0.2901  0.0816  0.2769
 6896W        W22705   6.991   0.454   3.997 -0.1271  0.0475 -0.1643
 6897W        W22706   6.110   3.197  12.367 -0.2006  0.2844  0.1084
 6898W        W22707  15.239  13.684   4.913  0.4087  0.0305 -0.2113
 6899W        W22708   9.358   2.066  13.154  0.2857  0.1952 -0.1360
 6900W        W22709  12.056  11.971  10.425  0.3091  0.0861 -0.2253
 6901W        W22710  12.149   4.664   0.072  0.0219 -0.0137  0.2834
 6902W        W22711  18.570   6.252   0.308 -0.1886 -0.3293  0.0535
 6903W        W22712   3.731   4.197  13.561 -0.0043 -0.0664 -0.2549
 6904W        W22713  11.707   5.473   5.103  0.0705  0.2991 -0.2232
 6905W        W22714  10.536   5.350   1.540 -0.0987  0.2212  0.3172
 6906W        W22715   4.739  10.291   3.978 -0.4068 -0.1863 -0.3709
 6907W        W22716   5.762   1.553   3.571 -0.2565  0.0042 -0.2905
 6908W        W22717   7.095   3.238   2.555 -0.1961  0.5878 -0.0471
 6909W        W22718  18.903  15.514  13.678 -0.1330  0.0837 -0.0969
 6910W        W22719  13.284   4.712   2.080 -0.0490  0.0485  0.2371
 6911W        W22720  17.371   9.919   0.020  0.1277 -0.0358  0.0575
 6912W        W22721  13.247   9.975  11.477 -0.0025 -0.1576 -0.1089
 6913W        W22722  16.158  12.577   1.090 -0.1813 -0.1474  0.0669
 6914W        W22723   4.643   5.303   4.712  0.1161 -0.2253 -0.0804
 6915W        W22724   4.408   0.460   4.029 -0.0675  0.0963  0.1063
 6916W        W22725   3.160   4.448   1.307  0.0311  0.4827 -0.1199
 6917W        W22726   4.652   0.903   1.313  0.0216 -0.2221  0.0160
 6918W        W22727   4.318   4.096  12.187 -0.0521  0.1962 -0.1050
 6919W        W22728   7.467  16.271   3.288 -0.1573  0.2157 -0.0494
 6920W        W22729   0.666   5.264   2.642 -0.2988 -0.0935  0.3664
 6921W        W22730  12.619  10.306   0.288 -0.1402 -0.2819 -0.0466
 6922W        W22731   4.843  15.649  10.409  0.2413 -0.0947  0.0759
 6923W        W22732  11.825   2.713   0.616 -0.1003  0.1242  0.2005
 6924W        W22733   5.078   9.547  13.869 -0.1381 -0.2750 -0.1560
 6925W        W22734   3.742  14.610  12.223  0.1677  0.1070  0.1322
 6926W        W22735  15.479   9.130  12.103  0.1025  0.3117 -0.3853
 6927W        W22736   9.464   5.830   2.684 -0.3859 -0.1247 -0.0230
 6928W        W22737   9.515   5.652  15.117 -0.0202 -0.2636 -0.0261
 6929W        W22738  18.346   9.142  14.094  0.1159 -0.3844  0.1062
 6930W        W22739   7.597  17.769   0.200 -0.5318 -0.0546  0.0567
 6931W        W22740  17.203   8.530   0.434 -0.2304  0.3134 -0.0684
 6932W        W22741   8.753   7.483   5.222 -0.0014 -0.1304 -0.1624
 6933W        W22742  16.884   2.176  10.871 -0.3811 -0.3470 -0.1980
 6934W        W22743  14.461  13.424  11.712 -0.1449  0.1138 -0.2067
 6935W        W22744   9.110  10.807  11.415 -0.3293 -0.0120  0.0733
 6936W        W22745   5.843   6.965   2.499 -0.0126 -0.3625 -0.1148
 6937W        W22746  18.095   4.040  10.807 -0.0000 -0.0545 -0.4546
 6938W        W22747   5.259  17.066  12.455 -0.2949  0.1459  0.0884
 6939W        W22748  10.777   6.453   0.252 -0.0719 -0.0810  0.0554
 6940W        W22749  12.666   8.361   3.199  0.0134  0.1253 -0.1243
 6941W        W22750   8.233  14.792  13.518 -0.3222  0.2691  0.0218
 6942W        W22751  11.296   1.511   1.981  0.0499  0.0270 -0.1663
 6943W        W22752   0.115  17.654   4.128 -0.4901  0.2875 -0.0805
 6944W        W22753  13.545   5.892  11.623  0.2458 -0.4007 -0.2702
 6945W        W22754  17.663  18.299  11.683  0.0041  0.2508  0.0843
 6946W        W22755  17.000   5.922  11.773 -0.0032  0.2199 -0.0500
 6947W        W22756  12.154   5.637  10.561 -0.2487  0.0193 -0.0123
 6948W        W22757   5.441   9.940  12.550 -0.0476  0.5803  0.0026
 6949W        W22758  12.422   6.544   2.820  0.1468  0.1357 -0.0323
 6950W        W22759  12.645  14.242  14.271 -0.5249 -0.1156 -0.1113
 6951W        W22760   3.484  12.678   4.085 -0.2680 -0.0863  0.4856
 6952W        W22761   1.373   0.608   4.797  0.1319 -0.2612 -0.3954
 6953W        W22762   8.273   8.093   1.941  0.0403 -0.0007 -0.0839
 6954W        W22763  13.583   4.417   4.753  0.0159  0.2456  0.0799
 6955W        W22764   9.975  14.170   4.471  0.2242  0.1029 -0.1876
 6956W        W22765   0.947   6.784   5.302  0.4088 -0.4733 -0.1097
 6957W        W22766   4.827  18.756   0.940  0.1320  0.1837 -0.2636
 6958W        W22767  12.864  14.534  11.048 -0.0395 -0.2018  0.1520
 6959W        W22768   0.302  12.586  11.767 -0.0538 -0.0479  0.0292
 6960W        W22769   9.402  18.277  12.177 -0.0631  0.2704 -0.2857
 6961W        W22770  11.859  10.221  12.302  0.1404 -0.3635 -0.1702
 6962W        W22771  15.618  10.251  11.364  0.2044 -0.2057  0.2740
 6963W        W22772  16.121  14.912  14.758  0.1752 -0.2618  0.1979
 6964W        W22773   3.355  18.040  14.766  0.3731 -0.2662  0.2149
 6965W        W22774   9.546   2.894  14.099  0.1189 -0.0942 -0.0264
 6966W        W22775   9.295  14.979   5.598 -0.1761  0.1639  0.1378
 6967W        W22776  13.641   7.433  13.422  0.1702 -0.1294 -0.1905
 6968W        W22777  18.049   9.088   4.464  0.0145  0.3084  0.1245
 6969W        W22778   0.789   7.356  14.617 -0.1469 -0.1993 -0.3049
 6970W        W22779   1.257   8.929   2.938 -0.2612 -0.0086 -0.0145
 6971W        W22780   2.637   3.368   5.138  0.1389 -0.3452 -0.1925
 6972W        W22781  12.152   7.133  11.491 -0.1554  0.0299 -0.2910
 6973W        W22782  17.587  11.084   0.967  0.1138  0.2283 -0.1122
 6974W        W22783   9.109  18.157  13.651  0.0955  0.1047  0.1699
 6975W        W22784   0.685  16.357   3.131  0.3588 -0.4428 -0.0711
 6976W        W22785   3.440  12.358   3.279  0.0157 -0.1749 -0.0511
 6977W        W22786  18.122  14.839  12.711  0.2659 -0.0174 -0.3202
 6978W        W22787   6.408   4.041  13.146 -0.0420 -0.1730  0.1898
 6979W        W22788   3.479  13.408   0.365 -0.0078 -0.0820  0.3028
 6980W        W22789  16.955   0.470   0.515 -0.0294  0.0641  0.0867
 6981W        W22790   4.267  17.050  11.688  0.2707  0.2117 -0.0754
 6982W        W22791   0.136  13.596   4.212  0.3859  0.0757  0.1800
 6983W        W22792   9.274  18.635   0.182  0.2556  0.1927 -0.0403
 6984W        W22793  18.129  11.579  11.468  0.2686 -0.0238  0.0882
 6985W        W22794   8.951  17.762   0.129 -0.0832  0.1594 -0.2770
 6986W        W22795  11.728   8.534   5.508  0.2857 -0.0422 -0.3047
 6987W        W22796  15.352  10.486  13.003 -0.0462 -0.3521  0.1375
 6988W        W22797  12.521   9.325  13.171 -0.0535 -0.0518  0.1023
 6989W        W22798   8.562   1.374  11.401 -0.2126 -0.0979  0.1194
 6990W        W22799  14.977  17.409  14.393  0.2470 -0.0244 -0.2019
 6991W        W22800  15.150  17.515   5.276  0.2818  0.0817 -0.3102
 6992W        W22801  11.150  18.263   4.251  0.0145  0.3016  0.3301
 6993W        W22802  16.128  10.270  14.046  0.0607 -0.0999  0.2045
 6994W        W22803   9.353  16.019   3.323  0.0036  0.1620 -0.0096
 6995W        W22804   5.466  12.805   1.010  0.0456  0.0201 -0.0715
 6996W        W22805  11.563   4.591   1.227  0.0061  0.1507  0.3416
 6997W        W22806   9.409  18.995  13.720 -0.0447 -0.1660  0.0276
 6998W        W22807  10.351   8.036   1.988 -0.1177 -0.2180  0.0269
 6999W        W22808   6.378   0.815   0.889  0.1094 -0.2802 -0.1036
 7000W        W22809   9.954   9.745  10.856 -0.0552 -0.3549 -0.0902
 7001W        W22810   4.447  17.909  15.183 -0.0649  0.3960  0.0944
 7002W        W22811   6.745   4.764  14.787  0.2584  0.3463  0.0531
 7003W        W22812   3.529  12.827  13.193 -0.1291  0.2761  0.2354
 7004W        W22813   4.355   1.295   1.609 -0.1624  0.1768 -0.1103
 7005W        W22814  11.677   7.434  11.894  0.1441 -0.0304  0.1671
 7006W        W22815   1.046   0.867  13.349  0.2997  0.0333  0.0991
 7007W        W22816   2.121   4.638  11.713  0.3329 -0.0858  0.3878
 7008W        W22817  16.553  18.435   1.160 -0.0028 -0.0472 -0.1181
 7009W        W22818  18.013   4.022  12.200 -0.3447  0.1655 -0.0352
 7010W        W22819   4.124  11.631   0.592 -0.0248  0.1508 -0.1348
 7011W        W22820  14.472  11.803   5.492  0.0112  0.3048  0.3130
 7012W        W22821   2.624  12.743  10.460  0.1072  0.0214 -0.1303
 7013W        W22822  13.631   7.256   4.952 -0.1514 -0.0052  0.4184
 7014W        W22823   1.959   9.768  12.568  0.3016  0.0339  0.1997
 7015W        W22824   0.971  13.127   1.804  0.0026 -0.0990  0.0902
 7016W        W22825  17.148   0.515  11.102 -0.0149 -0.0101  0.0272
 7017W        W22826  10.265   5.745   1.362  0.0395 -0.1978 -0.2122
 7018W        W22827  17.984   2.499  12.857  0.0443  0.0868  0.2669
 7019W        W22828   1.064   3.709   3.394  0.0434 -0.1443 -0.1537
 7020W        W22829   0.708   0.010   2.638  0.1444  0.0568 -0.0256
 7021W        W22830   1.831   0.071  10.377  0.1925  0.1245 -0.1843
 7022W        W22831   2.460   8.701   4.836  0.1711  0.1939 -0.1407
 7023W        W22832   5.907   6.995   5.471  0.1516  0.2866 -0.3307
 7024W        W22833  17.167   9.651  14.831 -0.3759  0.1738 -0.2895
 7025W        W22834   5.130   4.104   4.150 -0.0456 -0.3122  0.0681
 7026W        W22835   9.701  12.225   0.311  0.0365  0.1286 -0.1285
 7027W        W22836  15.454   8.359  14.524 -0.0693  0.1647 -0.1078
 7028W        W22837  14.802   0.665   3.747  0.2551 -0.1885 -0.0122
 7029W        W22838   6.876   0.816   3.609  0.0298  0.0537  0.1183
 7030W        W22839   1.831  10.802  10.239 -0.0124  0.0738 -0.1765
 7031W        W22840   3.420   7.682  10.966  0.1553  0.2701 -0.1456
 7032W        W22841  18.306  10.246   4.888 -0.4119  0.3825 -0.3147
 7033W        W22842   4.648  16.719  14.140 -0.0095  0.1127  0.1922
 7034W        W22843   4.277  19.140   3.528 -0.1107  0.4362 -0.1704
 7035W        W22844  10.819   1.435   2.635  0.1716  0.1339 -0.1029
 7036W        W22845  11.626   1.208   1.558 -0.2293  0.1050 -0.2812
 7037W        W22846  17.220  15.487   4.072  0.0700  0.2522 -0.1265
 7038W        W22847   5.622   1.666  11.856 -0.1425 -0.3343 -0.3177
 7039W        W22848  17.290  11.786  12.594 -0.0925 -0.0437 -0.0775
 7040W        W22849  16.747  12.421  10.922 -0.3571  0.1942  0.1402
 7041W        W22850  15.119   2.604   2.982 -0.2551 -0.3805 -0.2107
 7042W        W22851   3.680   8.162   2.025 -0.1962  0.0165  0.3662
 7043W        W22852  11.918  14.553   4.034 -0.2578 -0.0169  0.2628
 7044W        W22853  10.061   7.243  14.655  0.0556  0.1414 -0.1161
 7045W        W22854  17.595  10.704   1.901  0.1305 -0.1632 -0.1503
 7046W        W22855  10.820   7.988  13.739 -0.2233 -0.0918  0.3244
 7047W        W22856   6.124   7.157   0.730  0.0550  0.1672 -0.1811
 7048W        W22857  10.668  10.202   5.531  0.0802 -0.1838 -0.0020
 7049W        W22858  14.492  10.389   5.138  0.0801  0.0031 -0.2395
 7050W        W22859  13.859  17.721  12.906  0.2129  0.3268  0.1398
 7051W        W22860   3.379   3.740   0.330  0.2405 -0.5469 -0.1408
 7052W        W22861   1.979  10.593  14.462  0.1494 -0.1459  0.4008
 7053W        W22862  10.110   2.798  13.923 -0.0448 -0.0695  0.1389
 7054W        W22863  14.217   1.222   0.161 -0.0039  0.0533 -0.0558
 7055W        W22864  11.767   5.927   4.226 -0.0543 -0.2414 -0.0082
 7056W        W22865   9.293  13.597  13.990  0.1849  0.0342 -0.1032
 7057W        W22866  16.181   0.861  15.189 -0.2899  0.1868  0.0862
 7058W        W22867  10.329  16.103   3.429  0.2248 -0.0530  0.2425
 7059W        W22868   1.347   6.605   4.246  0.3158  0.1671 -0.1144
 7060W        W22869   7.371  12.542  12.569  0.1826 -0.1444  0.2659
 7061W        W22870  13.578   1.436   3.201  0.0707  0.0446  0.0734
 7062W        W22871   9.318  18.035  11.325 -0.0042 -0.0094 -0.0135
 7063W        W22872   5.368   5.912   3.279  0.0006 -0.0335  0.3627
 7064W        W22873  15.341  11.235   5.216 -0.1570 -0.0565  0.5257
 7065W        W22874  10.465   7.756   9.259  0.1675 -0.0395 -0.0251
 7066W        W22875   2.384   7.034  14.075 -0.1994 -0.0434 -0.0610
 7067W        W22876  11.659   1.113   5.071 -0.2453  0.1070  0.0267
 7068W        W22877   7.459   5.771   0.362  0.2898 -0.0239  0.0760
 7069W        W22878  12.907   6.840  11.708  0.1663  0.1211 -0.0653
 7070W        W22879  17.187  18.287  14.861  0.1355  0.2812  0.1551
 7071W        W22880   6.028  18.697  12.416  0.1409  0.1543  0.2572
 7072W        W22881   1.879  18.092   3.272  0.1476  0.0440 -0.0647
 7073W        W22882   8.817  18.752  14.723  0.1418  0.2398 -0.1046
 7074W        W22883  11.264  16.989   4.415 -0.0078  0.0634  0.1383
 7075W        W22884   9.464  18.077   1.350 -0.2319  0.5482  0.2178
 7076W        W22885  16.895  17.901   4.905  0.2115 -0.1644 -0.1829
 7077W        W22886   8.828  14.261  10.729 -0.0031  0.1488 -0.3228
 7078W        W22887   8.118   2.383   1.182  0.0900  0.1950  0.2601
 7079W        W22888  15.705   9.804   5.508 -0.0173  0.0326  0.1096
 7080W        W22889   3.240  14.508  10.529  0.0409 -0.0628  0.0759
 7081W        W22890  16.890   0.327   3.956 -0.0926  0.1624  0.3300
 7082W        W22891   6.108  12.508  14.534 -0.0333 -0.0406 -0.1739
 7083W        W22892  16.355  17.334   0.255 -0.3284 -0.1648 -0.0944
 7084W        W22893   1.927  19.110   4.879 -0.0276  0.1255 -0.0011
 7085W        W22894  11.629   7.829  13.170 -0.0296 -0.1161 -0.1078
 7086W        W22895  11.634  10.491  15.047 -0.0499 -0.0233  0.0368
 7087W        W22896   1.650  12.386   1.751 -0.0285 -0.4377  0.1369
 7088W        W22897  16.071   9.285  14.614  0.1826 -0.0856 -0.1965
 7089W        W22898  16.330  12.702  13.712 -0.2387  0.1958 -0.2635
 7090W        W22899  18.977   0.828  12.190  0.4021  0.4122 -0.2895
 7091W        W22900  12.822   4.623   4.381  0.1646  0.1966  0.3354
 7092W        W22901   0.815   2.681  13.147 -0.1687  0.0746 -0.1683
 7093W        W22902   6.329   6.049   1.519  0.0510 -0.2680  0.0898
 7094W        W22903  10.833   5.512  11.115  0.0276  0.1212 -0.2385
 7095W        W22904   0.580   8.666  11.856 -0.0815  0.0807  0.2487
 7096W        W22905   5.818   7.768   2.855 -0.0429 -0.0372  0.0605
 7097W        W22906  11.605   9.642   0.205 -0.1941  0.1342  0.1882
 7098W        W22907  15.801  10.748  13.048  0.1613  0.0821 -0.2562
 7099W        W22908   3.429   1.985  13.410 -0.0460  0.3977 -0.0711
 7100W        W22909  13.624   4.059  11.005 -0.1625  0.2655 -0.0734
 7101W        W22910   7.245   2.539   5.060 -0.1797 -0.4007 -0.2828
 7102W        W22911   4.109   5.698  10.946 -0.0659 -0.0276  0.1462
 7103W        W22912   1.192  10.566  11.316  0.0355 -0.2745 -0.2727
 7104W        W22913  17.038   1.916   0.597 -0.1013 -0.0852  0.2444
 7105W        W22914   6.781   5.325   3.212 -0.1443  0.2579  0.4531
 7106W        W22915  18.277   2.793   6.340 -0.0943  0.0971  0.0103
 7107W        W22916   6.642   4.379   3.384 -0.0243  0.1694 -0.0308
 7108W        W22917  16.958  16.677   0.933  0.1127  0.0349 -0.0763
 7109W        W22918  18.219  11.805   2.610 -0.0463 -0.0259  0.0700
 7110W        W22919  14.692  15.169  10.475 -0.0205  0.0440 -0.0209
 7111W        W22920  19.136  12.348  12.517  0.4089 -0.4283  0.1462
 7112W        W22921  17.766   6.874   4.099  0.0948  0.2586 -0.1084
 7113W        W22922  12.811   6.131   2.659 -0.1189  0.2432  0.0423
 7114W        W22923  18.961  16.917  11.665 -0.1352 -0.0357 -0.1890
 7115W        W22924  15.241  17.193  14.739 -0.2260 -0.1021 -0.1181
 7116W        W22925  16.602   5.459   5.350  0.1703 -0.1674 -0.0989
 7117W        W22926   1.336   3.372  11.760 -0.0522  0.2344  0.1813
 7118W        W22927  15.181  14.626   0.551  0.1770  0.2234 -0.0482
 7119W        W22928  10.640  15.124  14.774 -0.0072 -0.0022  0.1370
 7120W        W22929  19.045   8.789   5.325  0.1732  0.0759 -0.3946
 7121W        W22930  12.906   2.653   1.952  0.2220 -0.1639 -0.3355
 7122W        W22931   3.784   3.248   2.625  0.0585  0.4590 -0.1270
 7123W        W22932   5.084   3.354   4.016 -0.0940  0.1626 -0.5605
 7124W        W22933  18.285  17.008  12.533 -0.1972  0.2517  0.0496
 7125W        W22934  12.997  13.893  12.402  0.3169  0.0971 -0.1159
 7126W        W22935   5.314   8.378  11.949  0.1352  0.3741  0.3571
 7127W        W22936   9.932   6.677  14.520 -0.1854  0.0332  0.0943
 7128W        W22937  11.276  19.101  13.913 -0.2374 -0.1906  0.1317
 7129W        W22938   0.924  15.602  12.133  0.1494 -0.2688 -0.0569
 7130W        W22939   3.466   4.867   1.181  0.4275  0.0415 -0.1724
 7131W        W22940   0.318   9.759  10.863 -0.0200  0.0557 -0.2632
 7132W        W22941  14.787   0.014   5.850  0.0218  0.0439  0.0739
 7133W        W22942   6.340  14.915  13.657  0.0176 -0.0543 -0.1526
 7134W        W22943  15.171   8.776  13.824 -0.0443  0.0676 -0.2150
 7135W        W22944  17.544   9.161   0.483  0.1277 -0.2051 -0.1790
 7136W        W22945   0.341   6.903  10.914 -0.0005  0.0391 -0.0653
 7137W        W22946  17.623  12.820   0.964 -0.0600 -0.2984  0.0268
 7138W        W22947   3.566   4.838   0.468  0.2551 -0.0458 -0.1571
 7139W        W22948   1.879   6.588   0.080 -0.2639  0.0619  0.1120
 7140W        W22949   8.226   5.542   0.038  0.2256 -0.2954 -0.1546
 7141W        W22950  19.104   5.143  11.112  0.0071 -0.1912 -0.0314
 7142W        W22951   0.484   4.273  11.919  0.2395 -0.2478  0.6257
 7143W        W22952   4.110   7.474  12.209  0.1929 -0.3966  0.4996
 7144W        W22953   8.624  13.829   4.493  0.0623  0.2559  0.1966
 7145W        W22954   6.164  10.198   2.882  0.1022  0.1463  0.1905
 7146W        W22955   3.621  11.430   3.474 -0.0346  0.0871  0.0491
 7147W        W22956   7.143  16.530   9.182  0.0751 -0.1721  0.0781
 7148W        W22957  11.715  14.648  13.374 -0.1313 -0.0101  0.1505
 7149W        W22958  18.599   6.530   3.041 -0.0293  0.2925 -0.2385
 7150W        W22959   0.209  10.155  10.217 -0.2955 -0.2077 -0.0340
 7151W        W22960   8.120  16.397   9.587 -0.2202  0.0131  0.0278
 7152W        W22961   3.551  12.879  14.609  0.0011  0.3106  0.3429
 7153W        W22962   0.637  13.499  11.895  0.1464 -0.0051 -0.0035
 7154W        W22963   5.280  14.737   4.354  0.0908  0.1246 -0.0051
 7155W        W22964  16.560  15.183  12.170  0.0639 -0.0745  0.1355
 7156W        W22965  12.842   4.768  11.638  0.1596  0.4068  0.3047
 7157W        W22966   9.930   0.485   5.364 -0.0437 -0.1465 -0.0416
 7158W        W22967   8.260   6.203  10.760  0.1960 -0.1661  0.2017
 7159W        W22968  17.705  12.345  12.018 -0.2064  0.1389 -0.1608
 7160W        W22969  18.646   8.483  13.092 -0.0630 -0.0653  0.0357
 7161W        W22970   0.848   8.339  11.250 -0.1446 -0.3415  0.4881
 7162W        W22971  16.109   2.749   0.512  0.1759 -0.1805  0.0261
 7163W        W22972   7.726  16.871   2.217 -0.4048 -0.1266 -0.2193
 7164W        W22973   1.742  12.384  10.754 -0.2754  0.1267 -0.0926
 7165W        W22974  15.973   5.317   1.611  0.3710  0.3654 -0.0830
 7166W        W22975  11.617   0.225  11.394  0.2968  0.0845 -0.2021
 7167W        W22976   5.194   7.066   1.781  0.1567 -0.1736  0.0119
 7168W        W22977  17.925   1.914   1.765  0.0066  0.0576  0.0745
 7169W        W22978  10.801   3.210   3.616 -0.1838  0.0387 -0.1121
 7170W        W22979  16.345   7.447   5.939  0.4844 -0.0611 -0.0070
 7171W        W22980  15.177  17.066   0.022 -0.1887 -0.0747  0.1348
 7172W        W22981   1.146  16.409  14.821  0.4030 -0.1470 -0.2307
 7173W        W22982   6.587   0.807  12.883 -0.1437  0.0938 -0.1677
 7174W        W22983  14.988   9.734  12.679  0.0586 -0.0771  0.0383
 7175W        W22984   4.695  17.978  10.516  0.2190 -0.0732  0.2138
 7176W        W22985   8.230  10.205  12.698  0.2103 -0.2094  0.0932
 7177W        W22986   3.111  12.620   0.140 -0.1078 -0.0721 -0.2307
 7178W        W22987  10.943   9.881  13.343  0.2081  0.2651 -0.4316
 7179W        W22988  15.618   3.569   1.049  0.2436 -0.0561  0.0492
 7180W        W22989   8.936   7.069  14.755  0.1839 -0.1882 -0.0451
 7181W        W22990   1.524  16.590   0.459  0.2590 -0.0155 -0.1457
 7182W        W22991   1.147  11.434   1.065 -0.0426  0.2791  0.2037
 7183W        W22992   7.897  11.715  11.122  0.2077 -0.1092 -0.1072
 7184W        W22993   7.399  18.670   2.624  0.0252  0.0984 -0.1204
 7185W        W22994  13.843  17.884   2.164  0.1760 -0.1550 -0.1509
 7186W        W22995   6.740  11.327   5.907 -0.1674 -0.0126 -0.4323
 7187W        W22996   9.317   9.537  14.713  0.0571 -0.0558  0.3583
 7188W        W22997   6.477   8.437   2.619 -0.0126  0.0784 -0.1824
 7189W        W22998  18.679   7.032   3.455  0.2961 -0.6367  0.3171
 7190W        W22999   1.716  15.925   1.624  0.1674  0.0171 -0.0701
 7191W        W23000  13.584  18.486   1.543 -0.2764 -0.3361 -0.2197
 7192W        W23001  12.749   6.235  11.861  0.1170  0.0583  0.1729
 7193W        W23002  15.612  17.965   5.453  0.0601 -0.2949  0.0298
 7194W        W23003   0.869   4.269  12.186  0.0320 -0.1007 -0.0923
 7195W        W23004   2.938  14.328  14.034 -0.1468  0.1857 -0.0156
 7196W        W23005  11.472   2.555   0.368  0.0299 -0.1522  0.0828
 7197W        W23006  13.911   8.021  11.077 -0.0846 -0.0080  0.0683
 7198W        W23007  12.113  17.997   2.952  0.2605  0.0581  0.2442
 7199W        W23008   1.410   7.863  14.890 -0.2900 -0.0027 -0.0501
 7200W        W23009   9.324   3.254   5.052  0.0983  0.0512 -0.1297
 7201W        W23010   9.473   1.442   1.670 -0.1208  0.0807 -0.2027
 7202W        W23011   7.569   0.098   0.635  0.1206  0.0224 -0.0986
 7203W        W23012  18.815   9.671  12.039 -0.0938  0.2947  0.0787
 7204W        W23013  11.419   2.070   5.516  0.1523  0.0145 -0.0368
 7205W        W23014   5.350  13.831   3.738  0.0688  0.3410 -0.2030
 7206W        W23015   2.347  10.543   1.426 -0.1541  0.3223  0.3009
 7207W        W23016   0.763  11.101   1.036  0.1261  0.1012 -0.0364
 7208W        W23017   3.776   0.684  13.248  0.0629  0.0652 -0.4032
 7209W        W23018   2.637   2.447  14.513  0.0823  0.2173  0.0803
 7210W        W23019  13.045  17.330   5.101  0.3227 -0.1936 -0.0845
 7211W        W23020   9.976  17.774   1.241  0.0298  0.0653  0.1312
 7212W        W23021   5.971  13.411   4.513  0.2148  0.1851  0.0910
 7213W        W23022   8.873  15.273  12.360 -0.0387 -0.2066  0.1867
 7214W        W23023   8.548  10.269   3.355 -0.1255 -0.0319 -0.1196
 7215W        W23024  17.088  13.472   5.436 -0.1683 -0.2351 -0.1479
 7216W        W23025  13.325  16.581   0.508  0.1587  0.0442 -0.2420
 7217W        W23026  12.576  16.034  10.908 -0.0254  0.1351 -0.2126
 7218W        W23027   9.728   2.386  10.604  0.1243 -0.1004 -0.1010
 7219W        W23028  18.359  15.892   5.512  0.0131 -0.0903 -0.3758
 7220W        W23029  13.118   5.181  13.558  0.1817  0.0689  0.0831
 7221W        W23030  18.851  13.814  12.787 -0.0055 -0.1600 -0.3329
 7222W        W23031   2.547   3.022   2.883 -0.3595  0.0884  0.3094
 7223W        W23032   5.273   0.706  14.572 -0.2235 -0.0463  0.1645
 7224W        W23033  17.641  10.158  11.434  0.3461 -0.0558  0.5210
 7225W        W23034  12.055   6.051   0.558 -0.3353 -0.0664  0.1059
 7226W        W23035  15.298   0.961   2.461  0.0320  0.0078 -0.5269
 7227W        W23036  12.982   8.296   0.161 -0.0269  0.0121 -0.0458
 7228W        W23037   3.656  13.999   2.865 -0.2365 -0.0002 -0.0043
 7229W        W23038   2.437  11.237   1.992  0.2224  0.1354  0.1846
 7230W        W23039   6.971   5.266  14.508 -0.1158  0.1520  0.0883
 7231W        W23040   4.309  18.847   4.485 -0.2227  0.1426 -0.0522
 7232W        W23041   5.923   3.689  11.452 -0.0335 -0.0579 -0.0055
 7233W        W23042   3.063   4.047   2.495  0.0489  0.0350  0.3155
 7234W        W23043  10.499   6.072   0.388  0.4007  0.0687 -0.1118
 7235W        W23044  12.835   0.596  11.268 -0.2673  0.0166 -0.0152
 7236W        W23045  18.907  15.663   0.486  0.0689  0.1786 -0.2236
 7237W        W23046  15.722  18.018  12.332 -0.0911 -0.0838 -0.0008
 7238W        W23047   2.420   7.287   2.899  0.1249 -0.1618 -0.1210
 7239W        W23048  12.330   2.097  14.520 -0.1812  0.3248 -0.1671
 7240W        W23049  15.784   1.092   2.337  0.0708 -0.0475  0.0575
 7241W        W23050  13.037  17.265  14.289  0.1230  0.1801  0.0222
 7242W        W23051   4.497   9.471   0.128  0.1075  0.0643  0.1714
 7243W        W23052   1.567   8.073  11.427  0.1264  0.2187  0.4486
 7244W        W23053   8.149  16.739   3.573  0.0540 -0.0893 -0.1200
 7245W        W23054  14.652  18.883   2.172 -0.0365 -0.3142  0.1431
 7246W        W23055   8.566   3.178  13.913  0.1105 -0.0390  0.2127
 7247W        W23056   8.104  15.438  10.367  0.2388  0.3290 -0.4712
 7248W        W23057   5.784   3.958   1.875  0.1438  0.2624  0.1392
 7249W        W23058  17.978   2.209   4.509 -0.0930  0.2191 -0.0967
 7250W        W23059   6.592   4.220   4.828  0.0179  0.2463  0.3123
 7251W        W23060  10.535  12.557   1.365 -0.0285  0.0032  0.1364
 7252W        W23061  10.074  15.615   2.471  0.2926 -0.1345 -0.0731
 7253W        W23062   9.020  14.799  12.328 -0.0199  0.2149  0.1713
 7254W        W23063  18.188  10.790  13.986  0.1833 -0.1479 -0.0426
 7255W        W23064   8.194   6.456   0.459 -0.2780 -0.4283  0.2291
 7256W        W23065   8.575   0.034   5.417 -0.2034  0.0987 -0.1410
 7257W        W23066   9.259  19.020  14.722 -0.0201 -0.2059 -0.0325
 7258W        W23067  13.714  17.971  11.252 -0.1798  0.1677  0.2770
 7259W        W23068   1.418   6.240  12.899  0.2080  0.2000 -0.2650
 7260W        W23069   2.030   6.320   9.802 -0.4836 -0.0059  0.0393
 7261W        W23070   3.892  14.390   0.620  0.0520 -0.0213  0.3207
 7262W        W23071  16.350   7.515   3.363  0.1757 -0.0279 -0.2384
 7263W        W23072  16.541  12.956   0.585 -0.1696  0.1800 -0.1924
 7264W        W23073   1.266  12.320  10.881 -0.0426 -0.1072  0.1147
 7265W        W23074  13.927  17.562  11.000 -0.2728 -0.2479 -0.1109
 7266W        W23075  10.472   1.567   5.079  0.0205 -0.1794 -0.0834
 7267W        W23076   5.464   5.284   4.810 -0.0277  0.2106 -0.0733
 7268W        W23077   8.437  14.344  10.402  0.0088 -0.1134  0.1594
 7269W        W23078  12.749  11.085   2.826 -0.0194  0.1867  0.4782
 7270W        W23079  13.410   0.531   4.432  0.1501  0.1903  0.2374
 7271W        W23080   8.861  15.717  11.874  0.0287  0.3145 -0.0372
 7272W        W23081  18.223   8.429  14.641  0.0852  0.0038  0.1234
 7273W        W23082  17.028   6.716  14.472 -0.3347 -0.0187 -0.0940
 7274W        W23083  14.481   0.026  14.501  0.1511  0.3391 -0.2311
 7275W        W23084   0.495  18.710  11.570 -0.1764  0.2204  0.1493
 7276W        W23085   3.150   7.293   0.349  0.1848  0.4060 -0.3955
 7277W        W23086   5.217   0.614  12.838  0.0954 -0.1050  0.1724
 7278W        W23087  15.444   3.693  11.824  0.0212 -0.2108  0.2653
 7279W        W23088  14.231   0.095   2.234  0.1848  0.2064 -0.3788
 7280W        W23089   6.761  18.744   5.019 -0.2260  0.1109 -0.0687
 7281W        W23090   2.870  15.376   0.792  0.0464  0.2476 -0.1486
 7282W        W23091   6.173   6.863  11.021 -0.2072 -0.1262 -0.0450
 7283W        W23092   5.430   4.093  11.781  0.0593 -0.0034 -0.1864
 7284W        W23093   5.831   4.413  13.670  0.2079  0.1935  0.0620
 7285W        W23094  15.021  13.169   5.705  0.3383 -0.0115 -0.1017
 7286W        W23095   3.866   9.794  12.701 -0.0241 -0.1493 -0.1042
 7287W        W23096  17.972  15.665   1.749  0.3324  0.2149  0.2092
 7288W        W23097  10.244   8.993   0.799  0.1385 -0.0642 -0.0893
 7289W        W23098   0.614  11.243   2.964 -0.2434 -0.2064  0.0642
 7290W        W23099   7.210  11.421  13.501  0.2530  0.1698  0.0593
 7291W        W23100  14.234   4.866  14.791  0.0725 -0.3691 -0.0931
 7292W        W23101  10.435  15.795   1.015  0.3448  0.2198  0.0533
 7293W        W23102  16.989  19.091   4.328 -0.1636  0.0312 -0.2044
 7294W        W23103  14.091   3.218   5.006 -0.0678 -0.2816  0.3196
 7295W        W23104  16.952   0.566   3.428 -0.1720 -0.0354  0.3337
 7296W        W23105  15.878  18.383   4.774 -0.2069 -0.0845 -0.0009
 7297W        W23106   8.751   8.146   1.155 -0.2504 -0.2167 -0.0284
 7298W        W23107  11.596  15.481  13.191 -0.2177 -0.0834  0.2127
 7299W        W23108   2.543   5.716   1.950  0.4177  0.0099  0.1728
 7300W        W23109  14.274   5.176   3.699 -0.0567 -0.0587  0.0503
 7301W        W23110  17.272  11.738   0.346  0.1638 -0.0070 -0.1174
 7302W        W23111  11.849  10.037   0.001 -0.1613  0.2067 -0.0409
 7303W        W23112   5.847   6.083  11.451  0.1219 -0.1229 -0.0983
 7304W        W23113   7.410   7.970   1.095  0.1586 -0.0397  0.1156
 7305W        W23114  18.101   6.468   3.131  0.0199 -0.0693  0.3351
 7306W        W23115   5.242  10.514   3.774 -0.1070 -0.0663  0.1727
 7307W        W23116  12.952  18.569   1.895 -0.0615 -0.3680  0.2642
 7308W        W23117   0.568   3.872   2.576 -0.4770  0.0564  0.2037
 7309W        W23118  13.833   6.450   4.653 -0.3396  0.0284  0.0796
 7310W        W23119  14.810  15.105   2.245  0.1169  0.2943 -0.1092
 7311W        W23120   8.982   2.681   2.229 -0.1354 -0.2249  0.0701
 7312W        W23121   1.082   2.257   0.960 -0.2947 -0.0072 -0.0456
 7313W        W23122   4.116   1.887  11.757  0.1442 -0.3155  0.3216
 7314W        W23123   1.762   9.305  12.414  0.0955 -0.1574  0.0658
 7315W        W23124   9.987   8.411  13.629 -0.0628 -0.0434  0.1096
 7316W        W23125   8.772   1.153   4.759  0.1427  0.1389  0.0658
 7317W        W23126  13.538  12.603  12.531  0.0450  0.0258  0.0454
 7318W        W23127  11.506   9.514   1.722  0.2608  0.0331 -0.0156
 7319W        W23128   5.623   3.890  12.310  0.0011 -0.0778 -0.0146
 7320W        W23129  18.484  11.605  14.054 -0.2568  0.0917  0.3377
 7321W        W23130  15.819   5.022   2.693  0.0769  0.0605 -0.0707
 7322W        W23131   2.709   6.445  11.594  0.0823 -0.0400 -0.3041
 7323W        W23132   3.260  15.998  12.566  0.2132 -0.0466 -0.0464
 7324W        W23133  14.830   3.884   9.450  0.0704  0.1313  0.0063
 7325W        W23134  12.426   5.003   0.881  0.0846 -0.0500 -0.1390
 7326W        W23135  17.858  16.929  14.412 -0.2457 -0.4035  0.2956
 7327W        W23136   4.195  12.529  14.646 -0.0091  0.2236 -0.2049
 7328W        W23137  13.153   9.136   2.297 -0.1470 -0.1400  0.0506
 7329W        W23138   8.627  14.492  14.510 -0.1786 -0.0941  0.2545
 7330W        W23139   9.463   8.328  11.730 -0.0808  0.1292  0.2659
 7331W        W23140   0.137  11.334  13.900 -0.0429  0.0098  0.3230
 7332W        W23141   4.445   3.010   3.412  0.2337  0.1405 -0.1188
 7333W        W23142  13.304   4.395   1.573 -0.1128 -0.1195  0.0758
 7334W        W23143  14.734   6.929  14.292 -0.0806  0.0608 -0.3165
 7335W        W23144   2.769   1.060  11.412  0.3001  0.1396  0.0207
 7336W        W23145  10.364  13.051   4.879 -0.2987 -0.0895 -0.1695
 7337W        W23146  15.442  16.922   2.422 -0.3599  0.1423 -0.0159
 7338W        W23147  14.298  11.600  15.205 -0.0345 -0.3939 -0.0504
 7339W        W23148  15.117  15.673  13.717  0.1646  0.0316 -0.0161
 7340W        W23149  10.590  12.497  11.947  0.3220  0.2796  0.1805
 7341W        W23150  13.348  15.876   4.985  0.0526  0.3536 -0.0483
 7342W        W23151   2.478   3.131   1.667 -0.4118 -0.4423  0.0009
 7343W        W23152   8.214   4.315  14.965  0.4102 -0.0730  0.0786
 7344W        W23153   7.779  18.737   3.016  0.2153 -0.1986  0.0511
 7345W        W23154  12.951   5.375   4.626 -0.2023 -0.0450  0.1751
 7346W        W23155   5.377   3.547  11.276 -0.1288 -0.0183 -0.3295
 7347W        W23156  15.641  15.531  13.270  0.4309  0.2695 -0.1508
 7348W        W23157  17.494   1.949  10.303 -0.1469  0.2660  0.3394
 7349W        W23158   4.885   3.883   3.748  0.1142 -0.4828  0.0392
 7350W        W23159  14.127  11.656   0.429  0.2412 -0.2142  0.1361
 7351W        W23160   2.511   7.324  11.950  0.0817  0.0791 -0.3205
 7352W        W23161   0.047  16.738  13.947  0.2931  0.0870 -0.2189
 7353W        W23162  15.796   2.567   1.746  0.0233  0.0175  0.0701
 7354W        W23163   7.491  17.453   4.729  0.0820  0.3378 -0.2188
 7355W        W23164  17.137   2.080   1.223 -0.0641 -0.1050 -0.2240
 7356W        W23165   6.940   0.893   0.999  0.1083  0.2006 -0.0302
 7357W        W23166  13.737  13.278  12.171 -0.0310 -0.3045  0.0647
 7358W        W23167  18.616   0.492   2.445 -0.2829  0.0734  0.0939
 7359W        W23168   1.710  17.339   0.227 -0.3908 -0.1878 -0.2533
 7360W        W23169  16.427   8.762  13.465 -0.0258 -0.2681  0.2120
 7361W        W23170   4.229   5.091   2.755  0.2511 -0.1089 -0.0356
 7362W        W23171  10.846   3.172   3.066 -0.0021 -0.3129  0.0937
 7363W        W23172   7.180   8.182  12.106 -0.1017 -0.3367  0.0629
 7364W        W23173   2.615  10.000  13.302  0.0023 -0.1521  0.4056
 7365W        W23174  11.977   6.378  10.736  0.2505  0.0227 -0.0507
 7366W        W23175   4.403  11.773   2.873  0.0316  0.2531 -0.4754
 7367W        W23176   9.599   3.829   3.666  0.0570 -0.0068 -0.1177
 7368W        W23177   0.303  14.216   2.612 -0.0514  0.2637 -0.5331
 7369W        W23178   0.509   5.477  14.520  0.3443  0.3097  0.0854
 7370W        W23179  17.658  12.433   2.535 -0.1811 -0.1254 -0.0014
 7371W        W23180  11.113  14.799  11.455  0.0234 -0.3052  0.0098
 7372W        W23181  12.668  13.212  11.748 -0.1133 -0.0317  0.0005
 7373W        W23182  14.751  12.116  11.942 -0.1750  0.5048 -0.0644
 7374W        W23183  15.261  12.582  13.155  0.1080 -0.3967  0.2643
 7375W        W23184   7.173  10.408  12.051 -0.0762  0.1354 -0.2362
 7376W        W23185   0.016  16.855   4.818 -0.0473 -0.2898  0.0593
 7377W        W23186  10.961   6.139   3.138  0.1487 -0.2944  0.0566
 7378W        W23187   6.665  12.736   9.368  0.2761  0.3129  0.0743
 7379W        W23188  17.003  11.766   1.412 -0.4043 -0.0130  0.0809
 7380W        W23189   7.108  12.249   1.409 -0.0035 -0.1811  0.3137
 7381W        W23190   5.627  14.475  13.482  0.1169  0.3045  0.1307
 7382W        W23191   0.763  12.676   1.153  0.1128 -0.2296 -0.3872
 7383W        W23192   2.728  18.570  14.693 -0.1696  0.2425 -0.2875
 7384W        W23193  17.393  12.963  14.154 -0.0788  0.1621  0.1808
 7385W        W23194  13.047   6.776  12.484  0.0785 -0.2222 -0.1330
 7386W        W23195   1.726  18.466  14.566  0.1464 -0.2079  0.1997
 7387W        W23196  13.910  17.971  14.503  0.0368  0.0192  0.2002
 7388W        W23197   9.950  13.671   5.420 -0.0653 -0.0463 -0.0398
 7389W        W23198   4.800   9.399   3.127  0.2400 -0.0575  0.0741
 7390W        W23199  19.116  17.510   1.393  0.0213 -0.1613 -0.0765
 7391W        W23200  15.549   8.333   4.687  0.2393  0.1494 -0.2014
 7392W        W23201   7.120   5.106   3.610 -0.0892  0.0917  0.1446
 7393W        W23202  11.585  15.790   9.845 -0.0132  0.2000  0.3190
 7394W        W23203   9.726   4.987   1.112 -0.1842 -0.2433  0.1049
 7395W        W23204  18.083  13.863   0.026  0.0365  0.0988  0.0079
 7396W        W23205  12.026   8.108  14.865  0.0604 -0.1210 -0.0239
 7397W        W23206  16.096  13.693   4.067 -0.3327  0.0380 -0.1315
 7398W        W23207   4.464  15.514   4.666 -0.0532  0.0761 -0.2768
 7399W        W23208  17.867   8.481   2.279 -0.2313 -0.0550  0.1722
 7400W        W23209  10.083  15.516   0.734 -0.1842  0.1008 -0.1174
 7401W        W23210  15.203  16.283   3.116  0.1663  0.0718 -0.1290
 7402W        W23211   7.894   1.799  11.445 -0.0231  0.0093  0.0791
 7403W        W23212  13.673  16.516  11.620 -0.1827  0.1900 -0.4762
 7404W        W23213   1.656   1.793   0.481 -0.1879  0.1773  0.2880
 7405W        W23214   7.071  15.049   4.092 -0.0666 -0.0444 -0.2150
 7406W        W23215   3.539  10.954  14.268 -0.1379  0.0960  0.0216
 7407W        W23216  15.789  17.716   4.020 -0.1733 -0.2773 -0.0499
 7408W        W23217   1.015  18.170  13.764  0.0324 -0.0798 -0.2404
 7409W        W23218   6.425  16.940   2.378  0.0983 -0.1926 -0.0065
 7410W        W23219   8.805  19.152  13.458 -0.1491  0.2218  0.0482
 7411W        W23220  18.816   3.565   0.807  0.0163  0.0154  0.1805
 7412W        W23221  11.236  18.547  11.669 -0.0263 -0.0788  0.2539
 7413W        W23222   0.784   5.784  12.005  0.0255 -0.0953 -0.0509
 7414W        W23223  13.143  17.723   2.797  0.0068 -0.3780  0.0679
 7415W        W23224   7.363   6.275   4.869 -0.2056 -0.0044  0.1798
 7416W        W23225  11.102   2.179   9.493  0.3254 -0.2982 -0.1866
 7417W        W23226   8.405  15.950   4.264  0.0953 -0.1734  0.1489
 7418W        W23227  11.234  13.501  14.875 -0.0147  0.0176  0.2442
 7419W        W23228   3.659  16.619   9.509 -0.0823 -0.0720  0.2349
 7420W        W23229   0.692   4.885  13.524 -0.0142  0.2476 -0.1044
 7421W        W23230   9.371  14.134  14.029 -0.0020  0.1856  0.1655
 7422W        W23231   5.077  16.129  11.725  0.2313  0.1668 -0.1907
 7423W        W23232   2.671  16.975   3.058  0.1174  0.4179  0.1378
 7424W        W23233   8.569  18.066  12.407 -0.3074 -0.1486  0.0981
 7425W        W23234   5.212  18.675   3.009  0.1211 -0.0399 -0.0090
 7426W        W23235  14.306   6.278   0.118  0.0838  0.1324  0.1947
 7427W        W23236  15.840   5.072  11.277  0.1132  0.2493 -0.2547
 7428W        W23237  18.844   3.018  11.286  0.1205 -0.0984  0.2511
 7429W        W23238  11.677   4.825   0.022  0.1726  0.0786 -0.0208
 7430W        W23239  13.041  10.876   4.266  0.2156 -0.2097  0.3557
 7431W        W23240   6.151   4.156  12.306  0.2373  0.0276 -0.1850
 7432W        W23241  16.275   5.402  12.313  0.0895  0.0961 -0.0531
 7433W        W23242  11.996   5.628  11.394 -0.3158  0.3227  0.1489
 7434W        W23243  16.311  13.726   3.272  0.1782  0.1678 -0.1164
 7435W        W23244   3.686  13.924  14.577 -0.2380 -0.0723  0.0115
 7436W        W23245  16.239  12.132  13.748  0.0539  0.1878 -0.1925
 7437W        W23246   4.297  12.289  13.708  0.4520 -0.0626 -0.0986
 7438W        W23247  18.851  17.377  10.425 -0.0405  0.0031  0.0817
 7439W        W23248   5.388   8.760  13.040 -0.2004 -0.0038 -0.0679
 7440W        W23249   8.984   1.985  15.068 -0.0368 -0.0535  0.3141
 7441W        W23250  18.505  10.427   2.872  0.6219  0.1694 -0.0541
 7442W        W23251  13.926   6.997  10.534 -0.1753 -0.3781  0.0526
 7443W        W23252   6.168   2.783   3.020 -0.1550  0.1672 -0.1009
 7444W        W23253  12.182   1.033   0.154 -0.2192  0.2144 -0.1896
 7445W        W23254   9.984   2.677  14.452  0.0021 -0.1124  0.3659
 7446W        W23255   5.975   9.181   2.263  0.0743 -0.1497  0.2637
 7447W        W23256   3.114   1.629  13.120 -0.0805 -0.4074  0.1172
 7448W        W23257   5.531   2.256   1.457 -0.1728  0.0416 -0.3444
 7449W        W23258  11.429   0.654  12.777 -0.1403 -0.1861 -0.1680
 7450W        W23259  12.323   6.398   2.013 -0.2178 -0.2882  0.1978
 7451W        W23260   9.887   6.863  11.469 -0.2799 -0.0377 -0.0220
 7452W        W23261  17.539  15.312  11.402  0.5787 -0.0459  0.0466
 7453W        W23262   2.800  13.514  12.440  0.0512  0.2964  0.0336
 7454W        W23263   3.233   6.637   5.051  0.0122 -0.4275 -0.2861
 7455W        W23264   9.584  18.571   2.181  0.1053 -0.0691  0.1736
 7456W        W23265   9.510  17.808   2.252  0.3167  0.3449 -0.2881
 7457W        W23266  10.290   5.628   0.451  0.2154 -0.2650  0.1385
 7458W        W23267  19.053   9.704   4.392 -0.2279  0.2853 -0.1320
 7459W        W23268   2.466   3.084  13.748  0.0093  0.1174  0.0352
 7460W        W23269  17.472  13.591   4.477 -0.0819 -0.0515 -0.3787
 7461W        W23270  15.296  11.863   2.998 -0.0474  0.1563  0.1246
 7462W        W23271   7.087   0.255  11.700  0.3019 -0.0928 -0.0342
 7463W        W23272   2.079  16.317  11.257  0.2976  0.1311  0.1116
 7464W        W23273  10.076  16.869  15.145 -0.0777  0.0424 -0.0625
 7465W        W23274   5.420  17.262   4.231 -0.0003  0.0524 -0.1808
 7466W        W23275   4.368   8.120   3.452 -0.1345  0.0054  0.0757
 7467W        W23276   6.184  15.218  12.104  0.3612 -0.2619 -0.2983
 7468W        W23277   4.669  12.600   2.757 -0.0239 -0.1202 -0.2823
 7469W        W23278  15.303  10.236  12.592  0.2783 -0.0204  0.1593
 7470W        W23279  14.485  11.134  11.039 -0.3821  0.0751 -0.0164
 7471W        W23280  11.601  15.947  13.391 -0.1021  0.2304  0.3028
 7472W        W23281   4.789  17.820   5.326  0.2821 -0.3596  0.2885
 7473W        W23282  10.031   1.127  11.284  0.2619 -0.0168 -0.2278
 7474W        W23283   3.477   3.089   0.058  0.2285  0.1194  0.0344
 7475W        W23284   4.450   8.758   1.884 -0.0929 -0.0651  0.0613
 7476W        W23285  11.090  10.773  10.942 -0.1261  0.2955  0.0078
 7477W        W23286   0.175   4.981  13.325  0.4163  0.2828  0.0198
 7478W        W23287   9.723  13.547   2.090  0.2533 -0.1082 -0.3034
 7479W        W23288   2.587   8.233   4.830  0.0169  0.0571 -0.2730
 7480W        W23289  13.602  12.867  14.236 -0.0168  0.0356 -0.0009
 7481W        W23290  11.149   1.097  14.477 -0.0225 -0.1874 -0.1010
 7482W        W23291   0.480   7.200  11.703  0.2434  0.0667  0.1978
 7483W        W23292   1.789   3.219   2.859 -0.2755  0.0443  0.0205
 7484W        W23293   3.220  13.936   0.400 -0.0351 -0.3477 -0.3896
 7485W        W23294   9.223   9.903   3.914 -0.2189  0.1794 -0.0640
 7486W        W23295  11.545   8.920   1.763  0.1186 -0.1043  0.0173
 7487W        W23296   7.028  13.477  10.748 -0.0204  0.2133  0.1111
 7488W        W23297  17.490   3.869   1.887 -0.1459 -0.1017 -0.2889
 7489W        W23298   4.071  17.636   2.726  0.0176 -0.1190  0.1127
 7490W        W23299  16.172  14.080  11.537 -0.2480  0.0315 -0.1174
 7491W        W23300   0.828  15.454   0.950 -0.0140 -0.0581  0.3960
 7492W        W23301   2.922  15.482  10.072  0.1721 -0.0017  0.2012
 7493W        W23302  15.085  15.099  14.548 -0.0150 -0.2768 -0.0995
 7494W        W23303  10.332   3.078  10.754  0.2478 -0.0297 -0.1801
 7495W        W23304  15.238   4.119   9.887 -0.0957 -0.1632 -0.0386
 7496W        W23305   4.531   7.289  12.519  0.0865  0.1084 -0.0496
 7497W        W23306   7.403  14.306   3.741  0.0069 -0.2602  0.1610
 7498W        W23307  13.494  16.527   1.422  0.2344 -0.3123 -0.0108
 7499W        W23308   9.702   9.435  11.333  0.0586  0.2095  0.2020
 7500W        W23309   4.717   2.969  13.473  0.1290 -0.1035 -0.3286
 7501W        W23310   4.126  15.852   1.186  0.0015  0.0386  0.0514
 7502W        W23311   1.001  10.309  13.910 -0.1051  0.0339  0.0297
 7503W        W23312  10.840  17.232   4.759  0.1240  0.2409 -0.0238
 7504W        W23313  16.197  14.473   3.449  0.0494 -0.2695 -0.0039
 7505W        W23314  11.705  18.420  13.211  0.3047  0.1902  0.3659
 7506W        W23315   1.470  10.024   4.323 -0.1805  0.2640 -0.1525
 7507W        W23316  17.243  15.692  13.621 -0.2281  0.3086 -0.0636
 7508W        W23317  17.342  12.659   3.970  0.0389  0.1111  0.1917
 7509W        W23318   5.548  16.191   2.547  0.2446  0.3201  0.2293
 7510W        W23319  17.384  16.916   4.064  0.1626 -0.0988 -0.1514
 7511W        W23320  10.537  14.640  14.661 -0.0181 -0.0484  0.0166
 7512W        W23321  17.748   5.872  12.936  0.1311  0.1349 -0.2670
 7513W        W23322  10.973  11.085   0.022 -0.2213  0.4025  0.0293
 7514W        W23323   4.533   4.575   3.133  0.0499  0.1736 -0.1998
 7515W        W23324  17.828   9.357  10.795 -0.0936 -0.2334 -0.1326
 7516W        W23325  14.366   1.034   1.603 -0.2088  0.0167 -0.1201
 7517W        W23326   8.973   6.893   2.145 -0.3747  0.2026 -0.0235
 7518W        W23327  13.951  17.467   5.221 -0.2347 -0.3156  0.0468
 7519W        W23328  11.573  17.401   0.901  0.0985 -0.0324  0.0488
 7520W        W23329  14.930   4.159   0.821  0.0197 -0.2365  0.1552
 7521W        W23330  11.894  19.060   5.799  0.2045 -0.1474 -0.0433
 7522W        W23331   4.807   7.462  12.111  0.1698  0.0061 -0.1661
 7523W        W23332  10.649   0.842   1.403 -0.2291  0.1917  0.1123
 7524W        W23333   5.562  19.046  10.311  0.0431  0.6897  0.1637
 7525W        W23334  15.932   8.457  13.545 -0.0179  0.0008 -0.3381
 7526W        W23335   9.731   7.746  13.020 -0.1196  0.1224 -0.0198
 7527W        W23336   2.585  13.364  13.664 -0.2735 -0.1326 -0.4629
 7528W        W23337   6.633  16.111   2.397  0.0002 -0.1387  0.1362
 7529W        W23338  10.754  14.335  15.179 -0.1458 -0.1110  0.2371
 7530W        W23339  13.047   2.050  13.513  0.4533  0.2578  0.2508
 7531W        W23340   1.352   0.905  11.964 -0.1215  0.2506 -0.0656
 7532W        W23341  11.014   7.421   3.032  0.0075  0.3318 -0.2048
 7533W        W23342  11.435   5.132   4.589 -0.0342  0.2224 -0.1209
 7534W        W23343   0.199  18.532   0.266  0.0946  0.0212  0.0709
 7535W        W23344  10.160   2.256  11.940 -0.4776  0.0198 -0.0131
 7536W        W23345  15.296   1.363   0.922  0.2608  0.0580  0.2899
 7537W        W23346   2.938   2.467  13.361  0.1534 -0.1079 -0.1890
 7538W        W23347  13.413  11.517  14.803  0.3491 -0.1606  0.0583
 7539W        W23348   8.222  14.767   2.314  0.2026 -0.0111  0.1969
 7540W        W23349  10.439  18.769  14.368 -0.2186  0.3202  0.0742
 7541W        W23350  12.500   6.331  14.422 -0.1151 -0.2935  0.0779
 7542W        W23351  11.423  10.487   2.794  0.3153 -0.0176  0.1858
 7543W        W23352   3.149   1.457   0.344 -0.0945  0.4071 -0.0349
 7544W        W23353   9.045  10.236  13.647  0.0944  0.1346 -0.1051
 7545W        W23354  18.664  11.369   0.142  0.0672 -0.2053 -0.0452
 7546W        W23355  17.145  14.302  10.884 -0.1936  0.1901 -0.1233
 7547W        W23356   1.178   7.979   1.481  0.2116  0.2647  0.1279
 7548W        W23357   3.122  13.345  11.328  0.0827  0.0331  0.5909
 7549W        W23358  15.685   3.012  14.158  0.0006 -0.1108  0.3039
 7550W        W23359   7.366  14.418   1.824  0.0927  0.1663 -0.0438
 7551W        W23360   9.065  13.368   2.169 -0.0952  0.0338  0.1134
 7552W        W23361  14.917  11.068  10.214 -0.0565 -0.0395  0.2194
 7553W        W23362  14.666  12.222   0.939 -0.2788  0.1341 -0.1194
 7554W        W23363   1.087  14.428   2.895  0.0184 -0.5401 -0.5159
 7555W        W23364  11.935   8.600  12.102  0.0929  0.0566  0.2264
 7556W        W23365  10.031  10.107  14.404  0.1174  0.0775 -0.1598
 7557W        W23366   8.602  12.043   3.538 -0.2572 -0.2327  0.0543
 7558W        W23367  13.540  10.084   5.091 -0.1862  0.2270  0.1905
 7559W        W23368   1.588  14.153  11.262  0.4647  0.2152  0.0139
 7560W        W23369  11.272  18.319  13.321  0.2519  0.2157 -0.0321
 7561W        W23370   9.372   2.394   1.723 -0.2037 -0.3438 -0.0441
 7562W        W23371   4.493   4.937   4.380  0.2403  0.1410 -0.1513
 7563W        W23372  15.619  12.824   4.495 -0.4061  0.1078  0.0081
 7564W        W23373   0.317   6.503   1.201  0.1797 -0.2234 -0.0988
 7565W        W23374   6.402   9.475  14.085  0.3155 -0.0055  0.0652
 7566W        W23375   2.785   4.576  11.125 -0.2755  0.0568  0.3713
 7567W        W23376  18.725   1.665   4.331 -0.0149  0.0753  0.1241
 7568W        W23377   8.663   2.069   2.993 -0.0116  0.1790 -0.2456
 7569W        W23378  12.789   6.317  12.394  0.0452 -0.0949 -0.1452
 7570W        W23379   1.430   8.394   2.270  0.2499 -0.2413  0.2201
 7571W        W23380  17.948  16.401  13.862  0.0019  0.3518 -0.0442
 7572W        W23381   9.939   6.564   0.713 -0.2205 -0.0838  0.0963
 7573W        W23382  12.177  10.026  11.443  0.0729 -0.2064 -0.2891
 7574W        W23383   6.696  11.935   5.804  0.2880  0.0767 -0.0036
 7575W        W23384  12.487   9.363   0.360 -0.0780 -0.0927 -0.0247
 7576W        W23385  13.521  15.729  14.572 -0.0958  0.1554 -0.1166
 7577W        W23386   0.607   9.983   2.350 -0.1803 -0.0425 -0.1576
 7578W        W23387   9.192   7.142   5.160 -0.1663  0.2002 -0.0380
 7579W        W23388  17.165  10.265   3.938 -0.0679 -0.0436 -0.0984
 7580W        W23389  14.563   9.387  14.502 -0.2574  0.1100 -0.0524
 7581W        W23390   3.676  11.916   3.466 -0.0372  0.1646  0.1492
 7582W        W23391  14.440   1.813  12.684  0.1109 -0.2930  0.2193
 7583W        W23392   4.662   5.961  10.136 -0.0431 -0.2425  0.1460
 7584W        W23393  17.891  17.777  15.080 -0.4091 -0.0699 -0.0576
 7585W        W23394  16.090   8.999   0.357  0.2141 -0.3553  0.3457
 7586W        W23395   0.020   5.556  13.971  0.0172  0.2472 -0.1977
 7587W        W23396  18.500   4.115   4.218  0.1985  0.2146 -0.3689
 7588W        W23397   1.689   6.608  10.440 -0.0225  0.0493 -0.0641
 7589W        W23398   5.266  12.867   2.048 -0.2360  0.1235  0.4120
 7590W        W23399  10.630  11.140   0.652  0.3783 -0.1492  0.0418
 7591W        W23400   8.072  13.829  10.214 -0.0252 -0.0325  0.1602
 7592W        W23401   2.599   8.709   0.982 -0.0665 -0.0819 -0.1569
 7593W        W23402  12.806   5.095   2.118  0.4117 -0.1050  0.1412
 7594W        W23403  10.172   3.228   1.363  0.0524  0.4362 -0.0378
 7595W        W23404   4.425   4.261   2.242 -0.1798  0.0068 -0.0008
 7596W        W23405   9.342   8.836  12.361 -0.0227 -0.1790 -0.0564
 7597W        W23406  11.139   3.876   9.940  0.5215 -0.3433  0.0619
 7598W        W23407   9.632  10.530  12.231 -0.0968  0.0579 -0.1253
 7599W        W23408  13.580  14.490  15.016 -0.1827 -0.2201 -0.1148
 7600W        W23409   9.945   9.213   3.396 -0.0718  0.0602  0.0677
 7601W        W23410   3.939  11.458  11.213 -0.0270 -0.2711 -0.1195
 7602W        W23411   2.125  13.137  14.551  0.3837  0.5946 -0.1989
 7603W        W23412   4.887   3.246  13.979 -0.0041 -0.3060  0.3252
 7604W        W23413   1.947   5.870  13.492 -0.0452  0.1458  0.1120
 7605W        W23414   6.894   6.783  11.860  0.1780  0.4040  0.0785
 7606W        W23415   1.810  11.156  12.258  0.1908  0.1116  0.3086
 7607W        W23416   7.188  11.155   4.188 -0.0477  0.1908 -0.3147
 7608W        W23417  13.983   5.339   1.905  0.0516  0.1023 -0.2995
 7609W        W23418   7.382   8.199   2.540  0.0527 -0.0579  0.1516
 7610W        W23419  11.482   8.679   3.264 -0.0614  0.3481 -0.2181
 7611W        W23420   2.205  12.641   3.617 -0.2403 -0.1089 -0.1717
 7612W        W23421   0.992   8.321   4.655 -0.2116 -0.0720  0.1950
 7613W        W23422   1.101   2.930  14.468  0.1220  0.2453  0.2772
 7614W        W23423  17.605   1.928  12.441 -0.2168  0.1443 -0.0257
 7615W        W23424  15.341  15.157   2.358  0.2015  0.0035 -0.0675
 7616W        W23425   8.491  13.703   4.012  0.0361  0.1026  0.2109
 7617W        W23426  15.328  17.091   5.009  0.0365 -0.0146 -0.1484
 7618W        W23427  14.721   2.144  14.890  0.0164  0.0184 -0.0069
 7619W        W23428  14.829   8.998   9.149 -0.0834  0.0853 -0.0638
 7620W        W23429  12.576  12.289   4.049 -0.0985 -0.0874 -0.0208
 7621W        W23430   7.427  17.373  13.247 -0.4446  0.0431  0.2097
 7622W        W23431  12.956  11.471  14.522  0.0710  0.2340 -0.0616
 7623W        W23432  10.656   3.581   5.098  0.0400  0.1259  0.1479
 7624W        W23433  14.149  10.641  14.972 -0.0748  0.2780  0.1349
 7625W        W23434  18.041   3.460   1.254  0.0056 -0.2110  0.0690
 7626W        W23435   7.365   0.099  13.958 -0.2158 -0.0576 -0.0060
 7627W        W23436   8.375  14.672   4.384  0.1681 -0.1884 -0.0415
 7628W        W23437  18.941  17.537   3.379 -0.0237 -0.0050  0.0068
 7629W        W23438   9.332   6.782   2.537  0.0997 -0.2500  0.2754
 7630W        W23439   3.115  12.161   1.266  0.3408  0.0870  0.2907
 7631W        W23440   1.128  15.851  10.228 -0.2867 -0.0087  0.2393
 7632W        W23441  14.700  18.870  12.932 -0.0294 -0.1229 -0.1570
 7633W        W23442   1.694  18.158   4.678 -0.0859 -0.1110 -0.0028
 7634W        W23443  15.862  12.201   5.672 -0.1088 -0.1310  0.2777
 7635W        W23444   1.813   6.490   2.023 -0.0246 -0.1933 -0.0261
 7636W        W23445   0.264   7.899   0.512 -0.3041  0.2184 -0.1567
 7637W        W23446  17.538  12.671  12.407  0.0534  0.0362 -0.1313
 7638W        W23447  12.552  12.460   4.878 -0.1088 -0.1623  0.3649
 7639W        W23448   8.785   4.986  10.533 -0.3309  0.3293 -0.0746
 7640W        W23449   2.270  14.860   0.904 -0.0978  0.0680  0.1353
 7641W        W23450  17.278  12.126  12.228  0.1549 -0.1734 -0.1220
 7642W        W23451   1.883   5.840   0.658 -0.1867  0.2002  0.3400
 7643W        W23452   3.290  17.095   1.312  0.0320 -0.5220 -0.1862
 7644W        W23453   5.271   7.079   4.932 -0.0442  0.0271  0.0564
 7645W        W23454  12.410   2.830   3.888  0.4064  0.2030 -0.0516
 7646W        W23455   8.967  16.621  12.923 -0.0353  0.3529  0.0299
 7647W        W23456  15.260   3.781   0.663  0.2550  0.0708  0.1631
 7648W        W23457  14.798  10.900  12.929 -0.0315  0.0884 -0.1003
 7649W        W23458   4.773   4.787   0.594 -0.0456  0.0245  0.1966
 7650W        W23459  11.709   2.576   1.038 -0.1399  0.0021 -0.1426
 7651W        W23460   2.621   1.452   0.178 -0.0336 -0.0706 -0.1118
 7652W        W23461   1.718   3.509   1.254 -0.1070  0.1142 -0.0755
 7653W        W23462  18.160   4.940   4.181  0.1053  0.1167 -0.1932
 7654W        W23463   4.519  12.962   4.052  0.2267  0.1488  0.1565
 7655W        W23464   8.703  16.233  14.848  0.3174 -0.0912 -0.1253
 7656W        W23465   9.408  16.908  12.620  0.2666  0.1364 -0.1417
 7657W        W23466   4.132  14.737   4.883 -0.2725  0.1185 -0.0357
 7658W        W23467   0.858  17.918  12.501 -0.0824  0.0860  0.0568
 7659W        W23468  12.753   4.727   1.785  0.1330 -0.1542  0.0804
 7660W        W23469   8.742   1.885  13.430 -0.2284  0.2361  0.0913
 7661W        W23470   4.973  10.398  13.456  0.3191  0.0991 -0.1882
 7662W        W23471   0.071   1.815  13.081  0.0207 -0.0521 -0.0418
 7663W        W23472   4.439  12.914   2.468 -0.3048 -0.0262  0.1694
 7664W        W23473  11.546   1.551  11.684 -0.2277  0.1634  0.0616
 7665W        W23474   0.087   1.906   1.138  0.0431  0.1639 -0.0903
 7666W        W23475  18.351   0.120  12.781 -0.0277  0.2586  0.0572
 7667W        W23476   6.819   6.678   2.224 -0.0917  0.1861 -0.1376
 7668W        W23477  16.015  16.822  11.459  0.0555 -0.0298 -0.1468
 7669W        W23478  13.507   9.567   4.120  0.2069 -0.2388 -0.0952
 7670W        W23479   8.997   7.045   0.573  0.1067 -0.0895 -0.4871
 7671W        W23480  15.436  14.019   3.075  0.0322  0.0947 -0.0107
 7672W        W23481  16.507   5.591   0.515  0.4020  0.1394  0.2493
 7673W        W23482   3.396  12.410   0.636  0.1251 -0.1457 -0.1849
 7674W        W23483   4.134  13.233  10.836 -0.0113 -0.0358 -0.2190
 7675W        W23484   4.854   5.701   0.014  0.0203  0.0978 -0.0113
 7676W        W23485  16.933   6.261  14.191 -0.0465  0.0660  0.2921
 7677W        W23486   3.912  14.080   1.478 -0.0172  0.4261  0.2651
 7678W        W23487   9.545  16.864   1.223 -0.0596 -0.5995 -0.0366
 7679W        W23488   2.842   9.133   4.194  0.0236  0.0324 -0.4361
 7680W        W23489  10.611   9.428   2.083 -0.2326  0.0376 -0.2223
 7681W        W23490  18.959   4.681   1.465 -0.2088 -0.0662  0.0356
 7682W        W23491   9.417   5.637  13.676 -0.0608 -0.3622  0.0170
 7683W        W23492   5.644  15.433  10.164 -0.0638 -0.4629  0.1701
 7684W        W23493   9.117   4.502  10.921  0.1694  0.2776 -0.2657
 7685W        W23494   7.908  16.702  10.991  0.3424 -0.0841  0.0611
 7686W        W23495   0.831  16.146  12.115 -0.3808  0.0076  0.0257
 7687W        W23496  18.510   5.331   0.007  0.1968 -0.0868  0.2987
 7688W        W23497  15.833  14.755   3.761  0.1649 -0.0793  0.2314
 7689W        W23498   8.098   2.281   4.821 -0.1450 -0.1554  0.0654
 7690W        W23499   1.547  13.133   1.676  0.2987 -0.1997 -0.1319
 7691W        W23500   8.689  11.368   5.231  0.2070 -0.1098 -0.0004
 7692W        W23501   3.570   3.982   2.012  0.0479  0.0322  0.0511
 7693W        W23502   5.470   3.584  13.311  0.2677  0.0034 -0.3177
 7694W        W23503  15.433   0.637  10.923  0.3373 -0.1277 -0.0599
 7695W        W23504  16.397  15.868  10.936  0.1680  0.0195 -0.0701
 7696W        W23505   3.944   3.378  14.251 -0.4044  0.1975 -0.4383
 7697W        W23506   7.042   3.641   3.024  0.0054 -0.0468  0.1188
 7698W        W23507   1.089   8.159  13.607 -0.2215 -0.1922  0.0825
 7699W        W23508  14.519  18.995  13.484  0.1363 -0.0443 -0.5726
 7700W        W23509  10.278   5.598  13.618  0.2661 -0.1297  0.1896
 7701W        W23510   3.195  14.885  10.881 -0.1988 -0.0734  0.2391
 7702W        W23511   6.830   9.229   0.464 -0.0798  0.2752  0.1523
 7703W        W23512  17.825  10.997   2.987 -0.0386 -0.2875  0.1777
 7704W        W23513  12.526  12.005  14.396 -0.0653  0.1790 -0.0569
 7705W        W23514   6.343   9.397  10.932 -0.0058 -0.0423  0.2346
 7706W        W23515   5.597   7.085  12.456 -0.0912 -0.1618  0.2375
 7707W        W23516  11.518   4.403   4.394  0.3066  0.3353  0.2770
 7708W        W23517  15.351   0.234   3.058  0.2511  0.0374  0.1833
 7709W        W23518   2.599  11.456  13.735 -0.0631 -0.2462 -0.0704
 7710W        W23519  10.798  17.548  12.000  0.0172 -0.0269 -0.2531
 7711W        W23520  14.170  15.664  12.221 -0.0675  0.0674  0.1787
 7712W        W23521  14.697   0.993   5.085  0.1085  0.0060 -0.2475
 7713W        W23522   5.269  15.660   3.947  0.1545  0.1569 -0.2539
 7714W        W23523   6.553   5.579  10.244  0.0785 -0.0865  0.1883
 7715W        W23524  11.486   5.057   1.373  0.2012  0.1022 -0.0708
 7716W        W23525  18.465  10.299  12.552  0.1461 -0.0845 -0.4416
 7717W        W23526  12.151   8.445  13.829 -0.2480 -0.1412 -0.3743
 7718W        W23527   6.284   5.730  12.242 -0.3224  0.2375 -0.3663
 7719W        W23528  12.319  12.511  14.532 -0.0307 -0.0182  0.3158
 7720W        W23529   8.381  15.983   9.821  0.2328  0.1684  0.0500
 7721W        W23530   8.233  14.290  13.656 -0.0925 -0.3260  0.0894
 7722W        W23531  17.231   4.308  14.219 -0.1043  0.1789  0.0663
 7723W        W23532  11.164   2.815  14.121  0.2630  0.1430 -0.0060
 7724W        W23533   2.509   7.722  14.940  0.1349  0.1144 -0.0011
 7725W        W23534  10.842   5.020   1.725  0.4089 -0.0575 -0.1324
 7726W        W23535   9.698  18.131   9.843  0.3383 -0.0334  0.0913
 7727W        W23536   1.098  15.263   4.357  0.2113 -0.1277  0.1604
 7728W        W23537  16.401  15.000  11.749 -0.2547 -0.0034 -0.3538
 7729W        W23538  16.369   0.177  11.407  0.1690  0.1651  0.2802
 7730W        W23539   9.849  13.482  13.049  0.2763  0.0622  0.3661
 7731W        W23540  15.139   5.776  14.834  0.2512 -0.3488  0.0998
 7732W        W23541   4.605  15.253   3.633 -0.0305  0.4919 -0.1297
 7733W        W23542   4.396   6.969   4.146 -0.1114 -0.0380 -0.1386
 7734W        W23543   7.180   3.392  10.613  0.0102 -0.1149 -0.1369
 7735W        W23544   8.970   1.263  14.170 -0.0324 -0.0454  0.1283
 7736W        W23545  12.965   8.761   3.408  0.0567 -0.2992  0.1244
 7737W        W23546  12.988  12.060   4.184 -0.3451 -0.0618 -0.1375
 7738W        W23547  10.050   1.238  13.364 -0.2497  0.0029  0.2503
 7739W        W23548   2.945   6.597   1.457  0.1418 -0.3923  0.2475
 7740W        W23549  12.268  18.324   4.241  0.1454 -0.1532 -0.2784
 7741W        W23550   3.936   0.480   4.216 -0.0234 -0.1994 -0.1417
 7742W        W23551  16.045  15.382  13.838  0.1610 -0.2080  0.3000
 7743W        W23552   3.243  19.121   1.805 -0.1072  0.2208 -0.0489
 7744W        W23553   6.298  14.132   2.062 -0.1425 -0.0390 -0.0657
 7745W        W23554  17.066   6.362   1.313  0.0131  0.0773  0.0337
 7746W        W23555  12.431   0.573   0.778  0.0293 -0.1436 -0.4745
 7747W        W23556   4.893   0.202  11.873 -0.2101 -0.1016  0.2199
 7748W        W23557   2.171   6.868  12.693  0.1119 -0.0238 -0.0733
 7749W        W23558   1.251   1.615   3.280  0.2296  0.2974 -0.3138
 7750W        W23559   3.353  17.841   3.553 -0.1724 -0.0627 -0.2241
 7751W        W23560   2.040   0.351   3.111 -0.0205 -0.3151 -0.2788
 7752W        W23561   1.481  13.927   3.601  0.3308  0.1129 -0.1938
 7753W        W23562  16.835  12.584  13.797  0.0317 -0.2812  0.0718
 7754W        W23563  10.232  13.688   3.957  0.2330 -0.4928 -0.1041
 7755W        W23564  17.997   9.371   1.967 -0.1449  0.0196 -0.1821
 7756W        W23565   9.381  14.792   3.861  0.1622  0.1026  0.1880
 7757W        W23566   9.048  16.887   5.162  0.0461 -0.0825  0.4174
 7758W        W23567  13.647  17.704   2.825 -0.0387  0.0579 -0.0711
 7759W        W23568   7.249  15.265  14.306  0.1595  0.0672  0.2892
 7760W        W23569   1.318   5.827  10.250 -0.3534  0.2497 -0.2746
 7761W        W23570   9.443  11.442  10.545 -0.0657  0.0862 -0.2574
 7762W        W23571   2.160  11.041  14.561  0.2476 -0.2628 -0.0897
 7763W        W23572   0.267  19.040  11.359 -0.0872  0.0250  0.0678
 7764W        W23573   4.356  10.022  11.264  0.0559 -0.0515  0.0021
 7765W        W23574   6.488  10.622   1.109  0.0516 -0.3817  0.0218
 7766W        W23575  12.213   0.197   2.893 -0.1120  0.2035  0.1017
 7767W        W23576   4.497  15.525  10.807 -0.2032  0.3047  0.5105
 7768W        W23577  10.773  12.553  13.572 -0.1763 -0.0068  0.1916
 7769W        W23578  13.032   0.440   0.589 -0.1177 -0.1337  0.0025
 7770W        W23579  13.268  17.101  11.169 -0.1542  0.0792 -0.0933
 7771W        W23580  17.460   7.671  11.977 -0.0708  0.2006  0.2249
 7772W        W23581   0.358   7.116   1.747  0.0238 -0.2096 -0.2050
 7773W        W23582  10.200  12.527  13.703 -0.1357  0.1163  0.2169
 7774W        W23583  13.533  18.346   0.550  0.0394  0.2563  0.0931
 7775W        W23584   8.931  18.658   1.901 -0.3848  0.0141 -0.1082
 7776W        W23585  17.965   6.079   3.516  0.3208  0.1316 -0.0132
 7777W        W23586   1.829   6.100  11.528  0.2413  0.0652 -0.1492
 7778W        W23587   4.419  14.719   3.623  0.1912  0.4223  0.0942
 7779W        W23588   1.715   7.235   9.863 -0.4548 -0.0106 -0.2565
 7780W        W23589   8.405   0.715   3.698  0.0856  0.0893  0.0055
 7781W        W23590   8.158  17.824   0.381  0.1073  0.4192  0.0863
 7782W        W23591   3.741  18.015   1.287 -0.2121  0.0930 -0.1324
 7783W        W23592  16.185   4.701   2.817  0.1682 -0.1635  0.1363
 7784W        W23593  16.956   9.485   1.670 -0.0803 -0.1097  0.3500
 7785W        W23594   0.550  12.504   4.407 -0.1756 -0.1370  0.2914
 7786W        W23595   1.141   8.005  10.014 -0.5303 -0.0855  0.0814
 7787W        W23596  14.969   9.693   1.089 -0.2139  0.0087  0.3336
 7788W        W23597   1.755   9.038   4.628  0.1069  0.0313 -0.0246
 7789W        W23598  14.788  16.697  11.106  0.1050 -0.1512  0.0838
 7790W        W23599  17.000  12.634  14.333  0.0663  0.1266  0.1991
 7791W        W23600   6.873   1.675   4.144  0.3076 -0.0813 -0.0640
 7792W        W23601  10.528   7.422   1.774  0.4843 -0.0284 -0.0449
 7793W        W23602  14.212   8.840  12.323 -0.1357  0.1712 -0.2287
 7794W        W23603   5.539   2.507  11.038 -0.3603  0.0711 -0.3650
 7795W        W23604   4.162  10.519  12.981  0.0406 -0.0565  0.2047
 7796W        W23605   8.221   2.411  14.549  0.1491  0.1620 -0.1351
 7797W        W23606  11.945  18.466  15.006  0.0465 -0.3523 -0.1342
 7798W        W23607  16.165   8.785   1.858 -0.1658 -0.1833 -0.3816
 7799W        W23608   2.123   7.295  14.887 -0.1898  0.4615 -0.1917
 7800W        W23609  18.937   2.288  13.319  0.1464  0.1623  0.0123
 7801W        W23610   3.108  14.284  11.468  0.2786 -0.2315 -0.0322
 7802W        W23611  17.632   3.986  12.567  0.1159  0.1997 -0.2798
 7803W        W23612   2.732   4.274   3.539 -0.1123  0.1983 -0.0548
 7804W        W23613   6.791  10.958  12.846 -0.0269  0.1056  0.3593
 7805W        W23614  11.727   7.186   1.075 -0.2225  0.0379  0.1443
 7806W        W23615  18.652  17.548   1.113  0.1491 -0.0439  0.1266
 7807W        W23616   7.494   9.078   2.749  0.0403  0.0070  0.1024
 7808W        W23617  14.366  12.328   1.786 -0.4597  0.1027  0.3614
 7809W        W23618  11.074   5.059  13.988 -0.4138 -0.1126  0.0999
 7810W        W23619   6.052   9.729  11.573 -0.1825  0.1758 -0.0755
 7811W        W23620   4.940  10.304   4.523  0.2921  0.0737  0.1145
 7812W        W23621  11.747   2.327   2.639  0.0282  0.0200  0.0254
 7813W        W23622  11.372  12.296   2.564 -0.0130  0.0326 -0.1926
 7814W        W23623  18.502  11.240   5.056 -0.3298 -0.1739 -0.2891
 7815W        W23624   0.357  12.410  13.645 -0.2837  0.0390  0.5895
 7816W        W23625  18.974  11.211  13.532 -0.2475 -0.2633  0.0721
 7817W        W23626   0.433   7.217  12.729 -0.1660  0.2564 -0.1149
 7818W        W23627   5.903   0.946  10.505 -0.1443  0.2477 -0.0641
 7819W        W23628   0.810  12.513  10.519  0.0047  0.3487 -0.1083
 7820W        W23629   8.184   7.509   1.071 -0.0889  0.1080  0.4036
 7821W        W23630  10.265  18.811   3.324  0.2924  0.0439 -0.3606
 7822W        W23631  17.726   5.626   5.224 -0.1315  0.2841  0.2260
 7823W        W23632  14.290   9.901   5.262 -0.1658  0.0853  0.2888
 7824W        W23633  13.455  16.525   1.937 -0.3922 -0.0938 -0.2422
 7825W        W23634   2.896  12.960   1.509  0.3533 -0.0668  0.2386
 7826W        W23635  12.106  15.583   0.178  0.2193  0.1349  0.1587
 7827W        W23636  17.568  12.786   5.188  0.1666 -0.0308  0.3820
 7828W        W23637   1.190  18.656  13.182  0.0233  0.0512 -0.1281
 7829W        W23638   8.774  11.103   3.783 -0.1417 -0.2390  0.0861
 7830W        W23639   7.888  18.342   9.834  0.1426  0.0615  0.0107
 7831W        W23640  17.443  16.315   2.234  0.0498  0.1402 -0.1070
 7832W        W23641  14.353  10.536   4.453 -0.5202  0.0172 -0.4300
 7833W        W23642   1.649  19.138   1.001  0.0324 -0.2502  0.3315
 7834W        W23643   7.321  12.226  14.227 -0.0556 -0.3600  0.0422
 7835W        W23644  14.445   2.783   5.020 -0.3190  0.4153  0.0370
 7836W        W23645   2.080   8.030   3.456 -0.3777 -0.0966 -0.5927
 7837W        W23646  15.798  11.685   5.298  0.2313 -0.1208 -0.5679
 7838W        W23647   5.596   9.238   3.580 -0.0739  0.0366  0.1822
 7839W        W23648   1.905  11.626   2.865  0.0810 -0.3107  0.5049
 7840W        W23649   3.247  18.991  10.255  0.4063 -0.2690 -0.0468
 7841W        W23650  17.031   8.221   3.691  0.0579 -0.2515  0.0075
 7842W        W23651  19.057  13.690  11.488 -0.2362 -0.1255 -0.0903
 7843W        W23652   5.976  16.274  10.588 -0.3676  0.2254  0.1030
 7844W        W23653   4.763   5.721  11.459 -0.2116  0.2447 -0.0254
 7845W        W23654   6.683   0.355   3.647  0.3348  0.0969 -0.0466
 7846W        W23655  11.281   8.652  10.137 -0.1089  0.0436  0.2274
 7847W        W23656  13.421   2.010   1.420 -0.1730 -0.2720  0.1865
 7848W        W23657  13.758  15.618   5.080  0.2458  0.1826  0.0791
 7849W        W23658  16.834  15.023   6.169 -0.0468  0.0897 -0.1673
 7850W        W23659  16.275   8.533  12.353  0.1114  0.4033 -0.3704
 7851W        W23660  11.015  15.912  15.106 -0.1149  0.1607  0.1489
 7852W        W23661  12.602   6.284   9.896  0.1755 -0.1598  0.0368
 7853W        W23662   1.902  11.437  14.123 -0.1539 -0.1385  0.2862
 7854W        W23663  13.369   2.250   4.319  0.0143 -0.2528 -0.0291
 7855W        W23664   8.636   6.505   3.510  0.0832  0.3863 -0.2035
 7856W        W23665   4.168  18.071  12.871  0.1470  0.1565  0.2033
 7857W        W23666   6.999  10.755   3.972 -0.1871  0.0424 -0.0391
 7858W        W23667   8.204  11.699   5.234  0.1395 -0.1834 -0.2292
 7859W        W23668  16.583   7.665   2.523  0.1054  0.2148  0.0583
 7860W        W23669  12.979  11.784  13.674 -0.3356  0.0886  0.4436
 7861W        W23670   0.698   3.851   3.055  0.0336  0.5901  0.4893
 7862W        W23671   3.685  16.287  11.439  0.1722 -0.0239  0.2296
 7863W        W23672  12.661  12.106  13.552  0.0772  0.3693 -0.1516
 7864W        W23673  15.234   6.259   9.453  0.1140 -0.1413  0.1190
 7865W        W23674  16.677  14.389   3.599  0.2579  0.0685  0.1968
 7866W        W23675  17.322  17.040  14.322 -0.2885 -0.1300  0.1032
 7867W        W23676  10.192   8.827   9.751 -0.0502  0.0678 -0.1470
 7868W        W23677  11.527   0.677   0.557  0.0791 -0.2015 -0.3205
 7869W        W23678  11.998  15.321  14.940 -0.1381  0.0670 -0.1155
 7870W        W23679  18.400   7.499  10.514 -0.1825  0.1847  0.0257
 7871W        W23680   1.646  11.040  10.679 -0.0690  0.0114  0.1161
 7872W        W23681  16.219   2.313   0.701 -0.0348  0.1832 -0.1485
 7873W        W23682   8.425  13.483  13.585 -0.0460 -0.4899  0.1945
 7874W        W23683  11.324  16.616   0.484 -0.2515  0.3750  0.0935
 7875W        W23684   6.874  10.198  12.382  0.1049 -0.0339  0.0848
 7876W        W23685   5.657  13.480   3.052  0.3822  0.0080 -0.0736
 7877W        W23686   6.301   0.694   2.036 -0.1069 -0.3438 -0.0832
 7878W        W23687  11.404   4.604  11.493 -0.1727  0.0609 -0.0955
 7879W        W23688  16.650   1.674   4.371 -0.2580 -0.2843  0.0030
 7880W        W23689   2.772   6.668  14.196 -0.0105  0.1440  0.1501
 7881W        W23690   7.446   3.443   4.162 -0.1170 -0.0251  0.0950
 7882W        W23691   4.181   9.832   2.594  0.1564 -0.1727  0.1594
 7883W        W23692  17.632  16.967   0.080 -0.0423  0.0784 -0.1594
 7884W        W23693   8.178   4.678   5.598 -0.0553 -0.0927 -0.1757
 7885W        W23694   7.791  11.418   2.167  0.0406 -0.0162 -0.0244
 7886W        W23695   5.102  15.440   3.394 -0.0212  0.1203 -0.3496
 7887W        W23696  17.809  17.621   3.450  0.2234  0.0814  0.2853
 7888W        W23697   0.160  16.786   9.358 -0.0869 -0.3170 -0.0066
 7889W        W23698   7.373   6.597  12.683 -0.0342 -0.1643  0.1184
 7890W        W23699   5.501   3.900  14.653 -0.1303 -0.0102 -0.1751
 7891W        W23700   1.227  16.760  11.482 -0.0967 -0.1854 -0.2472
 7892W        W23701   4.060   5.746   4.138  0.0003 -0.4341 -0.2497
 7893W        W23702  15.586  12.493   2.164  0.1901  0.0779 -0.0730
 7894W        W23703  17.051  12.695  10.620 -0.0786 -0.0208 -0.1534
 7895W        W23704   7.406   1.708  10.532 -0.2840  0.0764 -0.4036
 7896W        W23705  10.986   3.224  15.202 -0.3116 -0.3439  0.1857
 7897W        W23706   2.359  11.233   4.832 -0.1955 -0.1620  0.1655
 7898W        W23707   4.908   0.949   1.715  0.2005  0.3063  0.4890
 7899W        W23708  18.275  18.403  10.777  0.1837 -0.0999  0.2864
 7900W        W23709  10.136   5.920  13.226 -0.0152 -0.0703 -0.1114
 7901W        W23710  18.288   3.948   0.347 -0.1289  0.2067  0.1466
 7902W        W23711  10.686  14.650   2.613  0.0481 -0.0574  0.2799
 7903W        W23712  16.779   3.457  15.070  0.0873  0.1095  0.0011
 7904W        W23713   4.316  12.481  10.947  0.2263  0.0359 -0.1806
 7905W        W23714   6.536  17.569  13.805  0.4122 -0.2323 -0.1714
 7906W        W23715  12.193   1.472  13.305 -0.0532 -0.5500  0.0988
 7907W        W23716   7.923   5.291  12.617 -0.0613 -0.2284  0.2886
 7908W        W23717   1.067   9.722   4.859  0.2241 -0.1937  0.2253
 7909W        W23718   9.883  16.701   3.859  0.0229 -0.1340  0.0749
 7910W        W23719  15.535   6.274   3.974 -0.1046 -0.3074  0.1816
 7911W        W23720  19.038   5.355   3.002  0.0282 -0.0438  0.3785
 7912W        W23721  18.248   3.486   5.102  0.0197  0.0045 -0.1340
 7913W        W23722   9.040   6.243  10.288  0.1991 -0.0268 -0.2705
 7914W        W23723  18.113   3.191   2.772  0.2706 -0.0268 -0.2372
 7915W        W23724   9.375  10.428  11.272 -0.0890 -0.1253  0.5596
 7916W        W23725   5.504  11.417   0.332  0.1603  0.2981  0.1006
 7917W        W23726   7.519   6.980  14.595  0.3297 -0.1914 -0.2002
 7918W        W23727   3.411   9.661   0.881  0.2575  0.1678  0.1225
 7919W        W23728   4.103   0.887   1.569  0.2546  0.0935 -0.3292
 7920W        W23729  16.634  10.906   9.709  0.0336  0.0166  0.0854
 7921W        W23730   0.252   4.639  13.810 -0.1970 -0.3823  0.0826
 7922W        W23731  14.965   0.637   2.200 -0.1846  0.2277  0.0188
 7923W        W23732  19.025  16.089   3.364  0.0232  0.0899  0.2990
 7924W        W23733   0.504  10.766  12.589 -0.0525 -0.5123  0.1880
 7925W        W23734   5.524   9.797  14.084 -0.1490 -0.2897  0.3047
 7926W        W23735   3.450   3.508   0.836  0.1247 -0.4459  0.0493
 7927W        W23736  10.517  14.372   5.750  0.3596  0.2190 -0.1696
 7928W        W23737  16.412   8.433   4.645 -0.0747  0.0538 -0.0092
 7929W        W23738  19.130   2.216  11.708  0.3728  0.1004 -0.1855
 7930W        W23739   4.608  16.681  11.696 -0.1872  0.1954 -0.1104
 7931W        W23740   8.937   8.275   0.143 -0.0409 -0.0619 -0.0765
 7932W        W23741   9.561  10.847  14.762 -0.0484  0.0158  0.0672
 7933W        W23742   1.382  15.008  13.601 -0.3761 -0.1041  0.2640
 7934W        W23743   0.819  16.954  11.603  0.1982  0.2684 -0.0857
 7935W        W23744  15.771  13.355  10.388  0.0522  0.2105  0.2181
 7936W        W23745  17.996  18.738   0.942 -0.0012  0.2676 -0.3978
 7937W        W23746  18.129  18.144   9.447 -0.2370  0.0191  0.1889
 7938W        W23747  15.418   0.649   4.580  0.0822  0.1948  0.0268
 7939W        W23748  18.309  18.295   0.492 -0.3138  0.0259  0.2048
 7940W        W23749   5.673   0.266   0.405  0.1205 -0.3419  0.1974
 7941W        W23750  15.617   2.986  15.021  0.0507 -0.0962  0.4214
 7942W        W23751   7.955   4.235  14.503 -0.1183  0.0433 -0.3885
 7943W        W23752   6.074   6.067   2.724  0.0708  0.1180  0.0390
 7944W        W23753   1.862   9.369   4.171 -0.0426 -0.0346 -0.2100
 7945W        W23754   6.263   0.865  13.523  0.3942  0.0304  0.1182
 7946W        W23755   7.638   9.019   3.518 -0.2398  0.0311  0.0673
 7947W        W23756  18.941  18.218  11.120 -0.3510 -0.0467 -0.3126
 7948W        W23757  16.206   0.123   2.080  0.1447 -0.0517  0.0202
 7949W        W23758   7.884   8.632  12.927  0.2508  0.2679  0.2948
 7950W        W23759   5.559   9.123  11.409  0.1127  0.1268  0.3818
 7951W        W23760  13.837   6.086   4.317  0.0883  0.1165  0.0649
 7952W        W23761   9.211  15.796   1.954 -0.3790 -0.1866  0.1432
 7953W        W23762   7.519  16.308  14.238  0.1099 -0.0040  0.1013
 7954W        W23763   4.358   1.430  13.938 -0.0496 -0.1442  0.2464
 7955W        W23764   1.975  10.223  10.956 -0.1553 -0.0079  0.2333
 7956W        W23765  16.124   4.973   4.890  0.0200  0.1808  0.0164
 7957W        W23766  10.194   8.660  10.970  0.0299 -0.1418 -0.2848
 7958W        W23767   0.570  18.572   2.846 -0.4375  0.1706 -0.0710
 7959W        W23768   7.838   4.682  10.757 -0.3721 -0.2123 -0.1474
 7960W        W23769  15.487  17.296   3.184 -0.0965 -0.1076 -0.1315
 7961W        W23770  16.107  12.398   2.459 -0.1004 -0.2909  0.0497
 7962W        W23771  11.484   9.897  13.445  0.0483  0.0281 -0.1164
 7963W        W23772  19.081   0.992   3.663 -0.2639  0.0708 -0.0862
 7964W        W23773   1.214   1.678   5.777  0.3395 -0.2448 -0.0198
 7965W        W23774   4.292   1.046  12.720 -0.4153 -0.0605 -0.1994
 7966W        W23775  14.863   6.753  10.308 -0.1863  0.1075 -0.1353
 7967W        W23776   2.295  13.867  11.382 -0.4306 -0.0432 -0.0353
 7968W        W23777   4.749   2.389   2.133 -0.0877 -0.0491  0.0486
 7969W        W23778  14.787  15.566   0.586  0.4390  0.1936 -0.4733
 7970W        W23779   5.692   6.541   3.912  0.0298 -0.4900 -0.2926
 7971W        W23780   4.419   5.219   1.859 -0.2730  0.4394  0.0860
 7972W        W23781   1.176   1.096   3.666 -0.1657 -0.0353  0.0181
 7973W        W23782   2.198   1.728   1.121  0.0102 -0.2043 -0.5035
 7974W        W23783   5.247  14.830  12.829 -0.2029 -0.2366  0.3654
 7975W        W23784  13.554  18.713  13.736 -0.0981  0.3511 -0.1362
 7976W        W23785   8.114   3.513  13.048 -0.0373 -0.5729  0.0206
 7977W        W23786   3.413  14.911  13.576  0.0436 -0.0110  0.2328
 7978W        W23787  17.477  10.180   0.464  0.1589 -0.0329 -0.1746
 7979W        W23788   3.494  11.311  15.193  0.0892  0.3382  0.1661
 7980W        W23789   7.322  12.406  13.283  0.0335 -0.0924 -0.0501
 7981W        W23790   0.423   0.190   0.370 -0.1468  0.0795  0.3710
 7982W        W23791   4.501  19.068  15.141 -0.0163 -0.0633  0.1375
 7983W        W23792   0.472   9.790   4.526 -0.2453 -0.1082  0.2692
 7984W        W23793   6.719   4.343  12.245  0.0165  0.0214  0.0755
 7985W        W23794   6.383  12.848  12.722 -0.0380 -0.2293 -0.2675
 7986W        W23795   6.512   9.034   3.801  0.3291 -0.2139  0.2265
 7987W        W23796  16.873  10.562  15.138  0.2239 -0.0367 -0.1600
 7988W        W23797   9.843  16.466   5.472  0.3895 -0.0229  0.3231
 7989W        W23798  15.475   2.220  11.744  0.2482 -0.0738 -0.2289
 7990W        W23799   0.558  14.742   4.332 -0.1779  0.3064 -0.3057
 7991W        W23800  12.666  16.609   2.300 -0.1428  0.2472  0.0421
 7992W        W23801  14.477   4.490   0.450 -0.2016  0.2585 -0.0749
 7993W        W23802   1.681   8.298  10.091 -0.0635 -0.3520  0.2748
 7994W        W23803  13.444  17.688   6.331 -0.0903 -0.2182  0.0252
 7995W        W23804   2.960   6.066  11.960 -0.0549 -0.2375  0.0317
 7996W        W23805   6.167  12.258  15.074  0.2432 -0.2344  0.1700
 7997W        W23806  16.016  13.604  10.847  0.1494  0.3408 -0.2215
 7998W        W23807   9.038   2.219   2.647 -0.0720  0.0780  0.0273
 7999W        W23808  16.117   4.399   3.276 -0.0845 -0.2824 -0.0201
 8000W        W23809   1.593   1.333   4.958 -0.0175 -0.0088  0.1909
 8001W        W23810   5.754  14.951   4.483 -0.1686  0.0811 -0.2233
 8002W        W23811   5.581  17.387   0.257 -0.0733 -0.0624  0.0644
 8003W        W23812   3.379  12.380  12.619  0.0033 -0.2364  0.1208
 8004W        W23813   2.708  16.154  10.178  0.3695 -0.0732 -0.0870
 8005W        W23814   8.078  13.075  10.841  0.0419 -0.2010 -0.1687
 8006W        W23815  13.597   2.660  10.681  0.0190  0.1874  0.3469
 8007W        W23816  10.580   0.409  13.461 -0.1416  0.0672  0.2966
 8008W        W23817  11.030  14.258  14.144 -0.0159  0.3781 -0.0960
 8009W        W23818   1.074  15.114   1.301  0.0428  0.0887  0.1094
 8010W        W23819   1.743   1.023   0.552  0.1412 -0.2526  0.1888
 8011W        W23820  16.175  17.965   3.649  0.0012  0.0315 -0.1787
 8012W        W23821   9.429  15.702  14.447 -0.0683 -0.3881 -0.1470
 8013W        W23822  10.304  15.205   1.114  0.0891 -0.0479  0.0408
 8014W        W23823   1.380  18.052  11.965 -0.1351  0.0113  0.1671
 8015W        W23824  13.237  12.514   4.092 -0.0971  0.3477  0.2372
 8016W        W23825   0.701   6.836   2.124 -0.0967  0.1273 -0.2805
 8017W        W23826  13.190   9.858   4.824 -0.1472 -0.2756  0.3099
 8018W        W23827  10.384   7.711  13.972  0.1603  0.2366  0.0844
 8019W        W23828   1.165   4.772   0.841 -0.3616 -0.0715 -0.1801
 8020W        W23829  11.918   7.531   2.820  0.3415 -0.4465  0.2883
 8021W        W23830   9.795   3.162  14.452  0.2033  0.0925  0.0711
 8022W        W23831  15.512  18.038   0.628  0.0853  0.0050 -0.0715
 8023W        W23832   1.194   7.407   2.635  0.1183 -0.0944  0.0210
 8024W        W23833  15.252   7.806  13.009 -0.3696 -0.0332 -0.2209
 8025W        W23834  16.757  12.162  14.213 -0.0946  0.0102  0.0538
 8026W        W23835  12.186   3.858   1.270  0.2770 -0.4134  0.3141
 8027W        W23836   4.808   9.836   3.446 -0.2746  0.0142  0.0001
 8028W        W23837   2.116  13.925   4.376  0.2318 -0.4684  0.0084
 8029W        W23838   6.298   2.450   6.087  0.1340  0.2884  0.0988
 8030W        W23839   0.155   6.017   4.239  0.1161 -0.0996  0.2381
 8031W        W23840  10.364   7.310   4.149 -0.2300  0.0097  0.2488
 8032W        W23841   5.398   7.550  13.815  0.0483 -0.3941 -0.0154
 8033W        W23842  15.300  11.750   5.141 -0.2231  0.0234 -0.3985
 8034W        W23843   7.606   8.457  10.864  0.2220 -0.0969  0.0493
 8035W        W23844   3.681   2.147   2.035  0.1632  0.1179 -0.0958
 8036W        W23845  14.566  10.204   1.590  0.1646  0.2179 -0.2437
 8037W        W23846  17.396   8.432   0.964  0.0583  0.0685  0.2703
 8038W        W23847  13.081   0.131  11.314 -0.3235  0.2004  0.1933
 8039W        W23848  12.171   1.885   5.876  0.3216  0.1763  0.0104
 8040W        W23849  13.715   1.395  13.242  0.2961 -0.2852 -0.0390
 8041W        W23850   9.174  11.571   3.058 -0.2174 -0.0302 -0.3841
 8042W        W23851  15.568   5.536  13.018  0.0957 -0.2241  0.0685
 8043W        W23852   6.946   7.247  10.007 -0.2081 -0.1659  0.0344
 8044W        W23853  10.858   7.760   2.728 -0.0749  0.2407  0.0295
 8045W        W23854   2.332   1.753  12.975  0.1271 -0.0472  0.2503
 8046W        W23855   8.408  14.108   0.088  0.2007 -0.0512  0.1707
 8047W        W23856   3.017   1.836   0.669 -0.1304 -0.1983  0.0286
 8048W        W23857   7.171  17.898  10.555  0.0294 -0.1044  0.3151
 8049W        W23858  13.109   5.327  14.502  0.1460  0.2447  0.0182
 8050W        W23859  15.298  11.148  12.499 -0.2277  0.3187 -0.1693
 8051W        W23860   2.616   6.232  14.347  0.2062  0.0573 -0.0445
 8052W        W23861  17.070   2.903   4.384 -0.1935  0.1323 -0.2196
 8053W        W23862   7.880   4.940  12.195 -0.2709 -0.2637 -0.1004
 8054W        W23863   5.768  17.219   3.026  0.1462  0.2858 -0.1421
 8055W        W23864  12.026  11.157   2.438 -0.1721  0.0147 -0.0367
 8056W        W23865  16.173  18.783   4.536  0.0244  0.1623 -0.2554
 8057W        W23866  12.089  17.015   2.937  0.0724 -0.3955  0.5292
 8058W        W23867  12.496   1.147   5.190  0.0738 -0.1507  0.0066
 8059W        W23868  15.780  16.197   5.362 -0.0330  0.1138  0.1463
 8060W        W23869  15.377  16.513  14.692 -0.0743 -0.0627 -0.5496
 8061W        W23870   5.877   4.649   2.371  0.0906 -0.2014 -0.0837
 8062W        W23871  12.261  16.076  15.180  0.0410  0.1919 -0.2624
 8063W        W23872   6.514  14.312   1.629  0.1336  0.1236 -0.0521
 8064W        W23873   0.253  17.872  14.415 -0.2965 -0.1594  0.0916
 8065W        W23874  14.890  14.239   0.347 -0.2946 -0.0090  0.0006
 8066W        W23875  14.025  11.773  13.691  0.0156 -0.1011 -0.2344
 8067W        W23876   3.294   7.126  15.082  0.0051  0.1172 -0.0433
 8068W        W23877  15.447  10.686   1.094  0.0345  0.0173 -0.1042
 8069W        W23878   1.622  14.966  13.069  0.1074 -0.0146 -0.1762
 8070W        W23879   3.682  14.397  10.247  0.4078  0.1675  0.1347
 8071W        W23880  16.669  18.160   2.555 -0.1147 -0.3719  0.2335
 8072W        W23881  13.868  18.307  13.992 -0.1441  0.0876 -0.3648
 8073W        W23882  14.985  12.106   2.660 -0.3398  0.0693  0.0797
 8074W        W23883   3.422  18.458   9.747 -0.0020 -0.1002  0.1395
 8075W        W23884  12.084   6.869  10.878 -0.0179  0.0370 -0.1532
 8076W        W23885   7.488  14.495   3.285  0.1244  0.2721  0.4127
 8077W        W23886   4.569  10.090   2.536  0.0673  0.1626 -0.0657
 8078W        W23887  16.360  17.715  14.963 -0.0004 -0.1723 -0.0807
 8079W        W23888   0.798  18.122   0.833  0.0754 -0.2543 -0.2689
 8080W        W23889  18.403  11.102  11.309  0.3474  0.3508 -0.0711
 8081W        W23890  15.570  12.579   5.383 -0.1511  0.1518  0.0836
 8082W        W23891  13.887   8.129  12.551  0.0475 -0.1529 -0.3445
 8083W        W23892   5.248  10.461   3.252 -0.3931 -0.2802  0.3582
 8084W        W23893   4.819   3.468   2.738 -0.4752 -0.0770 -0.3584
 8085W        W23894  14.839   4.193   1.524  0.1673 -0.1149  0.0278
 8086W        W23895  17.248   3.513  15.083  0.1272 -0.1135 -0.1803
 8087W        W23896   3.143   9.906   2.897  0.2552 -0.0783  0.1596
 8088W        W23897  16.919   8.320  14.555 -0.2047  0.1068  0.1427
 8089W        W23898  12.285  15.977   0.748  0.0874  0.1175 -0.1232
 8090W        W23899  11.567   2.123  10.854 -0.1098 -0.2323  0.2130
 8091W        W23900   1.369  12.721   2.992  0.0488  0.1200  0.2199
 8092W        W23901  17.988   5.231  14.934 -0.1601 -0.0637  0.1070
 8093W        W23902   5.661   7.981  10.484 -0.2757 -0.1737  0.4059
 8094W        W23903  16.080   0.304  13.274  0.1241  0.0681 -0.0800
 8095W        W23904  15.922   4.842   0.718  0.0049  0.1536  0.0233
 8096W        W23905   0.148   5.498  14.924  0.1181 -0.0295  0.0342
 8097W        W23906   9.807   7.938  11.532 -0.2856  0.1544  0.5186
 8098W        W23907   2.096  12.262  13.736 -0.1247 -0.1983 -0.1525
 8099W        W23908   1.867  16.812   2.596  0.0852  0.1177  0.0948
 8100W        W23909   1.186   0.464  12.756  0.1699  0.1177 -0.1450
 8101W        W23910   5.796  16.701   2.802 -0.2039  0.2614  0.0578
 8102W        W23911  10.232   2.732   1.537  0.0629  0.1008  0.2357
 8103W        W23912  13.154   8.510  13.767  0.0178  0.4288 -0.0687
 8104W        W23913  17.116   3.556   3.680 -0.0821  0.2491 -0.1029
 8105W        W23914   3.034   1.424  12.320  0.1402 -0.1528  0.1337
 8106W        W23915  14.226  11.057   4.580 -0.1501 -0.1807  0.3861
 8107W        W23916   7.952  14.448   4.014  0.1091  0.0839  0.0747
 8108W        W23917   7.381  12.400   4.545  0.0493 -0.0054  0.0978
 8109W        W23918   2.568   1.352  12.150  0.0014  0.1228 -0.0887
 8110W        W23919  16.727   6.890   0.582 -0.1671 -0.0029  0.4139
 8111W        W23920   0.811  14.898   3.051 -0.0967 -0.2788 -0.1070
 8112W        W23921   6.863  13.021  12.017 -0.0349 -0.2206  0.0248
 8113W        W23922  17.542   9.925  11.959  0.2699 -0.1525  0.5353
 8114W        W23923  13.948   1.183   1.941  0.1138  0.3365 -0.2270
 8115W        W23924   3.054  14.444   3.295  0.0300  0.0003  0.2508
 8116W        W23925   6.225   2.571   2.003  0.0588  0.1780  0.0279
 8117W        W23926  16.670  13.645  15.160 -0.4021  0.2251 -0.0521
 8118W        W23927  11.776   9.410   4.137  0.0883 -0.1390 -0.2973
 8119W        W23928   7.316  13.333   4.125 -0.0350  0.0039 -0.0963
 8120W        W23929   6.994  17.995   2.111  0.0094 -0.0409 -0.0749
 8121W        W23930   4.991   4.945   4.494  0.1107 -0.1246  0.1087
 8122W        W23931  10.831  15.254  11.111  0.3260 -0.0131  0.0269
 8123W        W23932  13.142   7.786   4.376 -0.2086  0.0005 -0.0349
 8124W        W23933   5.456  19.080  12.728  0.0068  0.2724  0.2085
 8125W        W23934  12.404  10.160  10.536  0.0774 -0.0598 -0.0394
 8126W        W23935  15.454   4.580  14.473 -0.1894  0.1369  0.3159
 8127W        W23936   3.453   9.319  13.222 -0.3563  0.1032  0.1296
 8128W        W23937   9.449  13.678  12.826 -0.2020 -0.1018  0.0180
 8129W        W23938   0.335   5.124   1.106  0.1550 -0.2049  0.1356
 8130W        W23939  10.688   7.307   5.151 -0.0699  0.2165  0.2392
 8131W        W23940   7.833  15.454   4.650  0.1686 -0.0173 -0.0814
 8132W        W23941  10.001   3.571  12.364  0.0264  0.1876 -0.0403
 8133W        W23942   4.990   8.699   3.549 -0.0802 -0.0535 -0.6474
 8134W        W23943   1.671   2.726   2.588  0.0161  0.0489 -0.0439
 8135W        W23944   4.099   0.514  13.628  0.0753 -0.1391 -0.2117
 8136W        W23945   3.677   4.854   2.160  0.1257 -0.2908  0.2119
 8137W        W23946  14.411   0.999   3.709  0.3135 -0.1031  0.2086
 8138W        W23947   6.782   3.354  11.198 -0.3022  0.2930 -0.1445
 8139W        W23948  15.613  13.492  14.799  0.0071 -0.1730  0.1068
 8140W        W23949   9.662   2.575   2.941  0.0768 -0.1882  0.1288
 8141W        W23950  14.442   4.716   4.165  0.0798 -0.0031  0.0269
 8142W        W23951  11.025  12.560   0.089  0.3774  0.2378 -0.0104
 8143W        W23952   8.150   7.311   3.635 -0.0884  0.0786  0.0086
 8144W        W23953  18.256  18.133   3.901  0.0744 -0.2989  0.0131
 8145W        W23954   2.764   3.545  12.479 -0.1707 -0.0241 -0.5703
 8146W        W23955  16.902  13.947  11.174  0.1294 -0.0777 -0.2796
 8147W        W23956   4.369   4.254  11.741 -0.3867  0.2156  0.0631
 8148W        W23957  18.654  14.452  11.575  0.0074  0.0391 -0.1942
 8149W        W23958  10.975   4.117  11.926 -0.0229 -0.0076  0.2512
 8150W        W23959  16.401  12.641  12.948 -0.3300 -0.2023 -0.0976
 8151W        W23960  10.100  17.756   3.235 -0.0636 -0.1222 -0.0715
 8152W        W23961  13.586   0.365   5.356  0.1037 -0.1201  0.0659
 8153W        W23962  11.967  17.585   0.035 -0.0357  0.0285  0.0413
 8154W        W23963  15.034  17.141   4.005  0.1297  0.1685  0.1458
 8155W        W23964  13.755  18.081   0.161 -0.3499 -0.0286  0.1263
 8156W        W23965  16.655  11.404   5.618 -0.0799  0.0498  0.0243
 8157W        W23966  10.111   0.520   4.156  0.0665  0.1405  0.0153
 8158W        W23967   7.197  16.384   5.392  0.0128 -0.0002 -0.1015
 8159W        W23968   1.552  12.298   2.393 -0.3186 -0.2728  0.1470
 8160W        W23969   2.998  12.508  10.721  0.0307 -0.0332  0.0071
 8161W        W23970   4.898   9.634  11.479  0.2567  0.2223  0.2081
 8162W        W23971  14.458   1.460   4.244  0.3130  0.0002  0.2773
 8163W        W23972   5.651   6.010  10.132  0.1080 -0.0115  0.3505
 8164W        W23973  16.131  14.915   2.498  0.0010  0.0076 -0.1118
 8165W        W23974   3.417   9.749   1.549  0.1864 -0.1433  0.0215
 8166W        W23975   7.547   5.071  10.841 -0.0278 -0.0331  0.2243
 8167W        W23976   8.151  12.731   2.728  0.4462  0.0645  0.0908
 8168W        W23977  11.848  12.767   6.021 -0.1575 -0.0075 -0.3659
 8169W        W23978  16.430   4.432   2.443  0.3203  0.4604 -0.0101
 8170W        W23979  10.745   8.115   0.582  0.1036  0.4016 -0.1263
 8171W        W23980   0.342   6.416  11.092 -0.1804  0.1540  0.0962
 8172W        W23981   6.934  12.601  15.095 -0.2713 -0.1584  0.0808
 8173W        W23982  13.691   4.857   4.381  0.1370  0.0238  0.3702
 8174W        W23983  17.684  14.498   2.286  0.1231  0.0854 -0.3669
 8175W        W23984  12.385  12.991  14.304  0.1874  0.1277  0.0329
 8176W        W23985   2.196   6.593   3.909 -0.0752  0.1578  0.0426
 8177W        W23986   8.223   1.534  10.119 -0.1714  0.1519 -0.2351
 8178W        W23987  12.940   4.447  10.617 -0.1366  0.1689 -0.0450
 8179W        W23988   2.063  17.319   4.246 -0.1131  0.0882 -0.1870
 8180W        W23989   8.808   6.143  11.677  0.0649 -0.2545  0.1292
 8181W        W23990   6.693   1.832  10.929  0.0430 -0.4547 -0.1302
 8182W        W23991   3.912   4.485   2.391 -0.1353 -0.1111  0.2760
 8183W        W23992   6.916   3.237  14.340 -0.0812  0.4768 -0.2517
 8184W        W23993   7.022  13.678   1.777 -0.1859  0.3047  0.2249
 8185W        W23994   5.798  17.096   4.571 -0.0991 -0.1957  0.0598
 8186W        W23995   8.084  13.274   1.162 -0.1226  0.3776  0.1434
 8187W        W23996  18.370   1.806   0.361 -0.1060  0.1477  0.2206
 8188W        W23997   9.724  13.757  14.086  0.2724  0.1360  0.1281
 8189W        W23998   0.636  15.090   2.650  0.0940  0.2599 -0.1532
 8190W        W23999  12.867  18.811  12.890  0.1242 -0.2094 -0.1391
 8191W        W24000   4.612   7.324   2.382  0.3920 -0.4041 -0.2720
 8192W        W24001   4.006   7.792  15.027 -0.0935 -0.0299  0.2762
 8193W        W24002   8.838  11.163  13.636 -0.1868 -0.1021  0.0220
 8194W        W24003   0.265  11.887   1.957 -0.5053 -0.0003  0.8090
 8195W        W24004   7.048   9.499  10.325  0.0476  0.1887  0.1859
 8196W        W24005  17.749  16.173   5.101  0.3180  0.0003  0.0324
 8197W        W24006   5.056   7.883  11.083 -0.2368 -0.0718 -0.1138
 8198W        W24007  15.478   5.489  13.556  0.1621  0.0214  0.3076
 8199W        W24008  10.613   0.022   1.130 -0.0426 -0.1438 -0.0899
 8200W        W24009   5.743   4.517   4.432 -0.1870 -0.0318 -0.0498
 8201W        W24010   3.613  11.485   2.955 -0.0703  0.0059 -0.1197
 8202W        W24011  13.623   0.185   0.912 -0.2027  0.1672  0.1089
 8203W        W24012   4.265   7.299   0.989  0.0940  0.0308 -0.0293
 8204W        W24013   3.477   8.329  11.179  0.3851 -0.0965  0.0146
 8205W        W24014  18.796   0.136   0.883 -0.2558  0.1512  0.2094
 8206W        W24015   0.823   0.881  11.986 -0.0420  0.0957 -0.2201
 8207W        W24016   4.118  15.456  11.146  0.0567 -0.1285  0.0187
 8208W        W24017  15.500   9.932   0.425 -0.0367 -0.0382  0.2356
 8209W        W24018  16.815   8.263   3.255 -0.0564  0.1065 -0.0494
 8210W        W24019  17.794   2.032   5.023 -0.1134 -0.2560  0.1721
 8211W        W24020  17.074  15.934   2.274  0.1284 -0.0262  0.2122
 8212W        W24021   7.780   6.799   3.021  0.0400  0.0416 -0.1160
 8213W        W24022   7.639   0.373   2.318  0.2498  0.1790  0.1843
 8214W        W24023  17.955   4.288  14.189 -0.0951  0.0725 -0.1939
 8215W        W24024   8.588  17.935   1.014 -0.2601 -0.2960  0.2475
 8216W        W24025  18.420  17.594  10.589  0.0268 -0.3036  0.1095
 8217W        W24026  16.800   7.791   0.349 -0.0985 -0.1748 -0.2904
 8218W        W24027  10.926   4.361   2.469 -0.1899 -0.1736 -0.0740
 8219W        W24028   6.188   2.187  12.497 -0.0598 -0.0364  0.0881
 8220W        W24029   8.968  17.814   2.051 -0.2241 -0.1880  0.0403
 8221W        W24030  11.191   6.767   0.040  0.3206 -0.3191 -0.2537
 8222W        W24031   5.390  14.666   2.856  0.3321 -0.0516  0.1588
 8223W        W24032  10.581   6.939   2.975 -0.0288 -0.0470  0.1831
 8224W        W24033  16.694  17.660  14.107  0.1534 -0.0592  0.1974
 8225W        W24034   6.537   5.444  14.162  0.1734 -0.3633  0.0226
 8226W        W24035   2.257  14.853   3.186 -0.1619  0.0441  0.0417
 8227W        W24036  15.683   0.471  11.383  0.0756 -0.0581 -0.1287
 8228W        W24037  17.009  18.677  15.123  0.1781  0.0940  0.3722
 8229W        W24038  13.646  10.546  13.567 -0.4917  0.0970  0.0118
 8230W        W24039   0.725  16.496   0.874 -0.3930  0.0077  0.0307
 8231W        W24040   6.179   7.296  14.610 -0.3060 -0.5863 -0.4205
 8232W        W24041   5.946   1.906  10.571  0.0551  0.0195 -0.1632
 8233W        W24042  11.844  11.249   0.484  0.0591 -0.0645  0.2063
 8234W        W24043   1.248  10.129  10.374 -0.0444  0.1768  0.1113
 8235W        W24044   4.903   5.370   1.284 -0.0098 -0.2742 -0.2209
 8236W        W24045  17.031  13.190   2.055 -0.3471  0.2370 -0.2870
 8237W        W24046   8.073  12.589  11.622  0.2665  0.1109 -0.1332
 8238W        W24047  16.782   5.615   4.354  0.3562  0.1089  0.1530
 8239W        W24048   2.636  17.534  12.425 -0.0482 -0.2576  0.0878
 8240W        W24049   1.380   1.340  14.900  0.1130  0.0656 -0.0702
 8241W        W24050  18.287  14.313  10.247  0.2573 -0.2306  0.1792
 8242W        W24051  12.906  10.679  10.904 -0.3370 -0.0208  0.1272
 8243W        W24052  17.939  17.581  13.677  0.0585  0.1015  0.2170
 8244W        W24053  15.399   2.704  12.260 -0.2192 -0.1355  0.2153
 8245W        W24054  17.815  16.554   1.271  0.1948 -0.0486  0.0292
 8246W        W24055  14.861   1.518   3.953  0.2791 -0.0355 -0.2100
 8247W        W24056   6.615  17.509   4.132 -0.0841 -0.2610  0.0848
 8248W        W24057   4.220   7.102   4.561  0.0736 -0.0844 -0.0095
 8249W        W24058  19.121   0.570  13.751 -0.2926 -0.0187  0.1484
 8250W        W24059  13.641   9.786  11.251  0.0687  0.1412 -0.1839
 8251W        W24060  14.100  17.021   4.703  0.0419  0.0205  0.2525
 8252W        W24061   1.002  16.169   3.510  0.2929  0.0919 -0.3557
 8253W        W24062  10.948  13.727  14.391 -0.2720 -0.0225  0.4819
 8254W        W24063  16.012   2.973   1.439 -0.1859 -0.0826  0.2526
 8255W        W24064   2.213  11.120   3.424 -0.1719  0.1638  0.2364
 8256W        W24065  15.934  11.683  12.866  0.0991 -0.0019  0.1037
 8257W        W24066  18.789  18.500  10.660  0.2136  0.0586  0.2932
 8258W        W24067  13.916  11.494  11.277 -0.0285  0.1939 -0.2257
 8259W        W24068   4.668  13.086   1.303 -0.0419  0.3153 -0.1122
 8260W        W24069   5.664   3.655  14.086 -0.2500  0.3114 -0.0593
 8261W        W24070   1.216  15.943  12.333  0.3939  0.0624 -0.0460
 8262W        W24071   1.799   1.353   1.390 -0.0441 -0.0748  0.1824
 8263W        W24072  14.560   4.481   4.605  0.0943 -0.0591  0.3558
 8264W        W24073   9.000   7.057  12.382  0.0657  0.2255 -0.0996
 8265W        W24074   1.699  11.095   3.663  0.2475  0.1873 -0.1809
 8266W        W24075  18.104   3.901   1.998  0.2081 -0.1680  0.0816
 8267W        W24076  11.812   7.093   2.601  0.1549  0.3182 -0.1260
 8268W        W24077   1.424   6.340  11.629  0.1955  0.1333 -0.0338
 8269W        W24078  17.408   6.954   4.912 -0.3059 -0.2485 -0.3582
 8270W        W24079  16.386   3.269  10.163 -0.2482 -0.0976  0.2477
 8271W        W24080   7.314  12.369   5.021 -0.3093 -0.1092 -0.0812
 8272W        W24081   5.026  11.240   0.520 -0.3123 -0.1699  0.1928
 8273W        W24082   4.470   9.226  10.771 -0.0061 -0.1693 -0.0141
 8274W        W24083   1.908   2.851  14.746 -0.0399  0.0270  0.1975
 8275W        W24084  14.135   0.607   1.391  0.3590 -0.1337  0.1000
 8276W        W24085  15.960  14.602   4.857 -0.0180 -0.0678 -0.0254
 8277W        W24086  10.337  17.670   2.441  0.1394 -0.0386 -0.1525
 8278W        W24087  16.617  18.755   4.543  0.0644  0.0759  0.0532
 8279W        W24088  17.697   0.623   2.961 -0.2421  0.0610  0.1531
 8280W        W24089   0.441  13.935  10.562 -0.0606 -0.1082 -0.0692
 8281W        W24090  11.282  13.358  14.130  0.0857 -0.1689 -0.0049
 8282W        W24091  17.805  12.847   5.626 -0.1137  0.0127 -0.0618
 8283W        W24092   3.631  12.172   2.408  0.1886 -0.0710  0.1753
 8284W        W24093   0.337   7.324   2.288 -0.0943  0.0956  0.0392
 8285W        W24094   2.191   2.270  14.174  0.0676 -0.1442  0.2999
 8286W        W24095  10.947  14.085  10.608  0.1669  0.0496  0.0373
 8287W        W24096  14.282   5.962   2.386 -0.0445 -0.1327  0.1758
 8288W        W24097   6.475   1.712   0.715 -0.3541  0.0678 -0.1439
 8289W        W24098  11.127   1.434   0.941 -0.0102  0.1431  0.0837
 8290W        W24099  17.169  11.669  10.936 -0.0117  0.2376  0.1108
 8291W        W24100  10.117  17.436   5.325 -0.0907  0.3420  0.0019
 8292W        W24101   8.952  14.830   3.491 -0.1195 -0.4484 -0.2399
 8293W        W24102   2.742   5.762   9.509  0.2812 -0.7395 -0.1314
 8294W        W24103  16.405  17.682   5.091  0.1059 -0.0924  0.0663
 8295W        W24104  14.479   4.841  11.773 -0.1459  0.0788  0.1497
 8296W        W24105  10.300   4.711  15.003 -0.0190 -0.2798 -0.2385
 8297W        W24106   6.901  10.869   4.733 -0.1088 -0.2712  0.1956
 8298W        W24107   6.715  14.090  12.196 -0.0770  0.0452 -0.0575
 8299W        W24108  16.746  15.941  11.430  0.0496 -0.0494 -0.0942
 8300W        W24109  18.349   0.332  10.187 -0.3755  0.0211  0.0241
 8301W        W24110  10.423   2.757  13.570  0.2397  0.2044  0.0229
 8302W        W24111   4.930   0.656  14.191 -0.0853 -0.2443 -0.1173
 8303W        W24112   7.457  10.606   2.821 -0.1312 -0.0018 -0.1547
 8304W        W24113   4.387  11.429  13.861 -0.1039 -0.3787  0.0938
 8305W        W24114   6.495  16.800  10.936  0.0695  0.0008 -0.1043
 8306W        W24115  16.650  11.579  15.087  0.4464 -0.1120  0.0789
 8307W        W24116  15.792  13.263   2.688 -0.2000  0.0083 -0.2962
 8308W        W24117   6.573  16.311  11.060  0.3146  0.2516 -0.0560
 8309W        W24118   9.674   0.445   4.938  0.1442  0.0680  0.0249
 8310W        W24119   5.887  15.867   9.261  0.2604 -0.0959  0.4182
 8311W        W24120   0.775   4.735   1.257  0.0482 -0.2557 -0.2455
 8312W        W24121   6.857   2.218   0.143 -0.2698  0.0631  0.0909
 8313W        W24122   2.774   0.802  10.991 -0.3137 -0.2705 -0.1600
 8314W        W24123   5.317  14.012  11.073 -0.2654  0.2768 -0.1743
 8315W        W24124   1.636  18.846  14.004  0.2625  0.2732  0.3435
 8316W        W24125  15.937  16.327  14.613  0.1388 -0.2812  0.0588
 8317W        W24126   8.991   8.393   3.277 -0.3881 -0.0519 -0.0695
 8318W        W24127  14.574  15.610   4.358  0.3419 -0.1598  0.1278
 8319W        W24128   1.909   9.762   5.019  0.2022 -0.2708  0.0251
 8320W        W24129  14.118  18.681  12.779 -0.0580 -0.1508  0.1800
 8321W        W24130  14.309   8.737   1.703 -0.2310 -0.2641 -0.2041
 8322W        W24131   9.200   0.355   0.015 -0.1172  0.2483 -0.2060
 8323W        W24132   0.485   3.348  14.058  0.3075 -0.2233 -0.0527
 8324W        W24133   4.917   7.733  13.825 -0.0220  0.0833 -0.2357
 8325W        W24134   0.268  11.278   0.884  0.1552 -0.1790  0.1670
 8326W        W24135   8.566   4.659   4.449  0.1860 -0.0785 -0.2417
 8327W        W24136   0.100  13.605  12.030  0.0158  0.0470  0.0122
 8328W        W24137   5.107   2.746  10.937 -0.0513  0.2981  0.2359
 8329W        W24138  12.764   6.450  10.357 -0.1369 -0.3619  0.2815
 8330W        W24139  15.091  14.188   0.856  0.2759  0.0507  0.4925
 8331W        W24140   9.492  16.118   2.843  0.2402 -0.0373 -0.1583
 8332W        W24141  12.958  16.656   2.760  0.0501 -0.1129  0.0201
 8333W        W24142  15.609  15.032  14.644  0.3144  0.5563  0.0942
 8334W        W24143   1.308   2.126   3.311  0.2445 -0.0630  0.3849
 8335W        W24144  18.551  12.123   2.845  0.0944 -0.1474  0.1635
 8336W        W24145  11.222   1.490  14.130  0.2910  0.4300  0.2236
 8337W        W24146   8.291  14.015   1.143  0.1097  0.0474 -0.0116
 8338W        W24147   6.500   7.328  10.461 -0.1759 -0.1600 -0.0202
 8339W        W24148   9.160  15.461  10.946  0.1178 -0.0506 -0.1792
 8340W        W24149   9.085   4.486   0.426  0.0333 -0.3225  0.1746
 8341W        W24150  11.830  16.623  13.370  0.2729 -0.1153 -0.1664
 8342W        W24151  14.069   5.289  13.620 -0.0656 -0.0376  0.0499
 8343W        W24152  12.561   7.122  15.060  0.1560  0.0555 -0.4482
 8344W        W24153  17.512   9.320   1.284  0.1601 -0.1189 -0.0174
 8345W        W24154  17.368   6.157  13.164 -0.1144 -0.1112 -0.1552
 8346W        W24155  17.989   8.722  12.793  0.0410  0.1210  0.1568
 8347W        W24156   5.540   7.935   5.360  0.4161  0.2893  0.0167
 8348W        W24157   8.434   3.707  10.204 -0.1036 -0.1124 -0.1013
 8349W        W24158  10.473  13.397   2.669  0.0978  0.0228 -0.1764
 8350W        W24159  17.415  18.608   1.516  0.1791 -0.1517  0.1010
 8351W        W24160   5.024  16.031  10.895 -0.1946 -0.0916  0.0327
 8352W        W24161  19.126   8.700   3.217 -0.3261  0.1661 -0.3761
 8353W        W24162   9.525   9.910   0.228 -0.1382 -0.2845  0.4295
 8354W        W24163   6.704   4.967  14.216  0.2343  0.0016 -0.1540
 8355W        W24164   5.095  16.010   2.744  0.0961 -0.3106  0.1153
 8356W        W24165  16.912  13.525  14.767  0.0380  0.0070  0.3929
 8357W        W24166  13.700  15.294  14.393 -0.0612  0.2553  0.0023
 8358W        W24167   5.359  18.456   1.807  0.0889 -0.2592  0.4168
 8359W        W24168  17.316   3.640  10.684 -0.0449 -0.2110  0.3733
 8360W        W24169  10.596  17.003   1.532  0.0447 -0.1666  0.0016
 8361W        W24170   1.534  15.588  10.119  0.0259  0.0521  0.0714
 8362W        W24171  17.409   4.974  14.437 -0.0139  0.0520 -0.2744
 8363W        W24172   7.698   3.382  12.262  0.0801  0.0162 -0.1071
 8364W        W24173  17.338   8.196  10.763 -0.0282 -0.0165  0.0356
 8365W        W24174  10.188   1.451  12.941 -0.1960  0.4416 -0.2971
 8366W        W24175   1.893   1.621  13.285  0.0566 -0.1331 -0.0647
 8367W        W24176   9.342   0.827  11.634 -0.1396 -0.3685  0.0521
 8368W        W24177  13.157   6.941   4.898 -0.4247 -0.1059  0.0822
 8369W        W24178   0.561  16.732  13.128  0.5259 -0.3347 -0.1301
 8370W        W24179   9.937  11.818   4.744  0.0150  0.1001 -0.1502
 8371W        W24180  14.363   4.128   4.351 -0.3399 -0.0564  0.0248
 8372W        W24181  16.895   5.434   1.872  0.1442 -0.1971 -0.4341
 8373W        W24182   4.220   2.926   5.038  0.0665 -0.0071  0.3678
 8374W        W24183   0.898   5.558   3.112  0.0224  0.3107  0.0990
 8375W        W24184  13.367  12.710  13.267  0.1257  0.1150 -0.0053
 8376W        W24185  16.313  12.485   3.869 -0.1051  0.0611  0.2195
 8377W        W24186   9.984   2.751  10.801 -0.1152 -0.0480 -0.2393
 8378W        W24187   7.802  12.465   0.328 -0.0214 -0.0006 -0.0265
 8379W        W24188   1.308  12.021  13.711 -0.1980 -0.4396 -0.1678
 8380W        W24189  15.434  16.872   0.412  0.0597  0.0137 -0.2879
 8381W        W24190  17.222  17.169  11.928  0.0139 -0.5924 -0.0365
 8382W        W24191  13.832   2.889   4.166 -0.1918 -0.2838  0.0566
 8383W        W24192   8.805   6.267   4.066 -0.1253 -0.0968 -0.1199
 8384W        W24193  11.573   3.874   5.292  0.2194 -0.0234 -0.1254
 8385W        W24194   4.293   2.199   4.484  0.1172  0.0341  0.0529
 8386W        W24195  14.733   5.389   3.473  0.0374  0.2892 -0.1801
 8387W        W24196   2.375  17.988   1.582 -0.2032 -0.0722  0.1014
 8388W        W24197   9.397  17.285  13.277 -0.0465 -0.0314 -0.1560
 8389W        W24198   0.874   7.364  12.526 -0.2762  0.1046 -0.1953
 8390W        W24199   6.682   0.620   1.754 -0.4155 -0.0860 -0.1764
 8391W        W24200  14.246  18.240   0.446  0.1677  0.1538  0.2920
 8392W        W24201  17.068   9.381  14.420  0.0447  0.0389 -0.0106
 8393W        W24202  10.428  13.540  13.645 -0.0388 -0.2938 -0.0332
 8394W        W24203  11.089   1.385   3.937  0.1764 -0.3561  0.0462
 8395W        W24204   2.628  18.109   3.172  0.0315  0.0932 -0.1357
 8396W        W24205   2.588  18.239  15.049 -0.0813  0.2133 -0.2460
 8397W        W24206   9.096   9.866  10.667  0.2183 -0.0577 -0.0173
 8398W        W24207  18.662  19.115  13.794  0.3123  0.3516  0.1846
 8399W        W24208  15.221   6.991  11.701  0.4928 -0.1036 -0.0696
 8400W        W24209   7.308  18.877  10.626  0.0821  0.0758  0.1643
 8401W        W24210   9.813  16.952   4.693 -0.2156  0.0278  0.1868
 8402W        W24211  13.038  15.524   4.767  0.1053 -0.2332  0.1392
 8403W        W24212   9.713  10.272   3.237  0.0578  0.2199  0.1049
 8404W        W24213   3.880  12.166   1.987 -0.0117  0.2847  0.1096
 8405W        W24214   5.592   2.754  10.523 -0.3680  0.2675  0.1850
 8406W        W24215   4.371  14.239   3.879  0.0338  0.1617  0.1222
 8407W        W24216  15.512  12.332  13.525 -0.1991  0.3127  0.0204
 8408W        W24217  11.289   8.535  13.631  0.1499  0.0870 -0.0724
 8409W        W24218   2.609   3.376  11.523 -0.0542  0.0922 -0.0213
 8410W        W24219   4.370   6.125  10.676  0.1617 -0.1299  0.2667
 8411W        W24220  17.641  14.262  10.883  0.2175  0.2254  0.0991
 8412W        W24221   3.293  11.247   0.937  0.1457  0.0404 -0.0195
 8413W        W24222   2.953  18.102  14.514  0.2209 -0.2987 -0.1308
 8414W        W24223   6.873   8.663  13.906  0.2312  0.1580  0.3252
 8415W        W24224  12.383   5.857  12.320 -0.1427 -0.2348  0.0845
 8416W        W24225   2.464   6.248  10.023 -0.3491 -0.1142  0.1315
 8417W        W24226  11.604  16.935   3.212 -0.1130 -0.1410 -0.2902
 8418W        W24227  12.301   5.412  11.007 -0.1964  0.4062  0.0709
 8419W        W24228   3.125  12.815  10.290  0.0821  0.0673  0.2418
 8420W        W24229   3.937  16.007   5.437 -0.0290  0.0397 -0.0643
 8421W        W24230  15.164   2.301  14.063  0.4300 -0.1717 -0.0446
 8422W        W24231  18.327   2.627  14.014 -0.0512 -0.4164  0.1467
 8423W        W24232   3.395  16.621   3.387 -0.0840 -0.1243  0.1048
 8424W        W24233   1.674  11.768   3.914  0.0114 -0.0045  0.0872
 8425W        W24234   7.993   3.573  13.592  0.0122 -0.0329  0.3884
 8426W        W24235  10.327  15.605  13.888  0.0776 -0.0404  0.4318
 8427W        W24236  17.851  17.340   1.412  0.2679  0.3150  0.0575
 8428W        W24237   9.846   8.704   4.020 -0.2292  0.1909  0.2149
 8429W        W24238  12.897   2.451   0.386 -0.1696 -0.5687 -0.0797
 8430W        W24239  14.917  18.245   1.483  0.2304  0.2063 -0.1289
 8431W        W24240   2.808  14.168  12.347  0.0119  0.2474 -0.0888
 8432W        W24241   3.459   7.610   0.561  0.0671  0.2832  0.2655
 8433W        W24242   3.977  17.959   0.350 -0.2321  0.2081  0.1351
 8434W        W24243   6.852   1.849   2.924 -0.2519  0.1233  0.2528
 8435W        W24244  14.743   9.676   4.120 -0.2228  0.0104 -0.1129
 8436W        W24245  15.151   9.168  13.368 -0.0688  0.0135  0.0043
 8437W        W24246  16.544   7.107   1.761  0.0048  0.2435  0.2010
 8438W        W24247   2.073   3.913  14.511 -0.0891 -0.0127  0.2591
 8439W        W24248  13.112  10.191   0.103  0.1176  0.1314  0.0221
 8440W        W24249   6.001   8.190  10.845  0.1984 -0.0781  0.0396
 8441W        W24250  17.568   2.334   9.993 -0.0008  0.1922 -0.1640
 8442W        W24251  10.909  18.725  13.287  0.0917 -0.2626 -0.1187
 8443W        W24252  16.798  14.626   1.949 -0.3390  0.1538 -0.0915
 8444W        W24253   8.561   2.391  10.449 -0.0892  0.3186 -0.2678
 8445W        W24254   1.666   1.663  11.154  0.2001 -0.0242  0.0822
 8446W        W24255  15.981  10.030   0.093  0.2081 -0.4095 -0.0813
 8447W        W24256   7.300  10.020   0.778 -0.2411  0.1978  0.1524
 8448W        W24257   9.108   4.963   2.514 -0.0216 -0.1040  0.3871
 8449W        W24258   1.761  14.795   0.893  0.5391  0.0473  0.0765
 8450W        W24259   5.618  11.136   5.432  0.3337  0.0830 -0.1249
 8451W        W24260  10.791   2.227   2.066  0.3256  0.1534 -0.0961
 8452W        W24261  10.641  13.389   3.870 -0.2367  0.1132  0.4106
 8453W        W24262  15.551   9.280  11.134  0.0350 -0.3047  0.0226
 8454W        W24263   8.305  17.137   0.386  0.0526 -0.1359 -0.1493
 8455W        W24264  12.404  13.833  14.914  0.0974 -0.3961  0.0294
 8456W        W24265   2.048  18.863  11.841 -0.3159  0.3898  0.1992
 8457W        W24266   8.878  10.438   1.815 -0.0976 -0.0556 -0.0452
 8458W        W24267  14.995  16.748   0.573  0.1010 -0.1546 -0.0547
 8459W        W24268  15.970  13.792  14.941 -0.0541  0.0138 -0.2790
 8460W        W24269   9.804   0.624   1.074 -0.0536 -0.0538 -0.0248
 8461W        W24270  13.377  10.438  12.484 -0.0646 -0.1281  0.0222
 8462W        W24271   9.461   1.863   4.610 -0.0382  0.1179 -0.0557
 8463W        W24272  10.988  17.467   4.285  0.1818 -0.2855 -0.1943
 8464W        W24273  14.143   5.251   4.792  0.2050 -0.2800  0.2335
 8465W        W24274  18.132  12.307   2.618  0.1186  0.3233  0.1906
 8466W        W24275   3.890  12.258  10.633 -0.0480  0.0781 -0.1393
 8467W        W24276  18.823   3.286  13.439 -0.0054 -0.1257 -0.2085
 8468W        W24277   3.689  16.736   1.406  0.0311  0.1225 -0.1580
 8469W        W24278   7.102   3.028   1.325  0.1653 -0.4706 -0.1894
 8470W        W24279   4.047  10.269   0.372  0.0178 -0.0750  0.1556
 8471W        W24280  16.439  13.860  11.154 -0.1039  0.0631 -0.4413
 8472W        W24281   8.404   4.754  10.797 -0.0783  0.0771  0.0245
 8473W        W24282  11.194   7.520   3.459 -0.0210 -0.1313  0.1175
 8474W        W24283   1.608  17.371   3.970 -0.0796  0.0023 -0.0357
 8475W        W24284   6.566   8.525   4.421  0.0354 -0.0915  0.1475
 8476W        W24285   0.796   4.927   4.148  0.2555 -0.1012  0.1009
 8477W        W24286   1.414   0.621  14.464  0.2452 -0.2112  0.2883
 8478W        W24287   4.409  12.911  10.553  0.1113 -0.1680 -0.1971
 8479W        W24288   4.364   4.671   2.504  0.0224  0.2106  0.1210
 8480W        W24289   2.773  10.870  12.141  0.0259  0.0323  0.1150
 8481W        W24290   8.697  18.394  13.459 -0.2145  0.0713  0.1095
 8482W        W24291  15.915   5.882   0.335  0.1795  0.0371  0.5803
 8483W        W24292   0.134   9.415   4.737 -0.2361  0.0062  0.0767
 8484W        W24293  11.434  16.703   2.262  0.0908  0.0079 -0.1390
 8485W        W24294  11.074   9.651   1.477  0.0075 -0.2002 -0.0856
 8486W        W24295   9.022   0.067  13.911 -0.4035  0.3788 -0.2501
 8487W        W24296  14.473  10.620   0.125 -0.0726 -0.3043 -0.1550
 8488W        W24297  18.554  18.917   0.520  0.1358  0.3293 -0.2393
 8489W        W24298   1.878  19.134   1.990  0.1735  0.0924 -0.2914
 8490W        W24299  11.047  12.444  12.762 -0.0497  0.1622  0.0763
 8491W        W24300   4.356   2.231  12.181  0.2351 -0.1403 -0.2715
 8492W        W24301   1.831  11.436   0.128  0.4039  0.1038 -0.3424
 8493W        W24302   1.254  13.446   3.216 -0.0460 -0.5237 -0.1763
 8494W        W24303  12.508   8.741   3.556  0.1847  0.0215 -0.3632
 8495W        W24304  15.345   0.797  12.227  0.0035 -0.0112  0.1141
 8496W        W24305  11.028  18.953  14.748 -0.0413 -0.0606  0.0761
 8497W        W24306  11.167  14.596   4.621  0.1874 -0.0878  0.0215
 8498W        W24307  13.467  16.096   1.654 -0.2684  0.3373  0.0532
 8499W        W24308  18.976  15.987   2.028  0.0745  0.0971  0.0871
 8500W        W24309   9.387  15.133  12.349 -0.1199  0.1006 -0.0002
 8501W        W24310  15.418   4.972   0.598 -0.2150 -0.0900  0.0406
 8502W        W24311  13.989   6.764   3.150  0.1353 -0.2149 -0.0129
 8503W        W24312  18.856   0.947   2.452 -0.0415  0.1558  0.1109
 8504W        W24313   0.687  15.636   0.324  0.0217  0.2047 -0.1640
 8505W        W24314  16.226  10.711   0.851  0.4173 -0.2551  0.0407
 8506W        W24315  13.394   5.021   3.492 -0.2963 -0.1242  0.1158
 8507W        W24316   9.374   5.956  10.587 -0.1589 -0.3017 -0.0947
 8508W        W24317   7.010   2.732   2.182  0.0050 -0.0893  0.0382
 8509W        W24318  13.856   3.306   3.844 -0.2463  0.1891 -0.1864
 8510W        W24319  10.992  18.245  10.676  0.0007  0.3744 -0.2008
 8511W        W24320  17.091   2.460   4.671  0.3170 -0.2699  0.0880
 8512W        W24321   0.564   9.684  12.751 -0.1178 -0.1049 -0.0842
 8513W        W24322  13.770  13.373   5.794  0.0141  0.1741  0.0497
 8514W        W24323   7.203   1.369   1.912 -0.0644 -0.2318 -0.2623
 8515W        W24324  17.974  12.807   2.840 -0.1491 -0.2087 -0.0290
 8516W        W24325  12.309  15.952   1.542  0.1733 -0.2144  0.0834
 8517W        W24326   1.079   3.873  12.963 -0.0697  0.1385  0.3492
 8518W        W24327  10.599  13.737  11.747 -0.0883 -0.1095 -0.5050
 8519W        W24328   2.214  16.101   2.755 -0.0437 -0.0101  0.1172
 8520W        W24329   3.519   0.719  14.736  0.0032  0.1569 -0.1287
 8521W        W24330  12.528  13.800   5.232 -0.3016 -0.1964 -0.0394
 8522W        W24331  10.573  14.935  10.781 -0.0601 -0.1870  0.1285
 8523W        W24332  10.289   9.074  14.736 -0.1389  0.1089  0.0850
 8524W        W24333  11.132   7.434  12.651  0.1471 -0.2310  0.0080
 8525W        W24334   0.864   2.241   2.887 -0.0558  0.0616  0.0095
 8526W        W24335   0.513  10.703  10.249 -0.0677 -0.2509 -0.4623
 8527W        W24336  11.928   8.549   0.523 -0.2910  0.1185 -0.0171
 8528W        W24337   1.628   3.046  11.971 -0.1500  0.0222  0.1912
 8529W        W24338   8.523  13.674   0.342 -0.0949  0.0732  0.0161
 8530W        W24339  15.403  11.154   3.651  0.1517  0.0280  0.0028
 8531W        W24340   2.538  15.571  10.360 -0.0751 -0.3046 -0.2244
 8532W        W24341   6.516   5.484   2.756  0.1167  0.0890 -0.4009
 8533W        W24342  14.514   7.232  12.936 -0.3151  0.3444 -0.1185
 8534W        W24343  12.665  15.976   1.126 -0.2133 -0.0579  0.3521
 8535W        W24344  14.369  18.022  10.412  0.1249 -0.0534 -0.0231
 8536W        W24345   7.533  12.353  11.961  0.1927  0.2412  0.0540
 8537W        W24346   5.264   4.485   0.243  0.2085  0.0783 -0.2226
 8538W        W24347  17.352   1.999   2.084  0.0566  0.1827  0.0210
 8539W        W24348   8.395   0.646  13.949  0.0871 -0.2083  0.3170
 8540W        W24349   9.212  11.789  10.827 -0.1374  0.0593 -0.0137
 8541W        W24350   8.617  14.931  11.230  0.1614 -0.1997  0.0183
 8542W        W24351   0.578  16.069  13.909 -0.2785 -0.3222 -0.3669
 8543W        W24352  17.420   7.030  13.663  0.2065 -0.0746 -0.0317
 8544W        W24353  11.631   7.962   2.663 -0.2531 -0.1048 -0.2317
 8545W        W24354   6.471   6.549   2.494  0.0408  0.2553 -0.0996
 8546W        W24355   3.470   3.505   4.550 -0.4664  0.0155 -0.1133
 8547W        W24356  13.052  12.760  12.782  0.2569  0.0185 -0.3662
 8548W        W24357  15.658  12.613  10.017  0.0032 -0.0828  0.1909
 8549W        W24358   0.336   0.137   1.312  0.0112 -0.0389 -0.0097
 8550W        W24359  15.478  13.350   1.192  0.0532 -0.0043 -0.1492
 8551W        W24360   6.015  18.947   3.513 -0.4479  0.4517  0.1333
 8552W        W24361  18.762   3.057   0.131  0.0523  0.1514 -0.1233
 8553W        W24362   9.442   1.206  14.484  0.0668  0.1185 -0.0514
 8554W        W24363   9.323   3.314  14.204  0.0680 -0.0376  0.0362
 8555W        W24364   1.551  11.566  10.548 -0.1478 -0.0993  0.4082
 8556W        W24365   9.570  16.579   1.706  0.0128  0.6823  0.0008
 8557W        W24366  15.151  17.402   2.410  0.0131 -0.1047 -0.0452
 8558W        W24367  11.598   1.328  10.776  0.0715  0.1884 -0.2923
 8559W        W24368  10.582  10.226  13.890 -0.3916  0.0776 -0.0045
 8560W        W24369   6.104  12.740   2.341  0.2735 -0.2499  0.4776
 8561W        W24370  10.900   4.444   4.078 -0.0576 -0.1489 -0.2153
 8562W        W24371   7.774   5.704  15.079  0.0434  0.1832  0.0049
 8563W        W24372   4.748  16.886   5.190  0.1514 -0.2532 -0.1162
 8564W        W24373  11.393  12.658   3.353  0.1136 -0.0807 -0.0563
 8565W        W24374   4.134  16.682   2.591 -0.0947  0.3700  0.2502
 8566W        W24375   1.437   2.876   0.622  0.1500 -0.2372  0.0300
 8567W        W24376  18.159   4.120   3.173 -0.0424 -0.1539 -0.1577
 8568W        W24377  12.660   0.530   2.759  0.5364  0.1847  0.1820
 8569W        W24378  13.961  14.343   0.903 -0.3618 -0.0064  0.1265
 8570W        W24379  14.522   5.810  12.203  0.0744  0.2225 -0.1624
 8571W        W24380   2.523  10.241   1.791  0.1519 -0.1849  0.2005
 8572W        W24381   1.134   7.055  13.489  0.2437  0.0757  0.3356
 8573W        W24382   9.711   0.744   4.477 -0.0638 -0.1246 -0.0611
 8574W        W24383   1.761   6.652   3.516 -0.3853 -0.0850 -0.1463
 8575W        W24384  12.230   4.371  10.882  0.0418  0.0827 -0.0621
 8576W        W24385   4.540   0.404  14.811 -0.0102 -0.1654 -0.1097
 8577W        W24386  16.709  18.293   3.449  0.0267  0.0247 -0.1194
 8578W        W24387  14.251   4.273   2.834 -0.0522 -0.0236 -0.3405
 8579W        W24388   5.649  11.520   0.811 -0.4217  0.4104 -0.0762
 8580W        W24389  11.954   6.745  13.507 -0.3528 -0.2487 -0.1154
 8581W        W24390  14.296   7.434  12.516 -0.2480 -0.3314  0.1087
 8582W        W24391   4.896   7.941  13.177 -0.0736  0.0070  0.0142
 8583W        W24392  12.962   6.687  10.764 -0.1701  0.2024 -0.1220
 8584W        W24393  10.480   1.765   2.212 -0.0832 -0.0532 -0.2931
 8585W        W24394   4.284   0.756   0.979  0.3870 -0.1677  0.0632
 8586W        W24395   9.968  14.844   0.936  0.1439 -0.1140 -0.2048
 8587W        W24396   0.249   3.683   4.661 -0.2307 -0.2131  0.1659
 8588W        W24397  16.908  12.104  13.725  0.2454  0.2700 -0.1531
 8589W        W24398  17.780   2.955   0.400  0.0502 -0.2348  0.0767
 8590W        W24399  15.243  10.980  13.203  0.1352 -0.3344 -0.0568
 8591W        W24400   0.631   1.197   3.732  0.1223 -0.2374 -0.1811
 8592W        W24401   1.294   3.849   1.911  0.1343  0.1153 -0.0351
 8593W        W24402   6.152  15.327  12.829 -0.3505 -0.0324  0.3324
 8594W        W24403   4.459   0.442  13.926  0.0588 -0.1343 -0.0067
 8595W        W24404  19.012  13.307   3.892 -0.2113  0.4054  0.2442
 8596W        W24405  14.412  16.713  15.095  0.2783  0.0548 -0.0960
 8597W        W24406  12.329   2.295   2.580  0.1219 -0.2813  0.4106
 8598W        W24407  15.645   6.861   5.347  0.0873  0.2117 -0.0587
 8599W        W24408   9.879  10.149  10.475  0.1604  0.1126 -0.1083
 8600W        W24409  18.963   7.498  13.973  0.0387 -0.2727  0.1164
 8601W        W24410   9.597  11.512  11.088 -0.1438 -0.3320  0.0317
 8602W        W24411   2.686   8.510   1.448 -0.0570 -0.0808  0.0980
 8603W        W24412  14.457  10.680  13.237  0.2342  0.0725  0.0769
 8604W        W24413   6.884  16.391  14.857  0.2052 -0.0272 -0.4781
 8605W        W24414  11.802  11.429  13.246  0.0834 -0.1368  0.0568
 8606W        W24415  18.976   9.788  13.679  0.1776  0.4318  0.1894
 8607W        W24416   0.595   0.103  12.260  0.0700  0.0210 -0.3223
 8608W        W24417   1.992  12.491   1.030  0.1467 -0.4051 -0.0045
 8609W        W24418   3.359   7.278   4.134 -0.1428 -0.1265  0.0862
 8610W        W24419  11.536   2.288  11.366  0.0243 -0.0238 -0.0305
 8611W        W24420   0.606   7.893  10.878 -0.2313  0.1620  0.1572
 8612W        W24421  10.272  10.420  12.162 -0.2165  0.0169  0.0663
 8613W        W24422   3.690   8.965   0.247  0.1836  0.0169  0.0399
 8614W        W24423   2.180   3.549  13.574 -0.2965  0.0934 -0.2079
 8615W        W24424  12.654   8.305  11.587 -0.1633 -0.4411  0.1020
 8616W        W24425   8.514   4.942   2.721 -0.0527  0.1044 -0.3414
 8617W        W24426   8.570  17.093  15.141 -0.0812  0.1963  0.2164
 8618W        W24427   0.711  16.521   3.823  0.1451 -0.0813  0.0792
 8619W        W24428   1.921   9.842   4.295 -0.1647 -0.0842  0.2461
 8620W        W24429   7.051   5.491   0.939  0.0241  0.0547 -0.3114
 8621W        W24430   9.207   4.994   1.299 -0.0095  0.0862  0.2686
 8622W        W24431  14.252  18.869  10.952  0.1529 -0.1532 -0.5520
 8623W        W24432  17.676  17.353  14.109  0.3888 -0.0304  0.0197
 8624W        W24433   3.310  16.342  15.127  0.1153 -0.1770 -0.3942
 8625W        W24434  13.665   9.851   0.885 -0.1734 -0.0397 -0.0429
 8626W        W24435   4.909   4.376  10.425  0.0862  0.3189  0.0866
 8627W        W24436   6.511  16.150  13.976  0.0861  0.2876  0.4700
 8628W        W24437   6.049   5.049   4.218 -0.2518  0.2438 -0.1347
 8629W        W24438  11.992   9.524   1.911 -0.0294  0.2545 -0.3653
 8630W        W24439   3.266  11.818   2.067  0.1087  0.0030 -0.3308
 8631W        W24440   7.731  12.876  11.918  0.1580  0.1690 -0.2171
 8632W        W24441  15.264  11.674  14.575 -0.0272  0.2651 -0.1035
 8633W        W24442   9.457   4.053   4.284 -0.3208 -0.0665  0.1170
 8634W        W24443  11.097  15.200   0.661 -0.1074  0.2530 -0.2521
 8635W        W24444   7.387  16.089   4.987  0.1541  0.2046  0.0097
 8636W        W24445  10.395  12.721  10.983 -0.0509  0.0201  0.4205
 8637W        W24446  17.227   5.067   1.076  0.4905 -0.0739 -0.0270
 8638W        W24447   6.541   4.765   0.013  0.0346 -0.1818 -0.3265
 8639W        W24448  17.315   7.952   3.195 -0.1739  0.3648 -0.0239
 8640W        W24449  15.078  15.217  10.947  0.1476 -0.0529  0.0841
 8641W        W24450  12.895  10.844   2.445  0.1198  0.0787 -0.1266
 8642W        W24451   6.397   8.954  13.901 -0.2083  0.0573 -0.2630
 8643W        W24452  13.084  10.029   3.648 -0.1269 -0.0507  0.0987
 8644W        W24453   8.642  19.001   1.060 -0.1562 -0.0412  0.0324
 8645W        W24454  11.951  11.919  13.434 -0.3716  0.1263  0.0474
 8646W        W24455  13.921   8.684   2.574 -0.0893  0.2824 -0.2399
 8647W        W24456   4.214   6.733   4.934  0.3040  0.0630 -0.1586
 8648W        W24457   9.765   2.583   0.434 -0.0956  0.3113  0.1845
 8649W        W24458   8.041   7.425  12.597 -0.2715  0.1805 -0.4286
 8650W        W24459   3.978   7.664  11.754 -0.0651 -0.0299  0.0840
 8651W        W24460  15.785   4.927   3.262 -0.0068 -0.1129  0.0504
 8652W        W24461   9.433  14.013   3.719  0.1314  0.1282 -0.5129
 8653W        W24462   1.013   8.738  14.424  0.0970  0.0430 -0.1493
 8654W        W24463  18.298   0.647  13.313 -0.2263 -0.5190 -0.1947
 8655W        W24464  12.661  19.009   1.423 -0.1695 -0.0618 -0.3396
 8656W        W24465   5.864  15.121  13.182 -0.1644  0.0439  0.1294
 8657W        W24466   1.162  14.262   0.194  0.3605  0.4268  0.1343
 8658W        W24467   6.787  16.708  13.666  0.2125  0.0920 -0.2960
 8659W        W24468  10.723  11.769   0.300 -0.0892  0.1552 -0.2508
 8660W        W24469   1.518  17.766   3.349 -0.1337  0.0973 -0.2128
 8661W        W24470  16.657  18.156  11.678 -0.0022  0.0240 -0.0221
 8662W        W24471   4.598   0.381   3.632 -0.1504  0.1630  0.1775
 8663W        W24472  17.846  12.703  14.133 -0.0731 -0.1088  0.2259
 8664W        W24473   1.928   5.376  13.038  0.2940 -0.0394  0.1658
 8665W        W24474  14.925   6.400   3.457 -0.1871  0.0641 -0.1531
 8666W        W24475  14.930  16.807   4.906 -0.0647  0.2356  0.1633
 8667W        W24476  16.825   4.426  13.013  0.1247 -0.2782  0.2441
 8668W        W24477  17.058   2.421   0.412  0.0333 -0.0255  0.4275
 8669W        W24478   2.271   8.362   3.766  0.1531  0.3608 -0.3408
 8670W        W24479  13.872   5.448  10.828 -0.0989 -0.0649  0.0943
 8671W        W24480   8.250   8.953   0.559  0.2726 -0.0375  0.1114
 8672W        W24481   3.174   2.860  10.465 -0.3012  0.3123  0.0999
 8673W        W24482   5.878  14.007   3.874 -0.0779  0.0516 -0.2948
 8674W        W24483  12.496   9.726   1.887 -0.0254 -0.1272  0.0241
 8675W        W24484  12.090   9.856  11.930 -0.2156  0.5509 -0.2898
 8676W        W24485   4.083   3.944   2.055  0.1397 -0.5247 -0.0941
 8677W        W24486  10.367   9.397  13.122 -0.0011 -0.0290 -0.1212
 8678W        W24487   3.512  11.360  12.644 -0.0676 -0.1692  0.2163
 8679W        W24488   0.337   8.672  11.374 -0.1978 -0.2105  0.1768
 8680W        W24489  12.562   9.445   0.939  0.2045 -0.1263 -0.0389
 8681W        W24490  18.971   5.755   1.449 -0.2962 -0.0707 -0.0365
 8682W        W24491   0.451   4.173   4.753 -0.0972  0.0553 -0.0604
 8683W        W24492   3.807   0.085  14.455 -0.1988 -0.2063  0.1260
 8684W        W24493   2.389   1.641   4.356  0.1009 -0.1093 -0.0312
 8685W        W24494  13.921  16.104  12.358  0.1496  0.0511  0.2217
 8686W        W24495  16.491  12.379   2.777  0.2379 -0.0316  0.1381
 8687W        W24496  14.152  11.986   2.414  0.0148 -0.3085 -0.2168
 8688W        W24497   6.116  17.400   1.391  0.0096  0.0100 -0.0645
 8689W        W24498  17.672  14.181   5.610  0.3854  0.0804  0.1152
 8690W        W24499  15.828  18.587   1.749 -0.0754 -0.0204  0.0390
 8691W        W24500  10.265  12.574  14.309 -0.0356 -0.0231  0.1224
 8692W        W24501   8.043   0.718  14.423  0.2065  0.2071 -0.2433
 8693W        W24502  11.799  15.206   2.368 -0.0458  0.0776  0.3822
 8694W        W24503   0.474  18.072  12.937 -0.1936  0.0843 -0.0092
 8695W        W24504  14.876   7.287   3.405 -0.4636 -0.1027 -0.3063
 8696W        W24505   5.605  13.951   0.554 -0.1735 -0.0120 -0.1210
 8697W        W24506   3.084   8.201  10.887 -0.0447 -0.3274  0.1406
 8698W        W24507   0.719  12.060  12.816 -0.4505  0.0030  0.2810
 8699W        W24508   2.103   0.216  14.528 -0.1801 -0.1742  0.4146
 8700W        W24509  11.364   4.959   0.837 -0.1895  0.2157 -0.3045
 8701W        W24510   8.867  11.847  12.253 -0.3645 -0.2065 -0.2484
 8702W        W24511  12.104   7.212  10.448 -0.1022  0.1727 -0.2086
 8703W        W24512  14.769   1.526  10.306  0.0758  0.2499  0.4122
 8704W        W24513   9.922  11.948   2.570  0.2964  0.2374 -0.0789
 8705W        W24514   0.445   0.083  10.922  0.1460 -0.0633 -0.0264
 8706W        W24515  17.443  10.457  13.860 -0.1812 -0.1001  0.1601
 8707W        W24516   5.586   9.324   5.458  0.0414 -0.3337 -0.0414
 8708W        W24517   9.616  10.673   4.373  0.3384  0.2129 -0.0060
 8709W        W24518  15.405   7.197   5.051  0.1256 -0.0546  0.1018
 8710W        W24519   4.745   8.473  14.431  0.2847  0.0916  0.1634
 8711W        W24520   9.127  17.327  15.081 -0.1717 -0.2401 -0.2406
 8712W        W24521   3.422   6.837   2.096  0.1820  0.2131 -0.0413
 8713W        W24522   6.061  17.658  12.490 -0.3284 -0.0819  0.1826
 8714W        W24523   8.921   7.206  10.201 -0.0009  0.0581 -0.0737
 8715W        W24524   1.303  17.205  12.366  0.3950 -0.3084  0.1174
 8716W        W24525   5.147   4.349  11.458 -0.0803 -0.3504 -0.0145
 8717W        W24526  13.195   9.906   4.290 -0.0932  0.1715  0.1827
 8718W        W24527   8.519   5.927  12.142 -0.2866  0.3379  0.0979
 8719W        W24528   2.841  11.330  11.329  0.0685  0.0994 -0.3265
 8720W        W24529   8.814   1.548  12.606 -0.0657 -0.1969  0.3763
 8721W        W24530  19.019   6.836   0.574  0.2425  0.0949  0.1877
 8722W        W24531  14.359  17.756  11.285 -0.1103  0.0633 -0.2871
 8723W        W24532   7.777  18.094   1.201 -0.1240 -0.2242  0.1957
 8724W        W24533  19.090  10.713   1.669  0.2941  0.3136  0.2860
 8725W        W24534   0.310   6.730   0.362  0.0625 -0.3066 -0.1838
 8726W        W24535   0.922  10.561   4.238 -0.2415  0.2097  0.0121
 8727W        W24536  17.574  14.171  13.921 -0.1919 -0.0802  0.1806
 8728W        W24537  10.029  15.372   4.364  0.4443 -0.0300 -0.4003
 8729W        W24538   0.968   1.805  14.871  0.0561  0.1227 -0.3619
 8730W        W24539   2.356   4.442  13.093 -0.0754 -0.0403 -0.1178
 8731W        W24540  10.292   4.688  13.368 -0.2123 -0.1267  0.2025
 8732W        W24541  13.828  16.034  14.308 -0.1122  0.2560 -0.4164
 8733W        W24542  12.590   5.183   3.804 -0.0366 -0.1961 -0.2207
 8734W        W24543  17.728  12.262  12.684  0.0154 -0.2956  0.2808
 8735W        W24544   4.651  10.070   0.006 -0.0356 -0.2949  0.1163
 8736W        W24545  14.142   6.836  14.991  0.1286 -0.1024 -0.1093
 8737W        W24546  13.458   6.840  10.709 -0.1388  0.1198  0.2696
 8738W        W24547  18.291  13.165   0.930 -0.2529  0.0216  0.2257
 8739W        W24548   3.049  13.439   1.350  0.0473 -0.0945  0.0650
 8740W        W24549  14.991  13.941  11.723 -0.0667  0.0844 -0.2912
 8741W        W24550  14.021   6.354   2.098 -0.1770 -0.3605 -0.2157
 8742W        W24551   7.339  11.469   1.871 -0.0317  0.4729 -0.0833
 8743W        W24552  17.076   0.901   0.035 -0.2698  0.0027  0.0622
 8744W        W24553   7.048   1.823  13.750 -0.1358 -0.3004  0.3737
 8745W        W24554  17.035  16.824  15.212 -0.2336 -0.2150 -0.0014
 8746W        W24555   8.719   5.600  11.235  0.1926 -0.2155 -0.2512
 8747W        W24556  17.515  15.104   2.853  0.0358  0.0912 -0.0983
 8748W        W24557  10.591   8.265   4.261 -0.0377  0.1751 -0.0127
 8749W        W24558   0.095  14.129  14.235 -0.0483 -0.3479 -0.4149
 8750W        W24559  15.606  10.780  11.291 -0.2796  0.1063 -0.3132
 8751W        W24560   3.558  16.256   1.711  0.1739 -0.0267 -0.0676
 8752W        W24561  10.798   2.678  13.087 -0.2138  0.0374  0.0232
 8753W        W24562  11.443  11.260  12.160  0.0180  0.0253 -0.0656
 8754W        W24563   5.772  13.952  11.677  0.0741 -0.0545 -0.0491
 8755W        W24564  18.440  17.516  11.089  0.1198  0.1465 -0.0058
 8756W        W24565  18.624  11.467  11.518 -0.3044  0.5665 -0.2797
 8757W        W24566  13.518  14.528  10.221 -0.1633  0.1412 -0.1368
 8758W        W24567   9.635   9.599   3.610  0.1129 -0.1335  0.1843
 8759W        W24568  15.714  13.371  12.673  0.0936  0.0662 -0.4923
 8760W        W24569   4.827  18.891  11.979  0.3827  0.1964 -0.3805
 8761W        W24570  12.825  13.868   1.194 -0.0851  0.0137  0.0260
 8762W        W24571   0.438   9.474   3.507  0.0003 -0.2224  0.0021
 8763W        W24572  10.573  16.111  14.947 -0.1489  0.0163  0.0366
 8764W        W24573   1.322   5.248   4.034  0.0512 -0.4458 -0.5796
 8765W        W24574   5.818  17.968  14.877  0.1788 -0.0492 -0.0219
 8766W        W24575   2.415   9.832  12.886  0.2136 -0.0220 -0.0908
 8767W        W24576   3.715  12.743   3.648  0.1526  0.3355 -0.1172
 8768W        W24577  11.436  13.058  12.170  0.0970  0.0641 -0.1290
 8769W        W24578   0.770   7.938   0.456  0.1035 -0.0669 -0.2264
 8770W        W24579   7.463  16.162  13.725 -0.0390  0.0736 -0.0853
 8771W        W24580   3.084   9.189   9.158 -0.0476 -0.5446  0.0790
 8772W        W24581   8.149   2.336  13.675  0.1159 -0.0731 -0.0822
 8773W        W24582   1.355  17.833  10.359 -0.3362 -0.0176  0.1014
 8774W        W24583   2.368  13.386   4.792 -0.0081 -0.2427 -0.2163
 8775W        W24584   6.228  15.034  10.693 -0.1593  0.2122 -0.2713
 8776W        W24585   3.137   5.519   4.110  0.2876  0.1490 -0.2544
 8777W        W24586   7.330   5.702  13.772  0.2642 -0.2310  0.0507
 8778W        W24587   8.552  12.653   0.436  0.1193  0.1748  0.0485
 8779W        W24588   1.611  15.266   2.646 -0.4753 -0.2269  0.2108
 8780W        W24589  11.370   0.040  14.386 -0.0518 -0.2445 -0.3697
 8781W        W24590  11.267   4.660  13.695 -0.1610  0.1645  0.0295
 8782W        W24591  17.438   3.196  11.812  0.0607  0.2547  0.0724
 8783W        W24592   2.249  13.638   5.297  0.0770 -0.2920 -0.3738
 8784W        W24593   5.964   8.586  12.357 -0.0146  0.0043 -0.1430
 8785W        W24594   6.000  18.386  13.040  0.0738 -0.3455 -0.0765
 8786W        W24595   0.151   1.328   3.969 -0.1905 -0.0376 -0.3092
 8787W        W24596   7.589   8.083  13.622 -0.1013  0.0184  0.1752
 8788W        W24597   2.819  17.919   1.232  0.0368 -0.2069 -0.1087
 8789W        W24598   9.045   9.204  13.994  0.0374 -0.1237  0.3254
 8790W        W24599   3.333  12.625  11.038  0.1464 -0.1805  0.0333
 8791W        W24600   1.294   4.740   4.010 -0.1885 -0.0315 -0.0955
 8792W        W24601  10.043   2.975   2.253  0.1053 -0.1079  0.1012
 8793W        W24602  10.006  19.113  13.553  0.0700 -0.1152  0.0488
 8794W        W24603   8.689  16.442   1.663 -0.2305  0.0987 -0.2200
 8795W        W24604   8.191   4.525  12.172  0.1594 -0.0435 -0.0225
 8796W        W24605   7.839  15.295   0.295 -0.1176 -0.0850  0.2949
 8797W        W24606   8.414   1.963  13.810  0.0581 -0.0713  0.1995
 8798W        W24607  11.724  15.370   1.437 -0.1452 -0.2627 -0.2067
 8799W        W24608   3.532   2.105   9.792 -0.1719 -0.0916 -0.0726
 8800W        W24609  10.209  16.445  11.619 -0.0182 -0.2682 -0.0198
 8801W        W24610   7.759  16.143  10.451  0.1398  0.1975  0.2039
 8802W        W24611   8.825   1.726  14.091 -0.1705  0.0279 -0.2086
 8803W        W24612  14.541   3.189  13.343  0.2587  0.1474  0.1148
 8804W        W24613   6.741  17.736  11.958  0.1660  0.2953 -0.1600
 8805W        W24614  15.281   6.947  12.959 -0.0048 -0.0407 -0.0319
 8806W        W24615  14.203   6.188   5.130 -0.1745 -0.1849 -0.1357
 8807W        W24616   3.058   8.023  13.960 -0.1800  0.2663  0.2192
 8808W        W24617  16.562  14.213  12.194 -0.0833 -0.1968 -0.4146
 8809W        W24618  10.325   4.928  14.549  0.0691  0.0169  0.0492
 8810W        W24619   8.104   1.958   3.431  0.1285  0.1603  0.2369
 8811W        W24620   8.491  19.016  14.401 -0.2461  0.3415  0.0568
 8812W        W24621   4.031   6.396  12.780 -0.0593 -0.0444  0.2557
 8813W        W24622   1.074   3.844  14.573 -0.1022  0.3196 -0.0976
 8814W        W24623   0.381   6.381   4.614  0.1547  0.0628  0.0682
 8815W        W24624  10.360   3.733   1.090 -0.0642 -0.1625  0.0222
 8816W        W24625   9.746  13.087   1.675  0.0124  0.0324  0.4103
 8817W        W24626  12.596   2.274   0.743  0.2966  0.0286  0.0362
 8818W        W24627   3.484   8.739   1.591 -0.3574  0.0846 -0.2675
 8819W        W24628  14.426  10.145   9.216 -0.2946 -0.1970 -0.1338
 8820W        W24629   0.803   4.080  14.089  0.1321 -0.5332  0.0069
 8821W        W24630   1.321  13.280  10.128  0.0827 -0.1078 -0.2390
 8822W        W24631   1.368  15.105   1.750 -0.0044 -0.0230  0.3944
 8823W        W24632   4.190   8.819  10.737  0.1552  0.0732  0.3913
 8824W        W24633   8.613   9.371   3.318  0.3245 -0.2419 -0.1600
 8825W        W24634  17.348  17.075  13.739 -0.0218 -0.1850  0.0154
 8826W        W24635   0.450  16.269  11.825  0.3391 -0.0394  0.0114
 8827W        W24636   5.285   5.561   0.315  0.3235  0.2332 -0.0986
 8828W        W24637  10.418  16.594   3.941  0.1381 -0.1858 -0.1157
 8829W        W24638   1.265   3.192  10.715  0.0493 -0.1863 -0.0657
 8830W        W24639   4.579   8.049   2.937  0.2416  0.0235  0.0656
 8831W        W24640  16.164   2.726  11.624  0.1199  0.1284  0.0230
 8832W        W24641   9.712   2.812  14.878  0.1880  0.0898 -0.1805
 8833W        W24642   3.926   8.532   2.761  0.1775 -0.3162  0.2078
 8834W        W24643  13.129  11.677  12.764  0.0204  0.1539 -0.0399
 8835W        W24644  12.575   8.470  15.145 -0.1417  0.0323 -0.0739
 8836W        W24645  14.049  18.860   1.965 -0.0066 -0.1923 -0.4229
 8837W        W24646   0.353  14.943   0.988 -0.0749 -0.0640 -0.0213
 8838W        W24647  12.975   3.502  12.831 -0.0766  0.2451  0.0727
 8839W        W24648   5.096  16.788  15.016 -0.0581  0.0184  0.2515
 8840W        W24649   9.090  15.313  13.874 -0.1142 -0.0603 -0.0864
 8841W        W24650   8.752  13.298   3.958  0.0181 -0.1648  0.0361
 8842W        W24651  16.158   3.240   3.957  0.0969  0.0195 -0.2022
 8843W        W24652  16.185   3.986  15.101 -0.0982  0.2222 -0.0942
 8844W        W24653  11.966   2.298   1.433  0.0651 -0.1599 -0.0782
 8845W        W24654   0.810  18.968  11.921  0.1749 -0.2443 -0.0339
 8846W        W24655   6.274   0.145  14.169 -0.2271  0.0305 -0.2601
 8847W        W24656   7.214   4.053  13.219 -0.0005  0.3054 -0.1075
 8848W        W24657   9.451   6.553   1.447  0.1419  0.2128 -0.0839
 8849W        W24658   2.365   1.284   4.030  0.0831  0.1044  0.1556
 8850W        W24659   0.841  17.556   1.715  0.0407  0.0404  0.1739
 8851W        W24660  13.850   7.619  12.801  0.0395  0.0897 -0.0381
 8852W        W24661  14.593  16.389  12.748 -0.0754  0.1006  0.1694
 8853W        W24662   7.400  13.558   2.301  0.4453  0.1681  0.0215
 8854W        W24663   2.108   8.347  13.155 -0.0833 -0.1867  0.0046
 8855W        W24664   2.334  11.078   0.396  0.3173 -0.1656 -0.0151
 8856W        W24665   4.586   6.110  13.880 -0.3072  0.0774  0.1696
 8857W        W24666   3.791  14.128  15.176 -0.2579  0.2376  0.0103
 8858W        W24667   8.551  13.004  13.360  0.1583  0.0141  0.1719
 8859W        W24668   8.061   1.548  13.069 -0.2213 -0.0723  0.3199
 8860W        W24669   4.529  18.391   1.758  0.2773  0.1913  0.4867
 8861W        W24670   9.584   7.963   2.760 -0.2246  0.1769  0.1553
 8862W        W24671  12.903   4.163   5.332  0.0142 -0.1522 -0.1758
 8863W        W24672   7.720  15.964  10.908 -0.2514  0.0838  0.1197
 8864W        W24673   8.022   7.063  12.191 -0.1133 -0.1357 -0.1570
 8865W        W24674   8.913   6.025   3.472 -0.0796 -0.0993  0.3991
 8866W        W24675   1.443   7.636   4.343 -0.0805 -0.1880 -0.1530
 8867W        W24676  11.036  12.068   0.025  0.1926  0.0230  0.0764
 8868W        W24677  14.123   5.098   4.307  0.1316 -0.2023 -0.1794
 8869W        W24678   2.444   4.782  13.523 -0.1181  0.1201 -0.0909
 8870W        W24679  13.978  12.238   1.505 -0.0770 -0.4894  0.2158
 8871W        W24680   3.075   7.647  10.583 -0.0244 -0.2096  0.1010
 8872W        W24681   4.603  14.474  12.091  0.1055 -0.0616  0.1403
 8873W        W24682  10.714   7.753  10.103  0.1332  0.0362 -0.0863
 8874W        W24683  14.158   1.305   1.206 -0.3281 -0.0740  0.0771
 8875W        W24684  14.026   4.479  13.522 -0.0564 -0.0104  0.0695
 8876W        W24685   6.676  16.845  12.519 -0.0314 -0.0997 -0.2461
 8877W        W24686  17.463   4.754  13.504 -0.2451 -0.1897 -0.0637
 8878W        W24687   2.029   7.261   3.190  0.2490 -0.3117 -0.1145
 8879W        W24688  15.019   0.213  12.826 -0.0329 -0.0581  0.1322
 8880W        W24689  18.267   0.132  14.884  0.0705  0.2690 -0.0793
 8881W        W24690  13.631  17.301   4.468 -0.2263 -0.0732 -0.0542
 8882W        W24691   8.348   9.277  10.850 -0.0612  0.0241  0.0702
 8883W        W24692   5.619   3.662   0.587 -0.1430 -0.2842  0.2263
 8884W        W24693   5.838   6.152   3.544  0.1493  0.1104 -0.0510
 8885W        W24694   1.297  10.356   4.012  0.1167 -0.0268  0.0092
 8886W        W24695  16.393   9.960  13.699  0.0304  0.2659  0.0694
 8887W        W24696   2.789  14.542  10.856 -0.3117 -0.1582  0.0154
 8888W        W24697  14.046   0.293   5.198 -0.1053 -0.2041 -0.1293
 8889W        W24698   1.880  14.370  11.978  0.1983  0.0713  0.0544
 8890W        W24699   1.031   0.399   3.964 -0.2407  0.0676 -0.1459
 8891W        W24700  15.724  13.645  11.810  0.0915 -0.0977  0.0770
 8892W        W24701   5.652  10.036   0.862 -0.1342 -0.1593  0.2171
 8893W        W24702  14.928  13.748  14.306 -0.2056  0.1152 -0.1484
 8894W        W24703  13.473   4.996  11.084 -0.0176 -0.1314  0.2849
 8895W        W24704  15.643   5.719   4.947 -0.1394  0.0188  0.1141
 8896W        W24705   6.597  18.337   3.256 -0.1958  0.2936  0.0694
 8897W        W24706   6.930  16.811   1.134  0.1084  0.0627  0.0810
 8898W        W24707  13.449  14.918  11.272 -0.0483  0.0733  0.2860
 8899W        W24708   4.731  11.691   1.339  0.0730  0.2795 -0.4001
 8900W        W24709  16.332  10.249  12.846  0.1135 -0.0983  0.1838
 8901W        W24710   6.368  14.993   1.012 -0.0011 -0.0878 -0.1089
 8902W        W24711  12.962  14.080  13.905 -0.2651 -0.0929  0.2271
 8903W        W24712   6.577  15.399  12.342  0.1140 -0.0552  0.3079
 8904W        W24713   6.344   5.088  13.253 -0.2950  0.0268  0.1177
 8905W        W24714   8.041  18.526   3.638 -0.2144 -0.1724 -0.3054
 8906W        W24715   8.072  18.457   4.288  0.0171 -0.0919  0.3240
 8907W        W24716   3.918  15.835   3.388 -0.0778  0.2985 -0.3901
 8908W        W24717  15.422  15.180   3.800  0.2819  0.4626 -0.0335
 8909W        W24718  17.001  15.302   3.105  0.3918  0.3731  0.2396
 8910W        W24719   5.203   5.024  11.527  0.3774 -0.0876 -0.0281
 8911W        W24720   2.254   6.486  14.127 -0.1590  0.1211 -0.0339
 8912W        W24721   3.208  18.633   2.524 -0.1137  0.0279 -0.1539
 8913W        W24722  14.522   7.585   1.823 -0.2923 -0.2574 -0.1240
 8914W        W24723   0.567  15.790   1.245  0.0103  0.2546  0.1700
 8915W        W24724   5.194   5.212   2.138 -0.1376  0.0819 -0.3130
 8916W        W24725  11.440   0.665   4.891  0.1604  0.2571  0.1874
 8917W        W24726  12.073   1.502  15.217  0.0727  0.3621  0.2676
 8918W        W24727  16.276   9.670  14.996  0.1271 -0.0027  0.0399
 8919W        W24728  15.054  19.159  11.996  0.2647  0.2882  0.1969
 8920W        W24729  12.355  14.773   1.053  0.0367  0.0819 -0.1986
 8921W        W24730  18.685   3.038  11.750  0.0322  0.3171  0.0541
 8922W        W24731  15.833  15.587   2.946  0.0007 -0.0556 -0.0142
 8923W        W24732   9.097  18.764  11.319 -0.2616 -0.0107 -0.0081
 8924W        W24733  10.693  16.369  14.515 -0.2928  0.1261 -0.1549
 8925W        W24734   1.852  18.439   0.426  0.0670  0.3273 -0.3789
 8926W        W24735  17.373   1.113  12.792  0.4037  0.0554  0.0550
 8927W        W24736   4.081   5.032   4.600  0.0279 -0.0686  0.1830
 8928W        W24737   3.017   3.321  14.982  0.0531 -0.4088 -0.0500
 8929W        W24738  12.285  13.461  14.113  0.0585 -0.0727 -0.0632
 8930W        W24739  17.113   3.925  12.234  0.1357  0.2322  0.1748
 8931W        W24740   1.316  17.015   5.289  0.0091 -0.1171  0.0616
 8932W        W24741  11.699  13.475   4.099 -0.0326  0.3740 -0.0357
 8933W        W24742  11.991   1.294  11.659 -0.1111  0.5737  0.2379
 8934W        W24743  14.353  11.553   4.460  0.0153  0.1341  0.0070
 8935W        W24744  17.965   6.055  11.433  0.2541 -0.1723  0.1125
 8936W        W24745   3.946  17.052  11.252 -0.1163 -0.1656  0.4124
 8937W        W24746   5.965  16.967   3.488  0.1992 -0.0986  0.1009
 8938W        W24747  13.602   2.502   5.586 -0.0424 -0.0513  0.0182
 8939W        W24748  14.512  15.979   3.886 -0.1163  0.2225 -0.0015
 8940W        W24749   1.409   1.538  13.183  0.1130  0.0650  0.1378
 8941W        W24750   7.373   2.575   0.710 -0.3274 -0.3107 -0.1242
 8942W        W24751  18.057   3.322   4.116  0.1693 -0.0908 -0.3610
 8943W        W24752  11.558  18.069   3.874 -0.4458  0.2100  0.0878
 8944W        W24753  10.557  11.684  15.079  0.0170 -0.1521  0.0394
 8945W        W24754   6.682  16.034   1.510  0.0835 -0.0483  0.2817
 8946W        W24755   3.371  12.247   9.235 -0.1862  0.0101  0.1432
 8947W        W24756  11.979  11.920  10.967  0.0460 -0.0250  0.1057
 8948W        W24757  11.332   6.483  10.188  0.2204 -0.2299  0.5118
 8949W        W24758   6.225  18.966  11.445  0.1694  0.1947 -0.2326
 8950W        W24759  12.690   3.575   9.491 -0.0366 -0.1281  0.4941
 8951W        W24760   7.586   3.086  10.721 -0.0100  0.0241 -0.0544
 8952W        W24761  16.259  18.614  13.174  0.0313 -0.4771 -0.1543
 8953W        W24762   6.100   0.098  13.217 -0.0482  0.1067 -0.0979
 8954W        W24763  12.753  13.563  15.206 -0.0892 -0.0039  0.1882
 8955W        W24764   2.704  13.109  12.749  0.1407 -0.0198 -0.0137
 8956W        W24765   5.321  11.620  13.409 -0.1316 -0.1458 -0.3111
 8957W        W24766   4.811  18.560  11.589  0.2108 -0.0696  0.0962
 8958W        W24767   4.840   2.120   5.230 -0.0169 -0.0312 -0.2977
 8959W        W24768   0.319  10.056   0.783  0.1302 -0.1017  0.0575
 8960W        W24769   2.341   0.465  10.830  0.2829 -0.1262  0.1092
 8961W        W24770  13.359   8.968   9.396  0.2112 -0.2216 -0.1956
 8962W        W24771   5.988  16.856  10.429  0.0170  0.1525 -0.0123
 8963W        W24772   3.753  10.012  11.170 -0.0663  0.0710  0.0762
 8964W        W24773   7.346   2.757   3.976  0.2294  0.0195 -0.2046
 8965W        W24774   1.031   2.140   5.167 -0.0212 -0.1213  0.1538
 8966W        W24775   7.502   5.607  10.105 -0.3598  0.2363  0.1045
 8967W        W24776  14.917   5.973   3.760 -0.0036  0.1535 -0.5621
 8968W        W24777   3.330  13.160   2.252  0.1028  0.0417  0.4321
 8969W        W24778  10.820  15.231  12.260  0.0356 -0.0102 -0.3109
 8970W        W24779  13.130  15.756  11.935  0.1964  0.1098 -0.2704
 8971W        W24780   3.653  18.219   1.741 -0.0626  0.2220 -0.1130
 8972W        W24781   6.740   8.444   5.251  0.0106  0.1621  0.0027
 8973W        W24782   4.796   1.486  10.760 -0.4237 -0.1840 -0.1320
 8974W        W24783   6.621  12.400  14.703 -0.2021  0.2161 -0.1349
 8975W        W24784   2.884   1.854  10.366  0.3949  0.1868  0.4394
 8976W        W24785   2.452  15.104   4.255  0.1003  0.1806 -0.1360
 8977W        W24786  16.815  13.063  14.172 -0.0842  0.0921 -0.0115
 8978W        W24787   4.262  19.122  12.618 -0.1134  0.0624  0.3726
 8979W        W24788   8.278   8.440  14.830  0.1826 -0.0429 -0.1333
 8980W        W24789   8.552   6.067  11.168  0.4550  0.2981 -0.1294
 8981W        W24790  18.740   9.461  13.256  0.1992  0.0023 -0.1681
 8982W        W24791  12.008  11.288   0.041  0.1955 -0.0239  0.2172
 8983W        W24792  18.118  13.031  10.491  0.0355 -0.0598  0.0427
 8984W        W24793   2.420   2.280   3.011 -0.1085  0.1188  0.0165
 8985W        W24794   5.338   1.977  12.798  0.1776 -0.3354  0.0857
 8986W        W24795   7.158   2.231   1.013 -0.2021 -0.1052 -0.1172
 8987W        W24796   6.712   4.479  13.989  0.1598 -0.2347 -0.3843
 8988W        W24797   0.426   9.043   3.035  0.1079  0.3367  0.2885
 8989W        W24798   7.084  14.224   2.498 -0.0124 -0.1738 -0.1931
 8990W        W24799  10.277   2.588   4.146  0.1606  0.0881  0.0208
 8991W        W24800   0.655   9.320   5.469  0.0165 -0.0845 -0.1039
 8992W        W24801  14.775  10.779  11.257  0.0671  0.0620  0.2041
 8993W        W24802  18.988   3.670   2.984  0.3875  0.2329 -0.1972
 8994W        W24803   6.116   1.949   3.490  0.0522  0.1278  0.0256
 8995W        W24804  10.998  12.176  10.508  0.1126  0.3706 -0.0104
 8996W        W24805  19.149   8.179   3.366  0.0971 -0.0184  0.0507
 8997W        W24806  12.741   0.855   3.252  0.0257  0.0613 -0.0039
 8998W        W24807  18.857  14.402   1.271  0.0845  0.1700 -0.3623
 8999W        W24808   8.354   4.957  11.865  0.0736 -0.0525 -0.0509
 9000W        W24809  14.864   0.530   5.851  0.0796  0.4513 -0.0098
 9001W        W24810   3.149   9.567  10.600  0.0165  0.1904  0.0544
 9002W        W24811   2.884   3.007   5.514  0.0815  0.0690  0.0576
 9003W        W24812  16.948  15.929  14.015  0.2234  0.4700 -0.0667
 9004W        W24813   4.973   8.430  12.775 -0.1115  0.0398  0.0119
 9005W        W24814   8.548   0.710  12.986  0.0514 -0.2288 -0.2262
 9006W        W24815  11.216  11.851   3.559 -0.0740  0.1080  0.0195
 9007W        W24816   7.308   5.737   4.618 -0.2145 -0.3104  0.2298
 9008W        W24817   6.126  12.757   4.311 -0.1418  0.0318 -0.3918
 9009W        W24818   6.123  10.582   0.147  0.1333 -0.0583 -0.2021
 9010W        W24819   9.093   9.011   2.912 -0.1088  0.0503  0.1257
 9011W        W24820  13.720   4.597   1.900  0.1750 -0.1603  0.0856
 9012W        W24821   2.066  10.747  12.605 -0.0820 -0.0796 -0.0479
 9013W        W24822   2.248  13.393  10.943 -0.0878  0.0266  0.0329
 9014W        W24823   6.636  14.645   2.469  0.2912 -0.0182  0.0036
 9015W        W24824   5.705   8.226  14.414 -0.4185  0.1639  0.0288
 9016W        W24825  16.847  12.427   3.263  0.0507 -0.0259  0.1768
 9017W        W24826   3.846   3.746   2.475 -0.2157 -0.0414 -0.0662
 9018W        W24827  14.284  16.563   3.702 -0.0037 -0.0382 -0.0360
 9019W        W24828   7.237   9.544  13.494 -0.2523 -0.0497 -0.1300
 9020W        W24829  15.551   9.454  10.672  0.1910 -0.2957 -0.1153
 9021W        W24830  12.438  13.622  11.706  0.0104 -0.2999 -0.1172
 9022W        W24831  11.111  12.047   4.590  0.1114  0.2198  0.0462
 9023W        W24832   7.643  11.816   5.821  0.2252 -0.1606 -0.0299
 9024W        W24833   6.656   1.456  10.395  0.2324  0.1957 -0.0016
 9025W        W24834   5.833   4.858   0.277  0.1051 -0.1354 -0.3224
 9026W        W24835   0.370   3.016  10.772 -0.0878 -0.0252  0.1047
 9027W        W24836  11.173   4.038  10.997 -0.1048 -0.1123  0.3039
 9028W        W24837   6.537   3.435   3.902  0.2309  0.4323  0.2261
 9029W        W24838  18.454  15.759   0.733 -0.1532 -0.1869  0.1770
 9030W        W24839  16.269   2.523  10.311 -0.0499  0.0192 -0.3175
 9031W        W24840  12.302  13.770   1.044 -0.0107 -0.0163  0.2396
 9032W        W24841   2.971  14.746   4.256 -0.1503 -0.1010  0.1330
 9033W        W24842  12.226   7.460   4.859  0.2978  0.0949 -0.0289
 9034W        W24843   4.020   4.021   1.535  0.2917 -0.1941  0.1229
 9035W        W24844   0.365   9.024   0.262 -0.1508  0.1460  0.0341
 9036W        W24845   7.274   9.941  13.797 -0.1880 -0.0214  0.0037
 9037W        W24846  18.987   0.790   0.921 -0.1449  0.0404  0.3956
 9038W        W24847   5.443   4.129   0.606 -0.0062 -0.2288  0.2546
 9039W        W24848   7.111  17.343   5.642 -0.0905 -0.1055 -0.0709
 9040W        W24849   1.755  10.859   4.094 -0.0212  0.2090 -0.0073
 9041W        W24850   8.404   2.527  10.896  0.1715  0.2360  0.2986
 9042W        W24851   3.990   7.754  12.834 -0.0453  0.0405 -0.0086
 9043W        W24852   8.344  19.087  12.399 -0.0557  0.0626 -0.0483
 9044W        W24853   7.650   1.098   4.044  0.2963 -0.0634 -0.2568
 9045W        W24854   3.565   4.315  11.053  0.1042  0.1350 -0.0082
 9046W        W24855   7.301  18.997   5.060  0.2575  0.0698  0.0792
 9047W        W24856   0.733   0.844   1.547 -0.0384  0.2612  0.0221
 9048W        W24857   0.635   4.518  11.436 -0.0499  0.1193 -0.0853
 9049W        W24858  10.602  11.764   1.949 -0.0075 -0.2184 -0.5050
 9050W        W24859   4.617   7.880   5.333  0.1108  0.2451 -0.1167
 9051W        W24860  17.824  16.545  14.804 -0.1461 -0.2256 -0.0882
 9052W        W24861  14.209   7.413   0.045  0.1856  0.0234 -0.1738
 9053W        W24862   7.708   7.595   1.212 -0.2167 -0.1228 -0.2425
 9054W        W24863   8.858  11.993   4.948 -0.0122 -0.1932 -0.4152
 9055W        W24864  15.862   6.948  13.184 -0.0462 -0.0023  0.1380
 9056W        W24865   7.838   6.280  14.858 -0.0136  0.0468 -0.1070
 9057W        W24866   9.213   4.174   2.183  0.2305 -0.0973  0.0622
 9058W        W24867  12.767  15.779  12.864 -0.2251  0.2002  0.0507
 9059W        W24868  19.086  10.746  10.303 -0.0731 -0.2096 -0.0848
 9060W        W24869  10.696   1.646  14.860  0.2198 -0.0935  0.0410
 9061W        W24870   7.743  12.252  11.000 -0.3086  0.1304  0.1184
 9062W        W24871   5.821  15.691  13.687  0.2019  0.0341  0.3067
 9063W        W24872  17.873   0.952  12.935 -0.0078 -0.0296 -0.0624
 9064W        W24873  15.625   6.914   3.062 -0.0316  0.0780 -0.4482
 9065W        W24874  10.733   1.699  10.835 -0.1869 -0.0615 -0.0997
 9066W        W24875  18.532  17.126   0.944 -0.0080 -0.0924  0.2272
 9067W        W24876   6.893   2.128  11.359  0.2882  0.2231  0.3976
 9068W        W24877  18.047  13.359   2.958  0.0990 -0.3022 -0.0142
 9069W        W24878   5.751  17.043   0.651  0.1033 -0.2006 -0.2491
 9070W        W24879  17.946   4.048  10.368 -0.0915  0.0212 -0.0470
 9071W        W24880  10.183  16.434   2.897 -0.1921  0.2563 -0.3239
 9072W        W24881   9.199   8.055   4.183  0.2168 -0.0052  0.1700
 9073W        W24882   9.405  17.686  12.969 -0.2119 -0.0451  0.0472
 9074W        W24883  15.501  18.455   4.133 -0.0095  0.0327 -0.3178
 9075W        W24884  15.299  19.067  14.703 -0.0642  0.0563  0.0029
 9076W        W24885   3.560  11.693   4.067  0.1055  0.0261  0.2297
 9077W        W24886   9.637  10.235   0.817 -0.1245  0.1419  0.1188
 9078W        W24887  16.737  14.048  12.677 -0.3241 -0.0749  0.3153
 9079W        W24888  17.553  15.367   1.865 -0.2453 -0.0016 -0.0556
 9080W        W24889  15.715   2.128  12.217  0.2361 -0.3014 -0.4574
 9081W        W24890  18.314   0.126  13.280  0.1835 -0.3119 -0.4045
 9082W        W24891  18.181   1.454  15.027 -0.1421 -0.2179 -0.3308
 9083W        W24892   7.386  14.258   4.696  0.1667 -0.0811  0.1935
 9084W        W24893  10.154   0.122   5.091 -0.0605 -0.0614 -0.4344
 9085W        W24894   9.873   9.761   3.214  0.0597  0.0532  0.2058
 9086W        W24895   1.492  14.209  13.579 -0.1976 -0.3834 -0.0668
 9087W        W24896  16.483  10.221   5.971  0.2622 -0.1063 -0.1512
 9088W        W24897   6.733  14.009   0.722 -0.4769  0.1776 -0.1118
 9089W        W24898   8.931   4.321  14.026 -0.1380 -0.2912 -0.4300
 9090W        W24899  10.908  13.867  14.888 -0.1462  0.1514  0.2699
 9091W        W24900   6.274   8.167  12.404 -0.2517  0.1542  0.2376
 9092W        W24901  14.176  15.810   1.493 -0.0844 -0.0208  0.0063
 9093W        W24902   9.764  10.003  10.012  0.0481 -0.0226 -0.0724
 9094W        W24903   6.422  14.768   2.889  0.2399  0.1645 -0.1818
 9095W        W24904  11.241  17.844   0.793  0.0937 -0.1371  0.1872
 9096W        W24905  12.321   7.885   3.936 -0.1422 -0.1022 -0.4141
 9097W        W24906   8.448  16.514  12.938 -0.0596 -0.1588  0.3648
 9098W        W24907   9.674   1.618   2.597  0.2398  0.0511  0.2359
 9099W        W24908   5.947  15.941  14.084 -0.0653 -0.2666 -0.4064
 9100W        W24909  16.554   8.650  11.347  0.0990  0.1842 -0.3368
 9101W        W24910   9.160   3.905   1.725  0.0521  0.2392 -0.0860
 9102W        W24911   1.666   7.777   0.569 -0.0888 -0.0337  0.2080
 9103W        W24912  14.145  11.931   3.538  0.2258  0.1180  0.1706
 9104W        W24913  15.021   1.196   2.847  0.2426  0.0512  0.1843
 9105W        W24914   8.116  13.443   2.009  0.0476 -0.2580  0.1129
 9106W        W24915  11.942  12.308   3.999 -0.0523  0.2708 -0.1744
 9107W        W24916  12.185   5.533   5.126 -0.3939  0.1574  0.4056
 9108W        W24917   1.451  14.361   3.230  0.3349  0.0696 -0.1276
 9109W        W24918  10.706  13.670  12.711 -0.3400  0.2671 -0.2128
 9110W        W24919   8.876   3.223   2.012  0.1096  0.2926 -0.1023
 9111W        W24920  11.196   9.906   9.925 -0.0979  0.0669 -0.2261
 9112W        W24921  13.465  17.992   3.702  0.1345 -0.0026 -0.0254
 9113W        W24922   9.296   4.363   3.131  0.0418  0.0168 -0.0778
 9114W        W24923   4.915  17.574   0.485  0.3108 -0.0291  0.2266
 9115W        W24924  14.255   3.490  13.645 -0.2386  0.1772  0.1765
 9116W        W24925  13.771   8.090   0.823 -0.1543 -0.0698  0.1079
 9117W        W24926  15.639   8.981  12.882 -0.3620 -0.1159 -0.1097
 9118W        W24927   2.478   2.352  12.805  0.0288  0.1631  0.0059
 9119W        W24928  18.926  10.895  14.607 -0.0382  0.1931  0.0953
 9120W        W24929   2.298   9.117   3.933 -0.3035 -0.0892  0.2093
 9121W        W24930   2.654   2.330  13.991 -0.0359  0.1182  0.3515
 9122W        W24931   8.630   4.278   4.776  0.1788 -0.0411 -0.0016
 9123W        W24932  13.607   0.703   2.641  0.0360 -0.1797 -0.1215
 9124W        W24933   4.649   6.530   0.679 -0.4074  0.4116 -0.2327
 9125W        W24934   7.891  10.202   4.081  0.0037  0.1155  0.0119
 9126W        W24935  15.877   8.683   3.352  0.3708 -0.1414  0.3824
 9127W        W24936   7.103   2.542  11.170 -0.1153  0.1924  0.4705
 9128W        W24937  10.925  15.149   2.102 -0.0258 -0.0171  0.1675
 9129W        W24938  15.627  13.082   1.613 -0.0964 -0.0398 -0.0322
 9130W        W24939  17.498  10.721  13.452 -0.0927 -0.1729 -0.3382
 9131W        W24940  15.236  18.556  14.535  0.2266 -0.0820  0.1401
 9132W        W24941   2.791   7.886  14.530  0.0678 -0.2833 -0.5659
 9133W        W24942   1.793   1.009  11.650 -0.0631 -0.2688  0.0263
 9134W        W24943   8.442  12.548  15.157  0.3877 -0.0952 -0.1689
 9135W        W24944  16.260   0.518  11.807  0.1363 -0.0325 -0.0570
 9136W        W24945   7.380  10.854  13.609  0.0044  0.3539 -0.0032
 9137W        W24946  16.492  12.278  13.334  0.0739 -0.2605 -0.1275
 9138W        W24947   3.476   9.453   0.019 -0.0079  0.2598  0.1414
 9139W        W24948  18.434  12.476  12.735  0.0651 -0.1351 -0.2203
 9140W        W24949   6.776  12.997   4.461 -0.1217  0.1291  0.0897
 9141W        W24950   4.824  16.522  10.915  0.1819  0.1316 -0.1871
 9142W        W24951   4.213  14.527  13.459 -0.0380  0.3120 -0.0945
 9143W        W24952  12.333   5.612  13.272  0.0780 -0.1526  0.4008
 9144W        W24953   8.394   3.286   2.062  0.2653  0.4278  0.2605
 9145W        W24954   6.037   1.557  14.594 -0.0988 -0.2877  0.2047
 9146W        W24955  14.037  10.755   4.991 -0.1841  0.0828 -0.3292
 9147W        W24956  17.838   8.468   1.429  0.0420  0.0928  0.0267
 9148W        W24957   1.635   8.306   0.868  0.3694  0.0573  0.0198
 9149W        W24958   5.127   5.260  11.111 -0.1193  0.1553 -0.0283
 9150W        W24959   4.244   4.692  14.326  0.3504 -0.0491 -0.0675
 9151W        W24960   3.846  11.569  10.459 -0.0871 -0.0184 -0.5176
 9152W        W24961  15.365   1.993  10.987 -0.0669  0.2250 -0.1928
 9153W        W24962  13.555   8.490  11.233  0.1867 -0.0201  0.0845
 9154W        W24963  18.359   1.645   0.904  0.0742  0.0519 -0.0880
 9155W        W24964   5.875   0.321  12.047  0.2550  0.0692 -0.1094
 9156W        W24965   7.020   3.537  11.574 -0.0192  0.0639 -0.5409
 9157W        W24966   3.861  13.403  14.760 -0.1078  0.0535 -0.2185
 9158W        W24967  14.480   9.931  12.431 -0.1908 -0.1035  0.3483
 9159W        W24968  14.783  15.579  13.304  0.0612  0.2258 -0.0514
 9160W        W24969  11.531   9.834   3.160 -0.1931 -0.1913 -0.3371
 9161W        W24970   9.953  16.723   0.869  0.0669 -0.1286 -0.3265
 9162W        W24971  12.170  14.747  13.533 -0.3681 -0.0648 -0.2672
 9163W        W24972  12.528  16.739   3.107  0.3035 -0.1594  0.1373
 9164W        W24973   2.386   2.544   9.490  0.1983  0.2286 -0.2332
 9165W        W24974   3.679   9.427   5.587  0.0122 -0.1121 -0.0869
 9166W        W24975   7.062   3.688  14.653 -0.0303 -0.0130 -0.0064
 9167W        W24976   5.532   2.175   2.658  0.0085  0.1979 -0.2232
 9168W        W24977  17.067  14.162   2.592  0.0898 -0.0703  0.1540
 9169W        W24978  12.606   9.900  14.159 -0.3905  0.0404  0.1193
 9170W        W24979  12.798   3.481   1.387 -0.1168 -0.4211  0.0965
 9171W        W24980   0.388   5.121   4.372  0.2029  0.0005 -0.1655
 9172W        W24981   9.151  12.466  14.381 -0.0619  0.4134 -0.1130
 9173W        W24982   4.772  18.705  14.298  0.2535 -0.0796  0.0382
 9174W        W24983   8.117  17.497   5.826  0.0224 -0.0508  0.1390
 9175W        W24984   2.614   2.321  11.893  0.0509  0.2490 -0.0231
 9176W        W24985   1.625  10.628  12.428 -0.0189 -0.1841 -0.4274
 9177W        W24986   1.024  13.412   4.829 -0.1285 -0.4263 -0.0659
 9178W        W24987   5.966   6.730   2.075  0.0926 -0.2274 -0.2961
 9179W        W24988  11.339   5.195  12.960 -0.1692  0.0134  0.0128
 9180W        W24989  14.866   1.216  11.605 -0.4918 -0.1941  0.1509
 9181W        W24990  13.425  13.374  14.144 -0.1370 -0.0222  0.3161
 9182W        W24991   8.161  10.668   5.046 -0.2199 -0.0159  0.1092
 9183W        W24992   3.470  16.834   2.768 -0.0093  0.0515 -0.1037
 9184W        W24993  10.805   7.414  11.271 -0.0396 -0.1041 -0.3081
 9185W        W24994   2.899   7.846   0.486 -0.0321  0.0868  0.2464
 9186W        W24995   5.855   7.817  13.597  0.0231  0.0854 -0.0869
 9187W        W24996  12.881   8.350   1.694  0.0136 -0.3702 -0.0873
 9188W        W24997   1.777   6.863  13.529  0.0552  0.5696  0.1473
 9189W        W24998  14.445  12.107  13.687 -0.1595  0.2849  0.3412
 9190W        W24999  12.463  18.317   0.492  0.1190  0.3034 -0.0183
 9191W        W25000   7.349  15.324  11.342 -0.3199 -0.0125 -0.0720
 9192W        W25001   2.426  16.955   1.977  0.0308 -0.0257 -0.3989
 9193W        W25002   7.353  12.359   3.744 -0.1320 -0.0197  0.1771
 9194W        W25003  11.823   6.642   1.778  0.2106 -0.1236  0.2073
 9195W        W25004  16.535  16.278   1.707 -0.1481 -0.1687 -0.1506
 9196W        W25005   3.461   6.159  10.308  0.2704  0.0060  0.2008
 9197W        W25006   4.765   5.946   1.237  0.0207 -0.3064 -0.1743
 9198W        W25007   7.895  12.344   4.699 -0.1054  0.2210  0.1564
 9199W        W25008  14.451  13.796  13.609  0.3462  0.0095 -0.2408
 9200W        W25009   4.937   2.906  14.970 -0.0831  0.2244  0.0008
 9201W        W25010   0.574   6.933   4.174  0.1874  0.2580 -0.0427
 9202W        W25011  16.133   7.695  11.004 -0.1944  0.2200  0.1447
 9203W        W25012   5.729  10.674  13.970 -0.1333  0.1298 -0.1372
 9204W        W25013  12.348   5.397  12.169  0.3912 -0.0717 -0.3538
 9205W        W25014   0.751   2.150   2.033 -0.1725  0.0118  0.1478
 9206W        W25015  14.861  14.536  12.352  0.1579 -0.0382 -0.0246
 9207W        W25016   3.512   2.821  13.790 -0.0816 -0.1174  0.1630
 9208W        W25017  17.607  15.082   0.571 -0.2084 -0.2146 -0.2427
 9209W        W25018  18.925   6.574  12.251 -0.2350  0.1099  0.3419
 9210W        W25019   5.824   8.144  12.081  0.0278 -0.1318 -0.0379
 9211W        W25020  17.429   2.220   3.776  0.1779 -0.1223 -0.1618
 9212W        W25021   4.149   8.223   2.460  0.2000  0.0009 -0.1198
 9213W        W25022   5.995   0.270   3.407 -0.0006  0.5729  0.1287
 9214W        W25023  16.651  14.777  13.781  0.2183 -0.0624 -0.0617
 9215W        W25024  14.072   3.657   5.299 -0.3308  0.0741 -0.3580
 9216W        W25025   7.712  14.631   5.075  0.0073  0.0018 -0.0839
 9217W        W25026  15.286   6.082  12.099 -0.1690  0.1802  0.1557
 9218W        W25027   6.933  10.297  14.433 -0.1730  0.1697 -0.0641
 9219W        W25028   0.425   7.702  14.748 -0.0493  0.1749  0.0297
 9220W        W25029  10.120  15.348   4.852 -0.0014 -0.0265 -0.0707
 9221W        W25030   9.438   4.802   0.703  0.0471  0.4580 -0.1808
 9222W        W25031  11.991   1.582   3.173  0.5794  0.0383  0.0897
 9223W        W25032  12.236   9.479  14.076 -0.6067 -0.1365 -0.1422
 9224W        W25033   2.571   7.167  11.426 -0.0374  0.1023  0.1681
 9225W        W25034   9.387  12.557  15.083  0.3536  0.0073 -0.0945
 9226W        W25035  15.420  13.353  14.271  0.3236 -0.0762  0.0898
 9227W        W25036   6.171  18.892  14.460  0.2832 -0.0902 -0.5244
 9228W        W25037  17.790   4.006   0.481 -0.0054 -0.3166  0.0282
 9229W        W25038  12.799   3.248   4.272 -0.0916  0.2034 -0.0592
 9230W        W25039  17.843   8.964   4.029  0.0295 -0.0104  0.0210
 9231W        W25040  15.426  11.666   2.035 -0.1977  0.1871 -0.3188
 9232W        W25041   2.494  11.794  11.768 -0.1313 -0.3209  0.2362
 9233W        W25042  18.513   3.004  13.850 -0.1496  0.0018 -0.3202
 9234W        W25043   6.996  14.417   0.391 -0.0658  0.1856  0.0665
 9235W        W25044  18.429   3.093   4.374 -0.0009 -0.1162  0.0243
 9236W        W25045  13.375   0.680  12.531  0.1988  0.0032 -0.0126
 9237W        W25046  13.363  14.828  13.635  0.0931 -0.1186  0.1649
 9238W        W25047   7.579  16.354   0.406 -0.2442  0.1251  0.2344
 9239W        W25048  14.903   1.499  13.556 -0.0241  0.1301 -0.0437
 9240W        W25049   8.493   8.732   3.820 -0.5125 -0.1649 -0.0634
 9241W        W25050   4.359   6.181   4.704  0.1489  0.0810 -0.0290
 9242W        W25051  12.337  10.524  11.523 -0.1931 -0.0717 -0.1227
 9243W        W25052  12.274  11.171   3.088 -0.0259 -0.1487 -0.0208
 9244W        W25053   7.089  13.944  14.688  0.2498 -0.0442  0.0471
 9245W        W25054   1.415  18.311  12.459 -0.0333  0.1041 -0.2210
 9246W        W25055   2.006  14.944  11.363  0.0304  0.1772 -0.1656
 9247W        W25056  13.749  18.613   3.268  0.1232 -0.0772 -0.2595
 9248W        W25057  18.597   1.318   3.464  0.0696  0.1047  0.0941
 9249W        W25058   3.696  17.157  13.992  0.1116  0.0827 -0.2291
 9250W        W25059  13.472   3.368  11.629 -0.1516 -0.1904  0.3151
 9251W        W25060  15.826   6.300  14.514 -0.4548  0.0869 -0.0589
 9252W        W25061  13.493  15.197  12.719  0.2550  0.2060  0.0244
 9253W        W25062  11.234  14.786   2.809 -0.3101  0.4320 -0.1018
 9254W        W25063  17.124   0.595  13.580  0.0351  0.0380  0.0967
 9255W        W25064   3.061   1.371   2.620  0.1038 -0.4117 -0.0694
 9256W        W25065  14.624  12.878   3.896  0.1619  0.0988  0.0027
 9257W        W25066   2.882  15.719  11.257  0.1523  0.0750 -0.3086
 9258W        W25067  11.473  11.706   2.935 -0.0847 -0.0839  0.0294
 9259W        W25068   1.930   4.242  13.289  0.0245  0.5426  0.0666
 9260W        W25069   5.394   5.937  15.133 -0.1177 -0.2739 -0.1205
 9261W        W25070   7.510  17.389  14.199  0.2095 -0.1836 -0.0679
 9262W        W25071   7.343   9.894   3.363 -0.3590  0.2630  0.0331
 9263W        W25072   0.815  16.682   2.798 -0.1772  0.0037 -0.2449
 9264W        W25073   9.065  13.129  14.844  0.0209  0.0336  0.0477
 9265W        W25074  14.457   1.326  11.871  0.1819  0.2787  0.1969
 9266W        W25075   9.862  16.184   3.185 -0.1091 -0.3681 -0.1052
 9267W        W25076  11.953   5.496  14.112 -0.1777  0.0580 -0.0518
 9268W        W25077  14.804  11.183   4.528  0.2486  0.1670 -0.2716
 9269W        W25078  14.735   8.861  11.219  0.1064 -0.2384 -0.0770
 9270W        W25079  13.036   7.791  12.770 -0.0043 -0.0182 -0.3993
 9271W        W25080  13.850   2.587   2.455 -0.1737  0.2322 -0.0167
 9272W        W25081  17.280   6.519   2.893  0.2531  0.2136 -0.2881
 9273W        W25082  19.043  17.564  14.605  0.2341 -0.3137 -0.1696
 9274W        W25083   1.213   4.411  14.857 -0.2058  0.0494  0.1591
 9275W        W25084   1.133   7.914  11.207  0.1032  0.0551  0.1439
 9276W        W25085  18.018   7.861   1.026 -0.1489  0.1642 -0.1694
 9277W        W25086   3.070  13.444  11.819 -0.1754 -0.1308 -0.0866
 9278W        W25087   4.850  12.074  12.665  0.0191  0.2623 -0.1745
 9279W        W25088   0.129  15.258  12.882  0.1571  0.4233  0.0849
 9280W        W25089  14.955  13.953  15.137  0.0571  0.1405  0.0890
 9281W        W25090  13.482  13.113   3.344  0.0716  0.0439 -0.0003
 9282W        W25091  17.350   6.253   0.022  0.0034  0.3454 -0.1114
 9283W        W25092   6.144   6.449   5.021  0.0841  0.3530  0.0121
 9284W        W25093   2.244   6.485  14.628  0.1856 -0.0296  0.4082
 9285W        W25094   1.744  10.496   3.672  0.1036 -0.1190  0.1667
 9286W        W25095   4.658  15.209   9.152  0.2220 -0.0425  0.1548
 9287W        W25096   2.643   6.707   1.015  0.0479  0.0979 -0.2220
 9288W        W25097   7.736  11.798   4.335  0.2563 -0.0095  0.2608
 9289W        W25098  12.162  13.380   3.229  0.1262  0.1761  0.0902
 9290W        W25099   2.598  14.827   3.606  0.0010  0.2431  0.3087
 9291W        W25100  18.473  17.275   3.284  0.3472 -0.2326  0.0550
 9292W        W25101   1.066   5.255   3.620  0.2631  0.4504 -0.1668
 9293W        W25102  17.216   2.535   2.023  0.0628 -0.0069 -0.2467
 9294W        W25103  15.974   5.822   3.691 -0.0700  0.0501  0.1385
 9295W        W25104   2.983   3.692  10.608 -0.0033  0.3580  0.1493
 9296W        W25105   0.033  15.068   1.715 -0.0905 -0.3347 -0.0602
 9297W        W25106  14.570  16.367   2.996 -0.0139 -0.4485  0.2839
 9298W        W25107   1.516   8.802  10.128  0.0380  0.0795  0.3409
 9299W        W25108  12.141  16.694  14.677  0.0808 -0.0748 -0.2590
 9300W        W25109   0.333  15.326  11.561 -0.2671  0.0037  0.1458
 9301W        W25110  13.960   0.580   2.273 -0.2742 -0.0482 -0.2987
 9302W        W25111   8.857  11.717  15.168  0.1244 -0.1831 -0.2411
 9303W        W25112  11.397   1.914   3.330 -0.0973 -0.1143  0.0140
 9304W        W25113   0.751   7.685  14.223  0.3036 -0.2461  0.2992
 9305W        W25114  18.123   6.659   4.495  0.2216 -0.1331  0.0818
 9306W        W25115   3.190   3.872  12.193  0.1216  0.0236 -0.0813
 9307W        W25116  12.618   7.062  10.430 -0.4671 -0.0817 -0.2543
 9308W        W25117  14.595   5.798  14.069  0.1182  0.0030 -0.1740
 9309W        W25118   2.668   8.670  11.920  0.0992  0.2602 -0.0461
 9310W        W25119   6.831  11.775   4.884  0.1072 -0.0819  0.0327
 9311W        W25120   4.002  11.461   2.702  0.2162 -0.0179  0.2691
 9312W        W25121  15.910   7.896   0.029 -0.1852  0.1756 -0.0481
 9313W        W25122   2.339  18.611   9.128  0.1919  0.1650 -0.0105
 9314W        W25123  13.789  15.831  11.759 -0.0718  0.3549  0.2490
 9315W        W25124   0.946   8.216   3.143 -0.1656 -0.0112 -0.2394
 9316W        W25125  12.424  17.533  14.461 -0.4108 -0.0640 -0.2379
 9317W        W25126  18.231  17.991  11.599 -0.2416 -0.2050 -0.1318
 9318W        W25127  13.507  11.325  12.929  0.2806  0.1160 -0.3475
 9319W        W25128   4.335  10.026   3.466 -0.2931 -0.1256  0.1725
 9320W        W25129  11.673  18.191  14.624  0.2643  0.2631  0.1998
 9321W        W25130   0.896   7.979   4.076 -0.0146 -0.1712  0.1524
 9322W        W25131   6.475  14.367  14.173  0.3414  0.0717 -0.1084
 9323W        W25132   6.323   9.173   0.450 -0.0380  0.2612  0.1388
 9324W        W25133  11.933   9.809   2.446  0.0013  0.0639  0.0057
 9325W        W25134   7.715  12.718   2.569 -0.0053 -0.0166 -0.1216
 9326W        W25135   5.502   9.766  13.117  0.0387 -0.1877 -0.3556
 9327W        W25136   0.697  17.844   2.191  0.0817 -0.0712 -0.0236
 9328W        W25137  13.489  11.727  13.639 -0.3221  0.0869 -0.3101
 9329W        W25138   2.739  10.309  12.889 -0.1932 -0.2451 -0.4315
 9330W        W25139  15.603   7.433  10.959  0.0295 -0.0436  0.4161
 9331W        W25140  13.122   3.554  14.215 -0.2553 -0.3300  0.2245
 9332W        W25141  19.111  15.518   3.413  0.2172 -0.0373  0.0673
 9333W        W25142   6.769   1.197   4.981 -0.2946 -0.0453  0.2864
 9334W        W25143   0.163  18.110   0.548 -0.1738  0.1391  0.0192
 9335W        W25144   5.097  13.988  10.026  0.2628 -0.0957  0.1181
 9336W        W25145  14.037   6.986  12.903  0.2372 -0.3737 -0.0805
 9337W        W25146  10.223   3.589  12.787  0.4553  0.0033  0.2135
 9338W        W25147   4.938   0.248  12.777  0.2758  0.0104 -0.0221
 9339W        W25148   6.363   6.197   4.668 -0.0568 -0.0536  0.3372
 9340W        W25149   1.163  13.764  13.374 -0.3092 -0.3707 -0.2022
 9341W        W25150   7.689  14.954  11.732  0.0260 -0.0733 -0.3051
 9342W        W25151  15.864   6.461   4.424 -0.0797  0.1367  0.0209
 9343W        W25152  18.415   9.857  11.578 -0.4897  0.1267  0.0922
 9344W        W25153   0.605  17.406   1.299 -0.0546  0.2317 -0.3380
 9345W        W25154  15.191   0.875  14.319 -0.0985 -0.0543 -0.0816
 9346W        W25155  17.195   7.850  11.583 -0.1973 -0.0924 -0.0441
 9347W        W25156   2.611   9.594  13.565  0.0099  0.2795 -0.0773
 9348W        W25157  15.838   7.724   1.740 -0.0198 -0.1498  0.0264
 9349W        W25158  13.342  12.043   0.516 -0.0724 -0.3913  0.0548
 9350W        W25159   9.640  11.099   0.686  0.1193 -0.1723  0.0327
 9351W        W25160  14.536  16.023   2.419  0.1954  0.1068  0.1120
 9352W        W25161  13.802   6.248   1.662  0.0244 -0.3285 -0.1399
 9353W        W25162   8.412   4.108   4.363 -0.0016  0.0703 -0.2073
 9354W        W25163   0.851  17.855   4.320 -0.3148 -0.0710 -0.3431
 9355W        W25164   9.425  14.101  15.038  0.1849  0.2726 -0.2341
 9356W        W25165  18.235   6.918   3.081 -0.2376 -0.0474  0.0591
 9357W        W25166   1.091   2.569  13.651 -0.0462  0.0684 -0.2803
 9358W        W25167   2.466   3.045   2.152  0.1128  0.2402 -0.0669
 9359W        W25168   5.031  14.008  14.178 -0.0285 -0.0326  0.0704
 9360W        W25169   7.016   4.728   3.240 -0.1077  0.1497  0.1280
 9361W        W25170   4.664  11.300  14.681  0.5903  0.0240  0.3516
 9362W        W25171   9.438  12.976  11.125 -0.0121 -0.1591 -0.0017
 9363W        W25172   8.131  17.887   0.893 -0.0799  0.0570 -0.1362
 9364W        W25173  17.564   4.983   1.450  0.0301  0.1684 -0.2611
 9365W        W25174   6.430   7.102  12.553  0.1828 -0.3567 -0.1373
 9366W        W25175   1.696  16.324   2.829  0.2359  0.2541  0.0049
 9367W        W25176   8.305  17.108  11.139 -0.1742 -0.1175 -0.2012
 9368W        W25177   9.011  14.748   5.173 -0.0678 -0.1020  0.3721
 9369W        W25178  14.612  14.704  13.164  0.2952 -0.3515 -0.0107
 9370W        W25179  16.425  17.518   3.028  0.0958  0.1919 -0.3970
 9371W        W25180  16.544  14.549   1.563  0.6363  0.5426  0.0362
 9372W        W25181   1.396  11.863   1.013 -0.4421  0.4805  0.0899
 9373W        W25182   4.160  15.342   2.044 -0.1510 -0.1448 -0.1915
 9374W        W25183   9.584   4.699  12.672 -0.1241  0.1965 -0.1034
 9375W        W25184  13.115   2.561  13.308  0.0829  0.0642  0.1531
 9376W        W25185   7.161  16.308   1.311 -0.0927 -0.0887 -0.3116
 9377W        W25186   8.743   5.535  12.647  0.1312 -0.1663 -0.2078
 9378W        W25187   4.790   1.201   3.671 -0.1885 -0.1610 -0.2785
 9379W        W25188   9.989  12.878  12.789 -0.0213  0.0099  0.0629
 9380W        W25189   6.264   0.129   4.452 -0.0900 -0.3024  0.2291
 9381W        W25190   2.371   8.834   1.730 -0.0767  0.0093 -0.1471
 9382W        W25191   5.866  11.795   0.014  0.1145  0.1439  0.2181
 9383W        W25192   0.248  11.050   2.457 -0.2934 -0.0206  0.0162
 9384W        W25193   6.728  15.119   2.324  0.0765 -0.2342 -0.2037
 9385W        W25194  15.437  11.463  12.863 -0.0272 -0.0151 -0.0044
 9386W        W25195   4.621   9.660  11.928 -0.2155  0.1475 -0.0639
 9387W        W25196  13.008   8.420   1.241 -0.3378  0.0649  0.0316
 9388W        W25197  13.851   2.959  11.655  0.2129 -0.1789  0.4425
 9389W        W25198  17.566   8.374  12.779  0.0608 -0.3710  0.0792
 9390W        W25199   5.826  11.206  12.443 -0.1141  0.1957 -0.0715
 9391W        W25200  15.158  15.003   0.841  0.0864 -0.2489 -0.4733
 9392W        W25201  11.650  12.396   4.663  0.0327 -0.0054 -0.3485
 9393W        W25202  16.088  18.702   0.259  0.2924  0.0440  0.3010
 9394W        W25203  15.680   4.347   0.552 -0.2849  0.1956  0.1818
 9395W        W25204  18.495   5.031   1.700 -0.0351  0.1837  0.0721
 9396W        W25205  11.342   7.749  14.090 -0.1571 -0.1486 -0.3864
 9397W        W25206  12.863  18.729   2.977  0.0820  0.0728  0.0477
 9398W        W25207  14.281  14.219   0.366  0.4373 -0.0853  0.0432
 9399W        W25208  17.058  14.750  13.477  0.1422 -0.5504  0.0149
 9400W        W25209  11.561  15.503  14.744 -0.0606  0.1501 -0.1820
 9401W        W25210   3.383   9.450  14.067 -0.0293 -0.1741  0.0999
 9402W        W25211  10.504   4.537  11.341  0.0910  0.0956  0.2323
 9403W        W25212  16.509  13.244  13.721 -0.1211 -0.2574 -0.2662
 9404W        W25213  12.424   5.634   1.220 -0.0357 -0.0764  0.0956
 9405W        W25214   9.689  19.075  12.188 -0.0832  0.0982 -0.3225
 9406W        W25215   0.179  10.201   2.357 -0.3052  0.0023  0.3309
 9407W        W25216   6.257   3.686  12.206  0.2995  0.6005 -0.0244
 9408W        W25217  17.708   0.595   1.567  0.2175 -0.3290 -0.3071
 9409W        W25218   6.460  13.057   2.589 -0.2000  0.1094  0.1057
 9410W        W25219  17.846  17.247   4.049 -0.2720 -0.3027  0.4031
 9411W        W25220  10.196   0.708   4.831 -0.2370 -0.2538 -0.3089
 9412W        W25221   2.923  12.744   2.073  0.1388 -0.1940  0.0446
 9413W        W25222   9.097   1.100   0.644  0.0684 -0.2564  0.0253
 9414W        W25223   5.302  18.265  13.745  0.0471 -0.2485  0.0353
 9415W        W25224  12.446  13.882   1.581  0.0143 -0.3696 -0.0514
 9416W        W25225  12.945   9.805  11.856 -0.1639  0.3068  0.0335
 9417W        W25226  14.517   4.971   0.612 -0.1447 -0.0177 -0.0263
 9418W        W25227  14.336  15.859  14.127 -0.1807  0.0729  0.0047
 9419W        W25228  12.590   1.984  14.058  0.2108 -0.1981  0.1396
 9420W        W25229   1.183  16.199   1.372  0.0686  0.1405 -0.1604
 9421W        W25230   5.625   3.559   3.928 -0.1392 -0.0248  0.1560
 9422W        W25231  18.123   2.478   2.545  0.1739  0.0641  0.2078
 9423W        W25232   8.504  10.639   0.255  0.0785 -0.0183  0.2064
 9424W        W25233   0.686   1.613   0.299  0.2792  0.1584  0.0791
 9425W        W25234  10.667   8.475   1.947  0.0166 -0.1807  0.2303
 9426W        W25235  13.479  13.829   4.455  0.2108 -0.2317  0.0964
 9427W        W25236   8.526  11.600   4.724 -0.1496 -0.0116  0.0605
 9428W        W25237  12.060   1.970   4.829 -0.2723 -0.3047 -0.0283
 9429W        W25238  18.620   1.755  15.165 -0.0358  0.0642  0.0942
 9430W        W25239   6.363  11.988  10.025 -0.2382 -0.2268 -0.1979
 9431W        W25240   0.851  13.987   1.520  0.2062 -0.1318  0.1390
 9432W        W25241   2.476   2.270   5.460  0.2521 -0.0547 -0.2896
 9433W        W25242   0.519   3.983   4.283  0.0039  0.3144 -0.0810
 9434W        W25243   2.993   7.456  11.125  0.0552 -0.2059 -0.0909
 9435W        W25244   1.989  11.115   2.982 -0.3649 -0.0655 -0.0282
 9436W        W25245  10.263  12.888   1.026  0.0415 -0.2361 -0.2442
 9437W        W25246   4.387   0.092  11.735 -0.0942  0.3327  0.0910
 9438W        W25247  17.995   9.904   5.099  0.4120 -0.0453 -0.1678
 9439W        W25248   7.357   3.307   1.635 -0.0166  0.1255 -0.1250
 9440W        W25249  10.954  14.255   5.502  0.0144  0.2830 -0.0297
 9441W        W25250   3.448  16.172   9.615  0.1901  0.0605 -0.0197
 9442W        W25251  15.726  16.704   3.851 -0.2827  0.0891 -0.0334
 9443W        W25252   3.597   0.396  12.322 -0.1557 -0.2568  0.0171
 9444W        W25253   2.465   7.580   9.738  0.1135 -0.2418  0.3168
 9445W        W25254  17.871  10.388   0.190 -0.1469 -0.2101 -0.2169
 9446W        W25255   3.341   0.851   2.880  0.1749  0.0055  0.0197
 9447W        W25256  14.107  16.838  11.826  0.2615 -0.1684  0.0658
 9448W        W25257   1.760  18.168   2.138  0.0069 -0.0455 -0.0345
 9449W        W25258   8.451   4.347   3.492  0.2561 -0.0817  0.1716
 9450W        W25259  12.865   2.219   3.188  0.1397  0.1944  0.2969
 9451W        W25260   0.927  10.549   4.771  0.1306 -0.0807  0.0564
 9452W        W25261  11.505   6.616   2.536 -0.3476 -0.1165  0.0617
 9453W        W25262   8.631   7.489  12.988 -0.3068 -0.1178  0.0334
 9454W        W25263   8.972  10.869  13.219  0.2347  0.0082 -0.1616
 9455W        W25264   1.407  17.144  14.183  0.0978 -0.0474  0.0660
 9456W        W25265   6.546   0.665   4.043  0.4493  0.0898  0.0614
 9457W        W25266   2.251   2.971  12.133  0.0866 -0.0743 -0.0260
 9458W        W25267  17.068  16.488   4.104 -0.0527  0.2685  0.0045
 9459W        W25268   0.978  12.902  13.339 -0.0198  0.0642 -0.0917
 9460W        W25269  17.188   8.363   2.925  0.0629 -0.0534  0.1300
 9461W        W25270  10.119  11.917  12.633 -0.1761 -0.1681 -0.0777
 9462W        W25271  10.579   6.421  11.869 -0.2701 -0.0202  0.5267
 9463W        W25272   5.524   1.958   3.521 -0.1429  0.0333  0.0217
 9464W        W25273   9.334   5.643  14.343  0.4115 -0.2385 -0.1370
 9465W        W25274   6.149  16.794  12.297 -0.1092  0.2219 -0.1361
 9466W        W25275   5.923   7.947   4.256 -0.2026  0.2513 -0.2992
 9467W        W25276   7.037   3.055   4.315  0.3712  0.2306  0.1462
 9468W        W25277   6.514  14.234   0.282  0.0833 -0.0120  0.0328
 9469W        W25278   8.977  17.345  12.013 -0.0023  0.0670  0.0456
 9470W        W25279  14.439   7.954   2.190 -0.0300 -0.3555 -0.0205
 9471W        W25280  14.177   2.231   2.782 -0.0800 -0.1385 -0.2050
 9472W        W25281  16.805   4.929   4.291 -0.1130  0.0724 -0.1442
 9473W        W25282   0.918  15.050  13.919  0.1078  0.1909  0.0431
 9474W        W25283  16.628  15.856   3.136  0.1291 -0.1531  0.0423
 9475W        W25284  11.682  15.559  11.034 -0.2094 -0.0334  0.1142
 9476W        W25285   3.167   2.451   4.285  0.3633  0.1523 -0.2431
 9477W        W25286   2.845   9.237   2.278 -0.0506  0.2710 -0.1056
 9478W        W25287  17.321   5.415   3.688 -0.1116 -0.0735  0.1194
 9479W        W25288  12.887  15.104   5.144  0.1827 -0.1126  0.2073
 9480W        W25289  18.650   7.046  11.389 -0.0896  0.0515 -0.0222
 9481W        W25290  11.859  16.455   4.437  0.2675  0.2386 -0.1729
 9482W        W25291  15.667   0.553  13.971  0.3053 -0.2606  0.0521
 9483W        W25292   5.665   4.457   1.947 -0.0328  0.0957  0.1753
 9484W        W25293  13.276  11.843   0.962  0.0217 -0.1338 -0.0573
 9485W        W25294  10.086   2.972   3.748  0.3088  0.3479 -0.0400
 9486W        W25295   9.504   3.570   3.234 -0.0625 -0.0730  0.0910
 9487W        W25296   6.324   2.508  11.229  0.2123 -0.4382 -0.1510
 9488W        W25297  13.645   6.014  12.992 -0.1814  0.0141  0.1102
 9489W        W25298   0.175  16.198   2.951  0.0655  0.1671  0.3541
 9490W        W25299   4.226   1.450  14.949 -0.0884 -0.2407 -0.1404
 9491W        W25300  19.065   4.119   0.956  0.2512  0.1277 -0.2492
 9492W        W25301   3.412  11.491  10.156  0.1112  0.2384 -0.0896
 9493W        W25302  17.629  14.170   0.923 -0.3861  0.1034 -0.0457
 9494W        W25303  11.859   1.180   3.483  0.2360 -0.4143  0.3827
 9495W        W25304   9.433   3.112  11.253  0.1928 -0.0006  0.1610
 9496W        W25305  15.268  13.897   2.537 -0.0241  0.2953 -0.3152
 9497W        W25306   4.959  16.084   0.817 -0.2657  0.0596 -0.2092
 9498W        W25307  15.897   7.243  11.294 -0.0968 -0.1617 -0.0290
 9499W        W25308   8.249   1.867   1.423 -0.2060 -0.0032  0.0951
 9500W        W25309   2.267   0.982   4.882 -0.0694 -0.2545  0.0069
 9501W        W25310   8.235   7.071   4.147  0.3978  0.2661 -0.1780
 9502W        W25311   6.525  15.048   4.054 -0.1485 -0.1015  0.3327
 9503W        W25312   8.310  11.074   0.841 -0.1812  0.0273 -0.1433
 9504W        W25313  14.148   4.228   3.909  0.2242  0.0516 -0.0890
 9505W        W25314  10.759   9.252  13.423 -0.0662 -0.1583  0.3950
 9506W        W25315   1.094  16.876  14.900  0.0290 -0.0878 -0.3268
 9507W        W25316   7.618   4.988   2.670  0.1177 -0.0639  0.0378
 9508W        W25317   7.113   0.285   2.411  0.2173 -0.0507 -0.1228
 9509W        W25318   9.729  15.486   1.916 -0.1933 -0.4703 -0.3596
 9510W        W25319   8.378   7.367   0.100  0.0427 -0.0360 -0.0646
 9511W        W25320  15.976   6.534   0.951 -0.6444  0.0597 -0.2427
 9512W        W25321   4.249  16.170  12.775 -0.3492 -0.1000 -0.2627
 9513W        W25322   9.768  11.984   3.775  0.0910 -0.1490  0.2581
 9514W        W25323  11.685   7.932  14.473  0.2298 -0.4316 -0.1441
 9515W        W25324  12.626   3.838   1.075  0.1240 -0.0194  0.3204
 9516W        W25325  14.359   8.414   4.855 -0.0325 -0.0961 -0.0382
 9517W        W25326  16.240  11.886   2.546 -0.0578  0.1845 -0.0613
 9518W        W25327  17.320   2.862   0.234 -0.0321  0.1570 -0.2204
 9519W        W25328   3.827  15.158  14.497  0.3705 -0.1014 -0.0818
 9520W        W25329  17.321   2.437  14.060 -0.1134  0.2920  0.0173
 9521W        W25330  11.548   5.157   0.442  0.0356  0.4175  0.0356
 9522W        W25331  18.869   4.644  13.605  0.0786  0.0662 -0.1902
 9523W        W25332   0.799   8.435   0.647  0.0542 -0.1449 -0.0871
 9524W        W25333   1.470  16.180  14.416  0.1450 -0.1622  0.0456
 9525W        W25334  11.692   7.698  14.990 -0.0770  0.2376 -0.1203
 9526W        W25335   8.451  13.486   5.372  0.2117  0.3089 -0.1002
 9527W        W25336   9.810   3.733   2.886  0.1182  0.1180  0.0911
 9528W        W25337   2.560  15.338  12.943 -0.1323 -0.0695  0.3691
 9529W        W25338   2.585   2.833  12.781  0.0306  0.0908 -0.2349
 9530W        W25339  18.224   9.115   2.375 -0.0613 -0.2510 -0.0886
 9531W        W25340  11.046  13.748  11.562 -0.1045 -0.1191  0.4624
 9532W        W25341   6.029  12.602   3.311 -0.0200 -0.3362 -0.1140
 9533W        W25342   1.208   9.691   0.240  0.1002  0.0543  0.0265
 9534W        W25343  17.347  14.915   4.539  0.1862 -0.3872  0.5268
 9535W        W25344   5.271  13.031  13.570 -0.0806  0.0975 -0.4690
 9536W        W25345   0.627  12.053  10.383 -0.2282 -0.2477  0.2119
 9537W        W25346   4.618   7.095  11.120  0.4245 -0.3476  0.1135
 9538W        W25347   8.339  11.832  15.151 -0.2776 -0.3687 -0.0697
 9539W        W25348   8.102  13.893  12.099  0.1163  0.1223  0.0706
 9540W        W25349   1.825   0.803  13.595 -0.2094  0.2024 -0.3914
 9541W        W25350  10.504   8.731  12.533 -0.1718 -0.0373  0.2097
 9542W        W25351  15.268  14.338  11.986  0.5534 -0.2476 -0.0083
 9543W        W25352  14.338   8.534   3.769 -0.1612 -0.1019  0.1183
 9544W        W25353  10.679  15.318   9.981 -0.0892  0.1484 -0.3173
 9545W        W25354  12.282   3.145   5.222  0.2075 -0.5026  0.1316
 9546W        W25355  19.100  13.089   1.260 -0.3041  0.3776  0.3704
 9547W        W25356  18.563   8.759  14.584  0.1882  0.3081  0.2094
 9548W        W25357   6.288  12.710   9.911 -0.4231  0.2166 -0.1484
 9549W        W25358   6.846   3.428  10.171 -0.0470  0.3371  0.0541
 9550W        W25359   9.734  17.644  11.781 -0.1451  0.0959  0.2753
 9551W        W25360   1.243   7.869  14.092  0.1436  0.0628  0.1096
 9552W        W25361   9.144  12.303  11.163  0.1520  0.1933  0.4514
 9553W        W25362  18.874  13.491   2.415 -0.1025 -0.0790  0.3559
 9554W        W25363   6.454   5.516  12.764 -0.0730  0.2821 -0.0038
 9555W        W25364   4.880   4.681  12.258 -0.4509 -0.0612 -0.1305
 9556W        W25365   5.848  11.152   4.921  0.1130 -0.3738  0.0230
 9557W        W25366  12.474   1.977   3.915 -0.1187  0.2893  0.1555
 9558W        W25367   1.139  16.991   9.217 -0.2297  0.0739 -0.2806
 9559W        W25368  14.031   2.076   2.320 -0.0044 -0.3756 -0.0716
 9560W        W25369   5.710   4.721   1.417 -0.3004 -0.1378 -0.1471
 9561W        W25370  10.533  17.787   2.928  0.0259 -0.1362 -0.0454
 9562W        W25371  12.273   6.279  11.987 -0.1961 -0.0764  0.1029
 9563W        W25372  17.070  16.267   1.733 -0.0153  0.1338 -0.0348
 9564W        W25373  10.244  13.068   3.061 -0.0500 -0.2035 -0.0829
 9565W        W25374   3.073   8.199   9.782 -0.2002 -0.0805  0.0733
 9566W        W25375   8.532  15.990   3.617 -0.2955  0.0586 -0.1734
 9567W        W25376  12.196  17.020   1.944 -0.1957  0.1722 -0.1004
 9568W        W25377  15.108   0.854   0.404 -0.0214 -0.0311  0.0228
 9569W        W25378  17.199  16.546  13.895  0.2676  0.2246  0.1019
 9570W        W25379   7.688   5.779   1.952 -0.0510  0.3679 -0.0132
 9571W        W25380   6.133  13.686  10.599 -0.5294 -0.1533 -0.2965
 9572W        W25381   9.682   6.856   4.355  0.3488 -0.0226 -0.3859
 9573W        W25382  13.823  15.980  14.898  0.1551 -0.3343 -0.0527
 9574W        W25383  16.524  11.566   4.375  0.0511  0.3278 -0.1317
 9575W        W25384  13.022  14.679   4.895 -0.1616 -0.3698  0.1402
 9576W        W25385  12.268   9.247  10.415 -0.0324  0.2869 -0.0432
 9577W        W25386   8.790   6.397   2.078  0.0128  0.1289  0.1124
 9578W        W25387   1.115   3.130  12.959  0.1657 -0.1261  0.0854
 9579W        W25388   1.846  18.320  15.031  0.0711 -0.0099 -0.1941
 9580W        W25389   5.042  15.547  13.638 -0.1475 -0.0534 -0.0987
 9581W        W25390   7.247  14.829  11.182  0.3237 -0.1013 -0.0361
 9582W        W25391  14.964  10.658   4.431 -0.0008 -0.2804  0.0312
 9583W        W25392   0.054   1.738  15.034 -0.2444  0.0190  0.0960
 9584W        W25393   5.970   7.689   5.661 -0.1366 -0.1763  0.3761
 9585W        W25394   2.202  11.228  10.554  0.1767 -0.1079 -0.2621
 9586W        W25395   6.243   2.204   0.733 -0.2433 -0.4233  0.0513
 9587W        W25396   3.072  15.440   3.128  0.0320 -0.2504  0.1456
 9588W        W25397   9.780  17.147   2.597 -0.4953  0.0322 -0.1854
 9589W        W25398  15.138  12.193   4.177 -0.1529  0.1161  0.0994
 9590W        W25399  10.785   4.150  12.708 -0.0741  0.1257 -0.0157
 9591W        W25400   0.825   6.423  12.240  0.1524  0.0975 -0.0374
 9592W        W25401  19.032  12.945   4.849 -0.4032 -0.1153  0.0534
 9593W        W25402   4.425  14.119   1.831  0.2337  0.1552 -0.0693
 9594W        W25403  10.320   0.879  11.890 -0.2681 -0.1522  0.1853
 9595W        W25404   2.329   7.743   3.166 -0.3366 -0.0596 -0.2042
 9596W        W25405   3.705   8.009  11.421  0.1887 -0.1725  0.1254
 9597W        W25406   1.583  17.968  11.253 -0.3828  0.1838  0.2426
 9598W        W25407   1.143   5.893  15.206  0.2826 -0.2411  0.0323
 9599W        W25408  17.574   8.253   0.233 -0.0193 -0.3396 -0.0732
 9600W        W25409   2.718   6.439   2.122  0.2986  0.0231  0.0097
 9601W        W25410  14.175   5.784  15.127  0.0267 -0.0313  0.1458
 9602W        W25411   0.414   5.512   3.020 -0.3507 -0.0290 -0.1976
 9603W        W25412  18.285   0.713  12.750 -0.0162 -0.0707 -0.0272
 9604W        W25413  13.221  14.152   0.388 -0.2436  0.2415 -0.2051
 9605W        W25414   3.201  15.912   1.874  0.2870  0.2873  0.0874
 9606W        W25415   5.258   1.255  10.986 -0.1131 -0.1397  0.0077
 9607W        W25416  11.156   6.346  11.046 -0.0097  0.2255 -0.2698
 9608W        W25417   5.671   4.611   3.388  0.0202  0.3289 -0.4317
 9609W        W25418  11.341   5.681   2.682 -0.1704  0.2268 -0.3518
 9610W        W25419   5.754   5.558   5.371 -0.1632  0.1321  0.0415
 9611W        W25420  13.198   9.485   3.471  0.2146 -0.1828 -0.1102
 9612W        W25421  16.227  12.083  12.796 -0.2607  0.3502  0.2719
 9613W        W25422  18.827   8.364  12.415  0.0649 -0.0679  0.0337
 9614W        W25423   3.361   5.390   1.040  0.1314  0.0398 -0.1494
 9615W        W25424   0.391   0.454  10.573 -0.1895 -0.0214  0.1395
 9616W        W25425   3.309   5.105  14.362  0.1541 -0.1454  0.2692
 9617W        W25426   4.357  16.334  13.393 -0.0773 -0.2266  0.0350
 9618W        W25427  17.521   1.557   2.910  0.1938  0.1238  0.0498
 9619W        W25428   5.822   0.847   1.985  0.6435 -0.1086  0.0936
 9620W        W25429   9.323  18.436   3.624  0.2117  0.0472 -0.0515
 9621W        W25430   9.670   0.108  14.739  0.0931 -0.1662 -0.2826
 9622W        W25431  16.185  16.347  12.307  0.2337  0.1155  0.0575
 9623W        W25432   1.749  18.480  11.171 -0.0971  0.1497 -0.3461
 9624W        W25433   9.713  14.661  12.718  0.0580  0.2442  0.0894
 9625W        W25434  10.990  14.345  14.681  0.2559  0.0302 -0.0828
 9626W        W25435  13.782  10.950   3.585  0.4847 -0.1410 -0.1703
 9627W        W25436  12.824  13.401  12.210 -0.0323 -0.1722  0.1690
 9628W        W25437   9.487  10.077  12.514  0.1255 -0.0319  0.1576
 9629W        W25438   7.340   2.593  10.763  0.2681 -0.0137  0.0874
 9630W        W25439   5.081  18.162   9.474  0.1758  0.1381 -0.0556
 9631W        W25440  16.538  18.631   0.082  0.1288  0.0602  0.1005
 9632W        W25441  13.167   1.104  10.548 -0.4308 -0.3347 -0.0469
 9633W        W25442  17.865  17.252   0.462 -0.0646 -0.0157  0.0474
 9634W        W25443  16.876   7.380   3.413  0.0668 -0.0872 -0.0277
 9635W        W25444  11.138  11.692  11.408  0.0193  0.2172 -0.3319
 9636W        W25445  12.184   0.878  11.365  0.1901  0.2962  0.0031
 9637W        W25446   2.565   8.215  11.672  0.0276  0.1609 -0.0970
 9638W        W25447  16.490  14.073  13.106 -0.1132  0.0566 -0.0780
 9639W        W25448   6.963  11.915  11.202 -0.0731 -0.0380 -0.1007
 9640W        W25449   5.938  14.059   0.130 -0.0139  0.0081 -0.1522
 9641W        W25450   6.377   0.142  13.634 -0.3089  0.0936  0.0786
 9642W        W25451   5.184  13.382   2.225  0.3566  0.0344 -0.0025
 9643W        W25452  13.151   4.242  12.095 -0.0964  0.4541 -0.1971
 9644W        W25453   7.401   8.038   4.373 -0.4840 -0.3604  0.1219
 9645W        W25454  16.343  14.091   5.288  0.2194 -0.1435  0.0384
 9646W        W25455  12.717  10.786   4.633 -0.0520 -0.0299 -0.1322
 9647W        W25456  13.274   9.191   3.855 -0.0597 -0.0393 -0.0087
 9648W        W25457   5.842   7.361   0.150 -0.2400 -0.2280  0.0852
 9649W        W25458  15.672   5.813   3.307  0.0674 -0.2454  0.0208
 9650W        W25459   5.688   1.316   1.846  0.0206  0.0355 -0.1082
 9651W        W25460   3.840   0.404   9.931 -0.0241  0.2831 -0.1055
 9652W        W25461   2.393   9.574  12.492 -0.0973  0.1445 -0.0669
 9653W        W25462  14.980   7.259  10.240 -0.0759  0.0394 -0.0912
 9654W        W25463   1.714  17.931   1.722 -0.1205 -0.0515 -0.0494
 9655W        W25464  11.960  14.045   4.893  0.0154  0.0594  0.2215
 9656W        W25465   8.770   3.465   2.446  0.1188 -0.2861 -0.1545
 9657W        W25466   6.159   7.269   2.788  0.1348  0.1967 -0.0149
 9658W        W25467  13.222   6.968  14.275  0.1728  0.0312 -0.1307
 9659W        W25468   7.275   3.447  11.081  0.2991 -0.0579 -0.0036
 9660W        W25469   6.589  16.097   0.560  0.0302 -0.1125  0.0003
 9661W        W25470  10.108   8.788   1.691  0.0953  0.1413 -0.3323
 9662W        W25471  16.311  15.117   0.452 -0.0556 -0.0717 -0.0124
 9663W        W25472  17.173  10.104  14.007 -0.1023  0.1910  0.0566
 9664W        W25473  15.098   8.276  12.704 -0.1188  0.3672 -0.2234
 9665W        W25474  10.622   2.750   3.456  0.1320  0.0982 -0.4158
 9666W        W25475   3.660  15.739  15.016 -0.1440 -0.1929 -0.3764
 9667W        W25476   8.973   4.445   2.595  0.1255  0.1330 -0.0333
 9668W        W25477  17.590  11.814   1.848 -0.0375  0.0003 -0.1602
 9669W        W25478   5.050   9.497   3.901 -0.2518 -0.1573  0.0730
 9670W        W25479  15.906  16.459   2.590 -0.3448 -0.2078  0.3033
 9671W        W25480   1.883  16.021   4.146  0.0674 -0.1156  0.0499
 9672W        W25481   7.841  15.362   3.775 -0.0131 -0.1493 -0.1344
 9673W        W25482   8.936   4.716  13.053 -0.0706  0.1389  0.1444
 9674W        W25483   7.362   9.257  12.632 -0.2122 -0.2172 -0.1920
 9675W        W25484  19.094  16.315  10.806  0.0670 -0.1254 -0.0083
 9676W        W25485  18.103   3.929   4.017 -0.0281  0.1036  0.0326
 9677W        W25486   3.054   9.599  13.259  0.2396  0.1585  0.1237
 9678W        W25487   8.352  11.820  12.363  0.2259  0.1184  0.1752
 9679W        W25488  18.291  12.516   3.061 -0.0731 -0.3061  0.2750
 9680W        W25489   7.065  10.445  11.330 -0.2789  0.1042  0.1228
 9681W        W25490  10.044  18.594   2.975  0.1913  0.0417 -0.1735
 9682W        W25491  13.302  18.830   5.752 -0.0369 -0.1923  0.0970
 9683W        W25492  14.803   3.721   1.725  0.0212 -0.1944 -0.1162
 9684W        W25493  13.966  14.773   5.151  0.0739 -0.1339  0.0191
 9685W        W25494   9.186  18.249   3.065 -0.1454  0.0664  0.1807
 9686W        W25495  13.527  10.541   3.511 -0.1385 -0.0432 -0.3043
 9687W        W25496  12.888  15.302   2.593 -0.2546 -0.1073  0.0064
 9688W        W25497   7.328   3.606  15.082 -0.3076  0.1168  0.0307
 9689W        W25498  13.413  17.605   4.025  0.3462 -0.1923  0.0032
 9690W        W25499  10.596   3.589   2.241  0.1085  0.1673  0.1392
 9691W        W25500   2.533  17.194   0.599  0.2491  0.2440  0.1228
 9692W        W25501   8.688   7.961   0.560  0.1649  0.0727  0.0893
 9693W        W25502   9.414   4.668   2.224  0.1354 -0.1937 -0.1186
 9694W        W25503   3.045   6.414  13.490  0.0384 -0.3338  0.0244
 9695W        W25504  13.660  17.991   1.172 -0.2687  0.0912  0.0054
 9696W        W25505   8.118   9.825  14.345 -0.1034  0.1999 -0.0926
 9697W        W25506  10.889  11.566   2.800  0.0257 -0.1989  0.2361
 9698W        W25507   4.147  16.928  10.384  0.0011 -0.1720 -0.0507
 9699W        W25508  14.798   3.046   0.082 -0.1590  0.2449  0.1385
 9700W        W25509   3.642  15.070  10.898  0.3244 -0.2694  0.0189
 9701W        W25510  10.729  14.910   3.898 -0.0195 -0.3344 -0.0883
 9702W        W25511   4.310   2.450   9.907  0.1282 -0.0493 -0.1672
 9703W        W25512  11.093  12.251  14.304 -0.0238  0.2138  0.2012
 9704W        W25513   8.876  16.753   5.577 -0.5689 -0.0360  0.1615
 9705W        W25514   0.347   3.892   1.343 -0.1245 -0.2177  0.0598
 9706W        W25515  11.441   9.014   2.228 -0.0631 -0.1210 -0.1600
 9707W        W25516  18.027   0.357  15.214 -0.1620 -0.2062 -0.1082
 9708W        W25517   2.488   4.502   3.934  0.2645 -0.1621  0.0891
 9709W        W25518  13.647  11.460  11.728 -0.0593 -0.4240  0.0431
 9710W        W25519  14.982   5.528  11.494  0.0625 -0.3323  0.2385
 9711W        W25520   4.373  10.532  15.176 -0.2923  0.0002 -0.4105
 9712W        W25521  11.658   2.086   1.769 -0.0596 -0.3310  0.1313
 9713W        W25522   8.262   7.576   1.882 -0.0627  0.3262 -0.2707
 9714W        W25523   5.877  12.290  13.366  0.1190 -0.3537 -0.2419
 9715W        W25524   7.646  16.514  11.764  0.0359 -0.1281  0.0375
 9716W        W25525  16.660   8.642   3.531 -0.3341 -0.1477 -0.2994
 9717W        W25526  14.595   0.330  11.154  0.1983 -0.0049 -0.3805
 9718W        W25527   5.970   7.739  14.607  0.4278  0.0514  0.0233
 9719W        W25528  12.851  17.319  12.173  0.0911 -0.1752  0.1304
 9720W        W25529   0.377   6.079   1.447  0.2219 -0.1459 -0.1238
 9721W        W25530   3.649   4.978  10.325 -0.3624 -0.2086 -0.0473
 9722W        W25531   5.164  17.180   0.095 -0.2741 -0.2493  0.1351
 9723W        W25532  16.372   0.543   1.174  0.3115  0.0713 -0.1538
 9724W        W25533  10.409  10.408   4.369  0.1300  0.0001 -0.0172
 9725W        W25534  12.975   1.899  13.004  0.3125 -0.2109 -0.1306
 9726W        W25535  11.596   9.693  13.948  0.2018 -0.1272  0.2705
 9727W        W25536   8.316  10.496  10.691  0.2116 -0.1169  0.0663
 9728W        W25537   4.565   9.574   4.550 -0.0982  0.0229 -0.3178
 9729W        W25538  18.301   6.910   1.963 -0.0739 -0.0740 -0.2138
 9730W        W25539   2.171  17.948  14.913 -0.1826 -0.3551  0.0255
 9731W        W25540   6.289  17.254  10.725 -0.1749 -0.1577 -0.0105
 9732W        W25541  13.889  15.387  14.823  0.0071  0.1846  0.1079
 9733W        W25542  15.714  12.942   3.274 -0.0844 -0.1401 -0.3028
 9734W        W25543   5.840  13.889  12.623 -0.1622 -0.0645  0.2454
 9735W        W25544  12.182   7.859  13.023 -0.0520  0.0105 -0.0238
 9736W        W25545   6.768   7.589   0.451  0.1507  0.0039 -0.3477
 9737W        W25546  16.217  18.444   5.152 -0.1691 -0.3027  0.2514
 9738W        W25547  18.210   2.698   0.600 -0.2219 -0.3491 -0.0290
 9739W        W25548  16.081  17.870  12.742 -0.0880 -0.1257 -0.1894
 9740W        W25549   7.141   2.151  11.842  0.1688 -0.3576  0.2678
 9741W        W25550  11.209   7.043  14.717  0.0524 -0.0494 -0.3205
 9742W        W25551  16.275   8.919   3.623  0.1125  0.2172  0.1062
 9743W        W25552   7.625   4.919   1.591 -0.4449  0.1998  0.2286
 9744W        W25553   3.171  10.737   1.471 -0.0974  0.0184 -0.1090
 9745W        W25554  18.699   4.368  14.479 -0.0681  0.0063  0.0694
 9746W        W25555  16.715   4.138  12.474 -0.0941 -0.1982  0.1667
 9747W        W25556   0.221  15.349   0.237  0.1888  0.4443  0.4902
 9748W        W25557   8.371   2.552  14.043  0.2873 -0.2532 -0.1390
 9749W        W25558   9.099  16.468  10.773 -0.1688 -0.2164 -0.0819
 9750W        W25559  12.402  16.228   3.301 -0.3178 -0.0065 -0.2702
 9751W        W25560   8.626   5.268   2.342  0.1291  0.0350 -0.3972
 9752W        W25561   2.306  15.762   1.868  0.3396  0.1617  0.1143
 9753W        W25562   8.283  16.537  11.307 -0.1046  0.1028  0.1379
 9754W        W25563  19.151  14.462   0.253  0.0672 -0.0541  0.0048
 9755W        W25564   5.141   3.131   2.404  0.1194 -0.0952  0.1404
 9756W        W25565  15.184   4.990   2.054  0.1296  0.0279  0.1588
 9757W        W25566   2.066  12.113  12.255  0.0776 -0.0691  0.2112
 9758W        W25567   0.827  14.347   4.236 -0.0355 -0.2143 -0.2276
 9759W        W25568  10.207  12.821   2.594  0.0695 -0.2869 -0.0365
 9760W        W25569  17.400   6.933  13.074 -0.6369  0.2716  0.2226
 9761W        W25570  11.234  12.031  12.981  0.3051 -0.5878 -0.0211
 9762W        W25571   7.576   2.223   9.838 -0.0473 -0.0355  0.0306
 9763W        W25572   0.313   2.495   3.686  0.1470  0.1839  0.1808
 9764W        W25573   7.322  15.725  12.594  0.0553 -0.0294  0.0918
 9765W        W25574   5.969   1.678  11.446 -0.1902 -0.1760  0.0324
 9766W        W25575   7.305   6.099  11.461 -0.1559  0.2785  0.0411
 9767W        W25576  10.122   8.279   4.050  0.0682  0.0936 -0.1770
 9768W        W25577   7.570  14.996  12.691  0.2539  0.0434 -0.2147
 9769W        W25578   9.489  12.971  12.073 -0.0327 -0.2372  0.2575
 9770W        W25579   2.847  19.044  12.239 -0.1930 -0.2550 -0.1672
 9771W        W25580  18.162  12.338  13.960 -0.0623  0.0406 -0.0177
 9772W        W25581   9.337  13.383   1.745 -0.2744  0.1647  0.1174
 9773W        W25582  16.663   0.677  14.520  0.0695 -0.1093 -0.1833
 9774W        W25583   8.639  17.204  14.069  0.4028  0.1583  0.0796
 9775W        W25584  11.724  16.219   3.927 -0.1732 -0.0361  0.0302
 9776W        W25585   0.503   1.706  14.668  0.4915  0.3039 -0.1846
 9777W        W25586  14.267  10.105  10.849  0.0434 -0.2293  0.0728
 9778W        W25587   4.707  19.104  14.607  0.1800 -0.1032  0.0573
 9779W        W25588   1.279   5.273   2.325 -0.0918  0.1397  0.0980
 9780W        W25589   0.165  17.252   3.091 -0.0615  0.3362 -0.1338
 9781W        W25590  19.095  12.496   0.627 -0.2512  0.0748  0.3990
 9782W        W25591   9.193  12.010  14.022 -0.1930 -0.0347  0.1705
 9783W        W25592  14.018  18.796   5.019  0.1151  0.2389  0.1819
 9784W        W25593  16.556   8.843  10.028  0.1457  0.0283 -0.1819
 9785W        W25594   8.886  15.205   5.365  0.1910  0.1433  0.0342
 9786W        W25595  13.617   9.175  14.724 -0.0052  0.4788 -0.0121
 9787W        W25596  10.590  16.645  13.326 -0.1687 -0.1442  0.2043
 9788W        W25597   1.055  11.508   5.029  0.0036  0.1183  0.0272
 9789W        W25598  16.005   3.956  10.728  0.0859 -0.0890  0.0285
 9790W        W25599  19.087   9.697  12.594 -0.2361  0.0670 -0.1219
 9791W        W25600  12.436   2.500  14.764  0.1044  0.2119 -0.4725
 9792W        W25601   3.716   1.343  13.929  0.3019  0.1836  0.0043
 9793W        W25602   5.515   9.163  10.428 -0.4430  0.0367  0.2932
 9794W        W25603   4.145  16.117  13.764 -0.0912 -0.1019 -0.1966
 9795W        W25604  15.316   7.911  10.494 -0.2458  0.4448 -0.1597
 9796W        W25605   1.614  14.085  10.097  0.0313 -0.1643  0.2910
 9797W        W25606   5.008   8.601   1.407  0.0185  0.1243 -0.0007
 9798W        W25607   4.754  18.733  12.519  0.1130  0.0777  0.1739
 9799W        W25608   4.281   3.229   2.537 -0.0643  0.2028 -0.0706
 9800W        W25609  14.820  17.525   3.743 -0.1063  0.0012 -0.0360
 9801W        W25610   6.141  13.594  14.050 -0.3042  0.0903 -0.1245
 9802W        W25611   0.681   2.460  12.333 -0.2306  0.1221 -0.0857
 9803W        W25612   7.446  18.289   5.412  0.0117 -0.0122 -0.2121
 9804W        W25613   9.830  12.779   1.233  0.0315 -0.0398  0.2516
 9805W        W25614   8.405   0.084   0.668 -0.0629  0.0453  0.1275
 9806W        W25615  17.794   1.077   1.273 -0.3465 -0.0977 -0.0252
 9807W        W25616  13.268   3.729  12.381 -0.1294  0.1958 -0.0140
 9808W        W25617  18.088   2.100  12.078 -0.0203 -0.0539  0.0558
 9809W        W25618  16.337   8.839  10.906  0.0327  0.0399  0.0372
 9810W        W25619   1.323   2.128  15.118 -0.1366 -0.4126  0.1504
 9811W        W25620   0.977  15.984  11.216  0.1390  0.1477 -0.3565
 9812W        W25621   2.272   0.304   0.688  0.2810 -0.0663  0.0976
 9813W        W25622   2.662  14.575   3.045 -0.1946 -0.0715  0.4090
 9814W        W25623  15.580  16.555  12.468 -0.0224 -0.2434  0.2068
 9815W        W25624  15.189   4.498  13.972  0.0996  0.0083  0.1628
 9816W        W25625  13.549  16.592   3.987  0.2728  0.1831  0.4286
 9817W        W25626  12.819   4.646  10.110  0.0618 -0.1873  0.1772
 9818W        W25627   5.827  12.002  14.776  0.3252 -0.0655  0.0673
 9819W        W25628   5.060  10.808  14.920 -0.2098  0.1146 -0.1335
 9820W        W25629  15.895  15.857  11.744  0.0580 -0.1532  0.0267
 9821W        W25630  17.632  10.049  12.464  0.1037  0.3565 -0.0696
 9822W        W25631   0.793  18.325  11.300 -0.0101 -0.0058  0.1158
 9823W        W25632   0.045   3.245  11.024 -0.1977 -0.1924 -0.0273
 9824W        W25633  14.118  12.434   3.308  0.2297 -0.1046 -0.1253
 9825W        W25634   0.691  18.492   4.487 -0.0210  0.3527 -0.0663
 9826W        W25635   2.176   4.124   4.896 -0.1227 -0.1891  0.2210
 9827W        W25636  14.444  10.994   5.892  0.2285 -0.2249  0.0952
 9828W        W25637   1.289  10.782   2.793 -0.0062  0.0078 -0.1125
 9829W        W25638   6.946  10.723  14.609 -0.4621  0.2113 -0.0086
 9830W        W25639  15.030   4.948   2.649  0.3880 -0.0725  0.1786
 9831W        W25640   0.048   8.969   2.478  0.1262 -0.1859  0.0444
 9832W        W25641  16.355  14.622  11.324 -0.2452  0.1092 -0.0882
 9833W        W25642   7.121   4.041   4.474 -0.2225 -0.4372  0.2217
 9834W        W25643   0.112  10.280  13.085  0.2195  0.3519 -0.0709
 9835W        W25644  16.628   9.194  14.684  0.1261 -0.1499 -0.1882
 9836W        W25645   4.599   8.893   1.339  0.3369 -0.0356  0.2498
 9837W        W25646   5.282   7.386  12.121 -0.0777  0.2006 -0.3000
 9838W        W25647  18.394  15.192  14.246 -0.1066  0.0517 -0.1463
 9839W        W25648  10.993   2.331   5.401 -0.3810 -0.1268  0.1523
 9840W        W25649   6.336   3.302  14.933  0.1415  0.1516  0.3044
 9841W        W25650   9.487   0.207   0.921 -0.1055 -0.0225 -0.0017
 9842W        W25651   1.070   3.916  15.028 -0.2720 -0.2230 -0.1695
 9843W        W25652   8.928   8.759  11.435 -0.4212  0.1062  0.0670
 9844W        W25653  11.264  16.955   4.944 -0.1977  0.4890  0.1172
 9845W        W25654   4.461   7.305   0.528  0.2001 -0.4497  0.0852
 9846W        W25655   0.566  18.641   3.936  0.2260  0.2114 -0.2347
 9847W        W25656  15.329  10.260  10.165  0.1888  0.4062 -0.0976
 9848W        W25657  12.379   4.407  10.065 -0.0881  0.1911 -0.0320
 9849W        W25658   8.635   6.731  14.441 -0.2465 -0.0236 -0.0589
 9850W        W25659   8.433   8.714  11.550  0.2394  0.0077  0.1067
 9851W        W25660   3.659  10.476   2.494  0.2339  0.3763  0.1527
 9852W        W25661   9.093   3.128  12.261  0.0228 -0.1219  0.2059
 9853W        W25662  17.385   3.249  13.416  0.2715 -0.0474  0.0057
 9854W        W25663  11.697   2.519  10.591 -0.0782 -0.0660  0.0708
 9855W        W25664   3.359  12.573  13.610  0.3828  0.1110 -0.0916
 9856W        W25665   0.416  14.040  11.892 -0.3422  0.2866  0.1940
 9857W        W25666  10.101  18.444   4.517 -0.2279 -0.2389  0.0955
 9858W        W25667  11.346  11.997  13.973 -0.0171 -0.0392 -0.0790
 9859W        W25668   9.593   4.909  11.720  0.2374 -0.1483 -0.1690
 9860W        W25669   8.285   6.508   0.892  0.1276  0.3649  0.1766
 9861W        W25670  18.458   4.725   1.320  0.0178 -0.1143  0.2117
 9862W        W25671   9.647  18.815   0.853  0.1448  0.0994 -0.0114
 9863W        W25672  11.748  10.634   3.721 -0.2410  0.1725 -0.3140
 9864W        W25673   3.906  16.659   4.397 -0.0591  0.1730  0.1103
 9865W        W25674   1.054  16.720  14.444 -0.2073 -0.3827  0.0820
 9866W        W25675   7.023  17.829   3.967 -0.3763  0.0249  0.3000
 9867W        W25676   8.328   7.683   2.845  0.0632  0.3478 -0.3051
 9868W        W25677  11.507  18.268   5.990  0.1329 -0.0693  0.0236
 9869W        W25678  13.852  11.027   2.679  0.1373 -0.0370  0.0727
 9870W        W25679   4.825   0.127  10.063 -0.0839  0.0881 -0.1213
 9871W        W25680  12.387   0.181   0.526 -0.1348  0.1274  0.2558
 9872W        W25681   8.823   9.913  11.270  0.3849  0.3002  0.0866
 9873W        W25682   9.199  11.032   5.805  0.0531  0.1761  0.2705
 9874W        W25683  12.316  12.165  11.789 -0.0833 -0.0062 -0.2321
 9875W        W25684  17.181   8.523  12.474  0.2255  0.1843 -0.2959
 9876W        W25685  18.443  12.879   2.047 -0.0417 -0.3393  0.0692
 9877W        W25686   9.645   9.207  10.377 -0.1928 -0.5345 -0.1944
 9878W        W25687  11.864   3.751   9.189  0.1305 -0.1119 -0.1232
 9879W        W25688   3.608   8.776  14.188  0.0181 -0.1553 -0.1267
 9880W        W25689  18.917  13.701  10.982  0.2292  0.3201  0.1263
 9881W        W25690   8.795  13.045  12.097  0.1121  0.2789  0.2985
 9882W        W25691   3.340  11.194   3.920  0.0291  0.2167 -0.1467
 9883W        W25692   1.144   6.085   3.206  0.2516 -0.0667 -0.0305
 9884W        W25693   2.025   6.782  12.192 -0.3212 -0.0017  0.3156
 9885W        W25694   2.812  10.192  10.896 -0.2525  0.1397  0.1228
 9886W        W25695   3.848   5.142  12.053 -0.0074 -0.0740 -0.0392
 9887W        W25696  13.526   8.791   3.796 -0.0329 -0.0613  0.0513
 9888W        W25697  17.822   9.344  14.165 -0.5022  0.2895  0.0080
 9889W        W25698  10.387   2.489  15.069 -0.2422 -0.0219  0.3322
 9890W        W25699   6.329   4.508   3.002 -0.4825 -0.1731 -0.0466
 9891W        W25700   1.816  10.616  11.363  0.0018 -0.1379 -0.0878
 9892W        W25701  11.840   4.260   3.580  0.0819  0.2178 -0.0040
 9893W        W25702  11.041   1.870   3.686  0.0434 -0.0417 -0.1975
 9894W        W25703   4.804   1.830   2.855  0.5452  0.0770  0.1540
 9895W        W25704  10.911   1.901   2.412 -0.0528  0.1929 -0.0986
 9896W        W25705  10.544   4.076   3.343 -0.2285  0.0135 -0.2309
 9897W        W25706   1.448  11.409   1.465  0.2674 -0.2968  0.0158
 9898W        W25707   2.450   7.600   0.584  0.0109 -0.2338 -0.0021
 9899W        W25708  17.102  17.174   0.912 -0.4576 -0.2783 -0.1821
 9900W        W25709  18.235   0.802   4.484  0.0359 -0.0674  0.4723
 9901W        W25710  10.018  10.102   3.626 -0.1561  0.3344 -0.1143
 9902W        W25711   8.129   8.277   4.008 -0.0833  0.1916 -0.0912
 9903W        W25712  14.723  18.162   5.895  0.2023  0.0370 -0.0390
 9904W        W25713  15.481  17.846  11.011 -0.2081 -0.0238  0.0625
 9905W        W25714  12.464  17.539  15.031 -0.0810  0.0466 -0.3812
 9906W        W25715   1.885  10.982  14.995  0.1265  0.2887 -0.0529
 9907W        W25716  11.370   9.113   0.142  0.1028 -0.1623  0.1247
 9908W        W25717  15.584   9.564   2.970 -0.1139  0.1430 -0.1048
 9909W        W25718   4.171   0.083  10.697 -0.0510  0.2150 -0.2069
 9910W        W25719   9.206   9.559  11.207  0.0750  0.4683 -0.3933
 9911W        W25720  18.990  18.686   3.192 -0.0068 -0.0559 -0.0885
 9912W        W25721  15.014   3.021  14.804 -0.0928  0.1021 -0.0577
 9913W        W25722   2.040  16.314  12.831 -0.1532 -0.1824 -0.0685
 9914W        W25723   5.050   4.469   5.436  0.2568 -0.2006 -0.0045
 9915W        W25724  11.756   6.448   3.421 -0.0463 -0.3177 -0.2621
 9916W        W25725  15.323  13.407   1.807  0.1166 -0.1423 -0.0652
 9917W        W25726  17.777   4.922  13.086 -0.0421 -0.0560 -0.1344
 9918W        W25727  15.605   3.496   4.785 -0.2677 -0.1395  0.4375
 9919W        W25728  15.928   7.119   1.726  0.4314 -0.1615  0.0203
 9920W        W25729   6.226  17.608  14.749 -0.0423 -0.1008 -0.0475
 9921W        W25730   4.605  18.785  13.251 -0.3343  0.0844 -0.2238
 9922W        W25731   7.801  13.350   2.499  0.0567 -0.1082 -0.1399
 9923W        W25732   7.232  15.323   3.635 -0.1696  0.3322  0.1930
 9924W        W25733   4.399   4.378  15.209 -0.1791  0.2526  0.0632
 9925W        W25734  12.112   0.107   5.320  0.2381  0.0527 -0.0853
 9926W        W25735  10.185   0.147  12.099  0.0424  0.2130 -0.3818
 9927W        W25736   9.670  10.964  12.580 -0.1258  0.0680 -0.0315
 9928W        W25737   8.905  10.713   2.747  0.2341 -0.2327 -0.0652
 9929W        W25738  12.397   3.618   0.440  0.0161 -0.2008  0.1494
 9930W        W25739   7.801   0.357  13.350  0.1047  0.1562  0.3002
 9931W        W25740   8.632  17.348  13.519  0.2518  0.0846  0.0407
 9932W        W25741   5.378   2.367  13.748 -0.0923  0.1410  0.1296
 9933W        W25742   0.818   6.306  15.063  0.0700 -0.1183 -0.0291
 9934W        W25743   7.437  10.124  11.237 -0.1053 -0.2113  0.3015
 9935W        W25744  17.057  15.259   1.452 -0.0322  0.1470  0.5461
 9936W        W25745  12.948  13.990  12.917 -0.0686  0.0044 -0.0637
 9937W        W25746   0.736  13.955  12.787 -0.5336  0.1244  0.0370
 9938W        W25747  15.149   5.699   5.158  0.0556 -0.1512 -0.0722
 9939W        W25748   8.308   3.961  13.279  0.1380 -0.2121 -0.1666
 9940W        W25749   9.139  16.120  14.556 -0.1281  0.0975 -0.0251
 9941W        W25750  13.663  12.222   4.904 -0.2673 -0.0142 -0.5315
 9942W        W25751   0.372  12.539   1.462  0.2109  0.3886 -0.1134
 9943W        W25752   7.115   0.345   5.053 -0.0629  0.0568 -0.0509
 9944W        W25753  12.522  12.971   2.206  0.2411  0.2065  0.0911
 9945W        W25754   8.251   4.679  14.498 -0.2810  0.1841  0.3435
 9946W        W25755   0.500   6.930  12.241  0.1387  0.0464  0.2124
 9947W        W25756   3.404  10.645  13.372 -0.1231  0.6251 -0.1320
 9948W        W25757   9.127  12.793   5.342  0.3668 -0.2372 -0.0167
 9949W        W25758   8.578   1.203   0.860  0.0057 -0.1894 -0.3215
 9950W        W25759   7.813  12.424  13.187  0.1556 -0.2557  0.3607
 9951W        W25760   0.055  13.777   3.566  0.3477  0.4371  0.0855
 9952W        W25761  13.729   5.300   4.041  0.1634  0.3572  0.3383
 9953W        W25762   5.560  18.879   5.597  0.2466 -0.2066  0.1189
 9954W        W25763   3.774  13.868  13.456 -0.1998 -0.1595 -0.1877
 9955W        W25764   5.690   6.757   1.649 -0.0940  0.3957  0.4051
 9956W        W25765  17.589   0.401  14.357 -0.0892 -0.1213 -0.1347
 9957W        W25766   1.113  11.743  12.797  0.3212  0.1068  0.2698
 9958W        W25767  15.450   9.553   1.295  0.1962  0.0270 -0.1110
 9959W        W25768  13.064   0.464   5.454  0.1047  0.3125  0.0570
 9960W        W25769   8.708   8.344  14.454 -0.0008 -0.1095  0.3531
 9961W        W25770   2.220  10.918   2.543 -0.1232 -0.0200 -0.5132
 9962W        W25771  16.743  16.758   4.756 -0.2176  0.1858  0.2599
 9963W        W25772   6.148   2.933   0.460 -0.1689  0.0308  0.1807
 9964W        W25773   6.636   1.042   0.547 -0.0349  0.4964 -0.1487
 9965W        W25774  15.370  10.402   0.415  0.0052  0.2472  0.2020
 9966W        W25775   6.943  18.174  14.322  0.1698  0.1574  0.0667
 9967W        W25776  13.315   0.270  12.805 -0.0341  0.0231  0.0123
 9968W        W25777   6.276  12.410  10.841  0.3540 -0.1430 -0.0339
 9969W        W25778  18.507   2.459  14.457 -0.2441  0.1735  0.3388
 9970W        W25779  11.151   8.241  14.107  0.0769  0.5774  0.3717
 9971W        W25780  14.043   2.544   4.803  0.1720  0.2774  0.1434
 9972W        W25781  17.657   2.191   1.380 -0.2395  0.1329  0.1214
 9973W        W25782  13.428  18.899   3.789 -0.0381 -0.2120 -0.1406
 9974W        W25783   9.599  17.942  12.513  0.1411  0.3199 -0.3468
 9975W        W25784   3.868   0.665   2.777 -0.2141 -0.3078  0.1330
 9976W        W25785   0.066  19.093   3.613 -0.2068 -0.1337 -0.4020
 9977W        W25786   1.593   5.764  15.034  0.1007  0.0606 -0.1042
 9978W        W25787   9.871  13.802   3.625  0.2620  0.0522  0.1675
 9979W        W25788  13.865   8.390   4.261 -0.1539  0.2083  0.1753
 9980W        W25789   2.295  18.622  14.203  0.3294  0.0267  0.0232
 9981W        W25790   1.195   0.582  10.802 -0.0100 -0.1177 -0.0854
 9982W        W25791  11.905   9.096  15.216  0.0994 -0.0735 -0.2508
 9983W        W25792   1.853  18.384  10.374  0.2432  0.0653  0.1587
 9984W        W25793  11.679  10.173  11.801 -0.3139 -0.1252  0.1247
 9985W        W25794  15.654   6.304   0.138  0.0929 -0.0448 -0.0171
 9986W        W25795  12.362   3.332   4.614 -0.2258  0.0155  0.0220
 9987W        W25796   6.933   2.210   4.873 -0.1247  0.0743  0.0871
 9988W        W25797  14.968   5.064  11.754 -0.0509 -0.1404 -0.1848
 9989W        W25798   3.791  12.343  13.799 -0.1250  0.3185 -0.2294
 9990W        W25799   4.150   6.326  12.317  0.2662 -0.0238 -0.2547
 9991W        W25800  17.665   5.594   5.810  0.1990  0.0587  0.1363
 9992W        W25801   0.175   6.623   9.943 -0.0165 -0.3948  0.4699
 9993W        W25802   6.553   1.510  14.446  0.5320 -0.2418  0.1581
 9994W        W25803   7.293   4.146   2.347  0.3420 -0.1340 -0.1058
 9995W        W25804   6.774   9.734  10.810  0.2222  0.0976 -0.2600
 9996W        W25805   6.755   9.886  10.252 -0.0107  0.1267  0.1371
 9997W        W25806   5.963   2.696   3.934 -0.0756  0.1021  0.5072
 9998W        W25807   4.256   1.194  12.237  0.4500  0.1153  0.1068
 9999W        W25808   0.170   7.792  13.423 -0.2337  0.2541 -0.0257
10000W        W25809   7.933   9.468  13.009 -0.3625  0.1334 -0.2550
10001W        W25810   0.936   0.843   4.419 -0.1547  0.3218 -0.2028
10002W        W25811  17.162  14.590   2.341 -0.0608  0.0964 -0.1291
10003W        W25812  14.527   8.212  13.515 -0.4793  0.1193 -0.0297
10004W        W25813   9.644   0.483  11.486  0.0243 -0.1830  0.1146
10005W        W25814   0.606  14.715  12.068 -0.2124 -0.1475 -0.1860
10006W        W25815  15.727   9.480   6.040 -0.2510 -0.0555  0.0486
10007W        W25816   2.302   7.472  13.325 -0.2637 -0.0336 -0.0695
10008W        W25817  14.045  11.903   4.628  0.2826 -0.3459 -0.1600
10009W        W25818   9.501  11.700   0.045 -0.0394  0.1760 -0.3673
10010W        W25819  10.096  18.192   0.215 -0.3191 -0.1055  0.1695
10011W        W25820  13.699  19.042  11.455  0.3219  0.1699  0.3382
10012W        W25821  16.954  12.412   2.636  0.2468 -0.1165 -0.2325
10013W        W25822  12.929  12.195   2.419  0.0240 -0.0024  0.0907
10014W        W25823   0.843  14.361  10.367 -0.1433 -0.0047  0.0055
10015W        W25824  12.052   0.101   4.582  0.3209  0.0963  0.2206
10016W        W25825  10.555   6.273   2.347  0.1144 -0.1731 -0.0608
10017W        W25826   2.166   3.451   0.447  0.0670 -0.0258 -0.2537
10018W        W25827  17.329   3.790   5.372  0.1521 -0.5019 -0.0058
10019W        W25828  13.406   8.671   2.462  0.0313  0.0141  0.2524
10020W        W25829   8.460   2.012  12.583  0.0869  0.0465  0.2055
10021W        W25830   6.225  17.846   4.339  0.0869  0.0769 -0.0969
10022W        W25831  15.597  14.601  13.186 -0.0181  0.0934 -0.2788
10023W        W25832  18.250   2.716   5.714 -0.2136  0.0396 -0.2204
10024W        W25833  14.232   7.762   0.432  0.2343  0.1058 -0.0269
10025W        W25834   3.103   1.944   0.197  0.0281  0.1538 -0.1263
10026W        W25835  13.960   9.236  11.894  0.0310 -0.3332  0.1940
10027W        W25836  17.884  17.878   1.116 -0.3066 -0.2329  0.0921
10028W        W25837   0.916   7.684   3.665  0.1833 -0.0671 -0.0486
10029W        W25838  13.639   0.700  12.916 -0.1638 -0.0506 -0.0285
10030W        W25839   3.637   4.067   0.759 -0.0234 -0.2221  0.2224
10031W        W25840   0.962   8.940  13.413 -0.2620  0.1030 -0.1066
10032W        W25841   0.110   6.826   2.134  0.0994  0.2251 -0.1604
10033W        W25842   4.915  17.387   1.630  0.1874  0.0663 -0.0107
10034W        W25843  14.692   1.970   3.830  0.0886 -0.1744  0.2166
10035W        W25844   7.807   9.068  13.836 -0.0731  0.2561 -0.0685
10036W        W25845   8.838   2.576   4.831  0.2380 -0.4073 -0.1426
10037W        W25846   2.105  13.784   2.316 -0.0569  0.1930  0.1870
10038W        W25847   6.244   6.764  12.127 -0.0180 -0.0214  0.3970
10039W        W25848  16.775   2.866   1.796 -0.0734  0.1103 -0.2821
10040W        W25849  10.046  12.597   3.118  0.2245 -0.0154  0.0189
10041W        W25850   1.309  16.361   0.056  0.1200  0.1008 -0.2303
10042W        W25851   4.640   4.681  12.913  0.1735  0.0792  0.1522
10043W        W25852  15.407  16.437   3.598  0.2592  0.0329 -0.0594
10044W        W25853  16.497  15.990  11.849 -0.1472  0.2201 -0.0906
10045W        W25854   5.377   5.548  13.926 -0.0894  0.1975  0.2637
10046W        W25855  14.305   6.058  10.852 -0.1517  0.4162 -0.1766
10047W        W25856  16.681  12.912   4.878  0.2749 -0.1391  0.4025
10048W        W25857  10.865   6.733   1.037  0.0379  0.2073 -0.0435
10049W        W25858   1.042  18.597  11.652 -0.2589 -0.0817 -0.2624
10050W        W25859  16.454   0.345   2.442 -0.2969  0.0339  0.2898
10051W        W25860   8.481  17.185  12.081  0.2941  0.2058 -0.2021
10052W        W25861  18.289   8.498  14.156  0.1709  0.0786 -0.0107
10053W        W25862  16.576   6.594  10.916  0.2154  0.0753  0.1750
10054W        W25863  16.377   1.050   1.457 -0.2556  0.1447  0.3272
10055W        W25864  10.808   2.330  14.168 -0.0695 -0.3221  0.1348
10056W        W25865  18.380   4.040  11.884 -0.0141 -0.1622  0.0265
10057W        W25866  18.432  15.041   3.692  0.3584 -0.2468  0.2299
10058W        W25867   6.318   6.561  10.538 -0.3545 -0.2977  0.0054
10059W        W25868  18.777  17.327  11.855  0.1094 -0.2627 -0.0719
10060W        W25869  17.005  12.422   1.730 -0.1464 -0.3958 -0.3954
10061W        W25870  16.170  17.565  14.319 -0.3759  0.2643 -0.1550
10062W        W25871  18.841   5.355  11.488  0.3182 -0.4103  0.0925
10063W        W25872  12.411  17.726   0.247 -0.0294 -0.0097  0.0462
10064W        W25873   1.028   9.933   1.673 -0.0988 -0.0207 -0.2410
10065W        W25874  19.122   3.827   1.763  0.2415  0.0386  0.0926
10066W        W25875   6.450   0.803  12.274 -0.3769 -0.2827 -0.1265
10067W        W25876   0.955  17.055   4.391  0.1987 -0.3446 -0.0572
10068W        W25877  15.678  16.108   1.711 -0.1596  0.0388 -0.1554
10069W        W25878  17.124  13.530   3.484 -0.1549 -0.2237 -0.2188
10070W        W25879  16.220   0.937  14.726  0.3083  0.0874  0.1574
10071W        W25880  10.750   2.823  14.967 -0.0331 -0.0293  0.0895
10072W        W25881   9.301   2.332  10.908 -0.0664  0.1252 -0.0584
10073W        W25882  14.003   3.764  14.470  0.0184  0.0248  0.0583
10074W        W25883  12.964  18.394   5.820  0.0343  0.0854 -0.3944
10075W        W25884   1.874  12.516  11.897  0.2677 -0.3710  0.0245
10076W        W25885  13.132   7.190  10.484 -0.0638 -0.1581 -0.4036
10077W        W25886   9.670   1.561   3.383 -0.2306 -0.0395  0.0034
10078W        W25887  15.129  13.134  14.684  0.1098  0.1580  0.1338
10079W        W25888   6.546  17.649  13.308  0.1593 -0.1493 -0.5549
10080W        W25889  17.083   0.685  14.051  0.2643  0.2170  0.0003
10081W        W25890   3.080   1.669  11.638  0.0223  0.3815  0.0734
10082W        W25891  16.567   0.592  13.642 -0.1388 -0.3206 -0.1246
10083W        W25892   0.129   1.553  13.650  0.1050 -0.1457 -0.0073
10084W        W25893   8.279   7.510  11.486  0.1517 -0.1440  0.0447
10085W        W25894  14.746   0.527   0.682  0.1980  0.0185  0.0480
10086W        W25895   5.241   3.328  12.419 -0.1031  0.0408  0.1467
10087W        W25896   2.737   3.764   3.332  0.1268  0.0056  0.0303
10088W        W25897   3.881   6.229  15.122 -0.0986 -0.1050  0.2503
10089W        W25898   3.583  10.385   9.778  0.0610 -0.2213 -0.1180
10090W        W25899   8.811  12.198  14.735 -0.0841 -0.0988  0.3501
10091W        W25900  15.959  13.516   5.320  0.1144 -0.1084 -0.1101
10092W        W25901  12.445  18.528  15.030 -0.0903 -0.0908 -0.0332
10093W        W25902   7.918   1.349  14.300  0.0067  0.5329 -0.3770
10094W        W25903  16.657   1.796  14.946 -0.2655  0.4017 -0.1547
10095W        W25904  16.347   2.275   4.998 -0.2937  0.3885  0.1709
10096W        W25905  10.270  18.483  14.751 -0.1948 -0.0747  0.0230
10097W        W25906   7.905   6.940  11.006 -0.0684  0.1747  0.0586
10098W        W25907   3.395   2.200  11.390 -0.2199 -0.3507 -0.0339
10099W        W25908  17.021   7.946  14.830  0.1771  0.2316 -0.2017
10100W        W25909  12.438  13.173   3.891 -0.1740  0.1461  0.5387
10101W        W25910   9.639   9.571  12.337  0.2166  0.1431 -0.0180
10102W        W25911  11.635   0.492  13.210 -0.0627  0.0848  0.1246
10103W        W25912   7.064   0.785  12.672 -0.0831  0.3010 -0.0437
10104W        W25913   9.897  10.720   3.129  0.1427  0.1136 -0.2218
10105W        W25914  15.023  14.689   4.079  0.1480  0.1011 -0.0019
10106W        W25915  15.057   2.870   1.066 -0.0186  0.0253  0.1087
10107W        W25916  18.546  12.121   2.366 -0.1192  0.1326 -0.1507
10108W        W25917  16.432   1.189   3.677  0.0450 -0.1979  0.1702
10109W        W25918   9.175  13.633  10.758  0.0996  0.2944  0.4922
10110W        W25919   3.469   6.477   3.030  0.1468 -0.0194 -0.2412
10111W        W25920   8.630   3.075  11.872  0.1822 -0.0466 -0.2213
10112W        W25921  13.163  13.420   4.527  0.0983  0.1409 -0.2938
10113W        W25922   8.113  17.979   1.510 -0.1569 -0.3337 -0.0009
10114W        W25923   6.294   2.520  14.486 -0.0265  0.0041 -0.1741
10115W        W25924  11.931   1.102  12.341 -0.3382  0.2083 -0.0999
10116W        W25925   3.280   7.933   2.465  0.1194 -0.1434  0.0409
10117W        W25926   5.909  10.565  10.751 -0.0721 -0.0223  0.0815
10118W        W25927  11.985   8.026   9.566  0.3281 -0.0736 -0.0670
10119W        W25928  16.805  13.463   4.026 -0.0011  0.0292 -0.5591
10120W        W25929  11.638  11.182   4.753  0.1621 -0.3759  0.2345
10121W        W25930   6.729   7.605   4.797  0.0428 -0.4287  0.1917
10122W        W25931  18.244   6.030   2.992  0.1566 -0.3398 -0.1869
10123W        W25932  13.148  12.328  13.683  0.3361 -0.1409  0.1388
10124W        W25933  18.999   9.259   0.447  0.3154 -0.1491  0.0022
10125W        W25934   2.317  17.460  10.845 -0.1197  0.0694 -0.0601
10126W        W25935  14.543   9.111  11.957  0.0143  0.0147 -0.1594
10127W        W25936  17.047  11.926   3.403  0.3374 -0.0895 -0.0329
10128W        W25937  15.414   5.385   1.603 -0.1018 -0.0664  0.4938
10129W        W25938   0.083   2.894  12.691  0.0225 -0.2157  0.1118
10130W        W25939   9.145   7.180   3.869  0.1925  0.0754 -0.1963
10131W        W25940   8.836  13.414  12.563 -0.1512 -0.1368 -0.1645
10132W        W25941   9.390  12.855   0.994 -0.2564  0.3098 -0.1261
10133W        W25942  15.808   8.510  12.747 -0.1356 -0.0139 -0.0321
10134W        W25943   2.539   8.669   4.043 -0.0368  0.0435 -0.0352
10135W        W25944   2.672  10.377  13.624 -0.1953 -0.1312 -0.2454
10136W        W25945   1.535   5.715  14.058 -0.0135  0.3766 -0.0811
10137W        W25946  14.226  15.007  10.553 -0.0417 -0.0842  0.0353
10138W        W25947  17.662   8.542  10.597  0.0726 -0.1406  0.0414
10139W        W25948   6.428  12.201   0.711 -0.1699  0.0806  0.3462
10140W        W25949  11.415  16.659  15.204 -0.0329  0.1339 -0.0583
10141W        W25950  14.869  15.163  12.302  0.1709  0.0826 -0.0520
10142W        W25951  13.793   5.017  10.637 -0.0442 -0.0351  0.4054
10143W        W25952   4.259   0.337   2.649 -0.2556  0.1040 -0.0714
10144W        W25953  17.387  12.684  12.861 -0.2687  0.0025  0.0832
10145W        W25954   3.682   4.531  10.597  0.0423  0.3909  0.0671
10146W        W25955  15.141  17.211   0.622 -0.0402 -0.0886  0.0100
10147W        W25956  10.511  16.874   0.202 -0.3090 -0.0283 -0.0550
10148W        W25957   5.793  13.143  11.348  0.3183 -0.1961  0.2869
10149W        W25958  18.231  18.945  14.272  0.0773  0.2979  0.2664
10150W        W25959   1.304  14.317   5.120  0.0377  0.3308  0.2254
10151W        W25960  19.070   2.052  12.291  0.1111 -0.1018  0.2572
10152W        W25961   2.221   4.538   1.570  0.0679  0.1442 -0.0794
10153W        W25962  12.713   1.704   0.727 -0.3061 -0.0944  0.2276
10154W        W25963   5.653   5.706   4.828  0.2738 -0.5777  0.0081
10155W        W25964   2.264  15.168   1.992  0.2761  0.1652 -0.2267
10156W        W25965   2.349   4.672  10.835  0.0061 -0.0191  0.0509
10157W        W25966   2.481  17.248   4.505 -0.1465  0.0493 -0.0752
10158W        W25967  18.454  11.862   3.820 -0.0791  0.0618  0.0658
10159W        W25968  14.785   8.901  13.568  0.0966  0.1889 -0.0277
10160W        W25969   6.154  11.906   1.332  0.0958 -0.1542 -0.0228
10161W        W25970  12.774   6.288   1.735  0.1536  0.2388  0.2134
10162W        W25971   4.579   3.535  13.309 -0.1385 -0.1470 -0.2122
10163W        W25972  12.539   4.747  10.974  0.1232  0.3482 -0.0863
10164W        W25973  17.558   0.860   5.117 -0.1882  0.1273 -0.4026
10165W        W25974  13.016  13.678   0.432  0.3445 -0.3411  0.0509
10166W        W25975   9.808   4.867  10.760  0.0885  0.2214  0.0626
10167W        W25976   7.292   0.488  10.107 -0.0977 -0.1060  0.0357
10168W        W25977  14.081   2.787   3.665  0.0811 -0.1134  0.1855
10169W        W25978   2.602  10.679  10.659 -0.1117  0.1433  0.1659
10170W        W25979   9.127   1.464   3.685 -0.2421  0.0143 -0.2730
10171W        W25980   8.945   9.367  14.424  0.2127  0.0140 -0.1118
10172W        W25981   2.994  17.974  11.511  0.1916 -0.0037 -0.1892
10173W        W25982  14.251  14.682  14.264  0.1159 -0.2036 -0.0186
10174W        W25983  17.031   5.043  14.811  0.2238  0.0151 -0.0273
10175W        W25984   4.825   6.717   4.158 -0.2284  0.1290  0.0741
10176W        W25985  11.501   5.764   2.191  0.3010  0.0436 -0.1657
10177W        W25986   6.061   0.844  12.977 -0.0295  0.0009 -0.1910
10178W        W25987  16.495   2.437  11.856  0.2814  0.2496  0.3748
10179W        W25988   2.113   0.481  12.254 -0.2073  0.2812 -0.1182
10180W        W25989   8.881  13.125  13.890 -0.3865 -0.2432  0.2718
10181W        W25990   8.010  10.485  11.635  0.2314 -0.2812  0.1719
10182W        W25991   8.808   5.126  15.151  0.3434  0.1083 -0.0458
10183W        W25992   4.535  18.749   3.107  0.0710  0.1351 -0.1663
10184W        W25993   7.359  12.817   1.957  0.0390 -0.2604  0.0228
10185W        W25994   3.202   6.265   2.523 -0.1887 -0.1062 -0.0709
10186W        W25995   7.565   9.226   0.503  0.1318  0.1572 -0.0837
10187W        W25996  16.437   6.567   2.351 -0.1026 -0.2432 -0.1003
10188W        W25997   8.053  10.763   1.094  0.3084 -0.3399 -0.1462
10189W        W25998   7.282  18.391  10.616  0.1450  0.0793 -0.0080
10190W        W25999  11.966  19.102  11.638 -0.0863  0.0426  0.0205
10191W        W26000   3.791  17.103  10.755 -0.2872  0.0627  0.0663
10192W        W26001  14.157  10.063  10.372  0.2702 -0.3307 -0.0581
10193W        W26002  18.412   2.272   5.917 -0.1950 -0.2067 -0.0558
10194W        W26003  17.725  16.408   0.073 -0.2601 -0.0243  0.2644
10195W        W26004   2.810   1.498   1.015  0.1864 -0.3465 -0.1077
10196W        W26005   7.487   8.480   3.389  0.3536 -0.0070 -0.0768
10197W        W26006   3.714  13.663  11.471 -0.4319 -0.0579  0.0953
10198W        W26007  10.125  14.513   1.361 -0.3152  0.0742  0.0727
10199W        W26008   5.349  12.009  11.494 -0.1713  0.0054 -0.1643
10200W        W26009   0.184   1.455   1.389  0.1224 -0.2437 -0.0827
10201W        W26010   1.071  18.998  10.687 -0.0610  0.0241 -0.3504
10202W        W26011  11.092  18.217   2.203  0.2294 -0.2085 -0.0963
10203W        W26012  19.147   0.100  10.724 -0.0360  0.2255 -0.0282
10204W        W26013   5.486   7.690  10.073 -0.1952 -0.2207 -0.0875
10205W        W26014  10.796   2.020  11.891 -0.2066  0.2485  0.1777
10206W        W26015   8.890  14.878   0.969  0.1032  0.0848  0.2400
10207W        W26016   2.680  15.823  13.190 -0.1499 -0.2781  0.0860
10208W        W26017  15.580  18.921   4.107 -0.0127  0.2153 -0.0811
10209W        W26018  15.394  10.342   4.779 -0.2226 -0.1260 -0.2997
10210W        W26019  14.496  18.875   9.972 -0.0949 -0.0400 -0.1468
10211W        W26020   0.696  17.609  12.956 -0.2408  0.3021  0.0262
10212W        W26021  10.661  12.324   5.453  0.2730 -0.2346 -0.2081
10213W        W26022   7.250  11.999   2.926  0.5515  0.4855  0.2067
10214W        W26023   9.715   8.326  14.804 -0.0240 -0.1121 -0.3374
10215W        W26024  13.248   5.552   3.282 -0.0244  0.2693  0.0499
10216W        W26025  15.711   4.028  10.316  0.4401  0.0714  0.1307
10217W        W26026  13.143   8.286   2.096 -0.0614 -0.4049  0.0981
10218W        W26027  18.775  16.152   1.256  0.1633  0.1407  0.0820
10219W        W26028  16.770  16.025  12.739  0.1465  0.1918  0.1858
10220W        W26029   1.126  18.079  10.984  0.1396 -0.1895  0.1781
10221W        W26030  16.125  16.572   3.087 -0.1053 -0.0784  0.2295
10222W        W26031   4.491  13.071   0.465  0.4050  0.0909 -0.1764
10223W        W26032  15.238  12.087  13.149  0.0923 -0.1188  0.1389
10224W        W26033  16.956   2.151   2.374 -0.1278 -0.3291 -0.1253
10225W        W26034  15.452   0.065   0.009 -0.1392 -0.1151  0.1211
10226W        W26035   9.225   9.281  12.126  0.1213 -0.0559  0.1885
10227W        W26036  15.133  13.409  13.495  0.0975  0.0676  0.1059
10228W        W26037  19.136   8.365  10.732  0.1417 -0.3943 -0.1494
10229W        W26038   9.311   9.888   0.889 -0.2029 -0.0705  0.0415
10230W        W26039   7.742   7.640   3.603 -0.2113  0.0170 -0.1293
10231W        W26040  17.510  13.438   2.188 -0.1185 -0.0339 -0.1177
10232W        W26041  16.371  17.286  12.901  0.0313  0.0600  0.0434
10233W        W26042  16.784   7.490  14.737 -0.0953 -0.1253 -0.0080
10234W        W26043   9.823  12.460   2.433 -0.0983 -0.1374  0.1387
10235W        W26044  11.862   3.873   0.184  0.0603 -0.0172 -0.0359
10236W        W26045   4.500  13.925   2.406  0.0939  0.0958  0.5825
10237W        W26046   7.106  12.115  11.685 -0.0137  0.0445 -0.0125
10238W        W26047   9.196  17.507   4.552 -0.1751 -0.2232 -0.2646
10239W        W26048   7.695   0.387   2.790 -0.1465  0.3321 -0.2674
10240W        W26049   1.547  14.174   2.251 -0.0120  0.2710 -0.0306
10241W        W26050  18.760   2.942   4.825  0.0834 -0.1501 -0.0470
10242W        W26051  18.661  14.463  11.077  0.2577  0.0111  0.3624
10243W        W26052   7.701   8.256   0.759 -0.1828  0.0709  0.4093
10244W        W26053  17.355   1.185   6.048  0.0441 -0.2271  0.0650
10245W        W26054  14.270   6.827  11.376 -0.4594  0.1099 -0.1193
10246W        W26055   7.057   2.322  14.287 -0.2146 -0.1917 -0.2008
10247W        W26056   1.077  19.024  13.836  0.1754 -0.0929 -0.2240
10248W        W26057  12.983  15.415  10.639  0.0193 -0.1058 -0.0663
10249W        W26058   1.065  15.446  11.482  0.0616  0.2200  0.0819
10250W        W26059   7.775  15.141   5.028  0.1037 -0.1485  0.0398
10251W        W26060   2.325  11.993   3.535  0.1138  0.2807 -0.0917
10252W        W26061  10.017  11.373  12.511 -0.0190  0.0254 -0.4410
10253W        W26062   0.510  19.046  13.688  0.0201 -0.1060  0.2826
10254W        W26063   4.419   2.639  13.807  0.2040 -0.2806  0.0787
10255W        W26064   9.165   0.440  14.790  0.0575 -0.1439 -0.2072
10256W        W26065   9.713  14.283  10.232 -0.0224 -0.1698  0.1642
10257W        W26066   1.722  17.320  12.923 -0.2599 -0.4970  0.4487
10258W        W26067  12.134  13.401  13.641 -0.3316 -0.0031  0.0999
10259W        W26068   5.931   6.199   0.582 -0.1122  0.2173 -0.1737
10260W        W26069  11.857   7.469   1.853 -0.2023 -0.2811  0.2448
10261W        W26070  12.643  16.882   1.132 -0.2217 -0.0464  0.0203
10262W        W26071   7.057   2.957   3.012 -0.0201  0.1040 -0.4675
10263W        W26072   8.799   3.840  11.559 -0.2338  0.3332  0.0084
10264W        W26073  10.750   8.277   4.763 -0.3791 -0.1298  0.0420
10265W        W26074   3.735  10.974  13.837  0.1804 -0.2535 -0.2902
10266W        W26075  10.752   9.260   4.792  0.1443 -0.0007  0.1874
10267W        W26076  12.078  18.297   4.719 -0.0122  0.4360 -0.1191
10268W        W26077  18.242   4.937   3.627  0.1412  0.1118 -0.3970
10269W        W26078   6.561   0.314  14.922  0.3027 -0.1594  0.0232
10270W        W26079   7.751   7.037   1.210 -0.0858  0.1699 -0.0432
10271W        W26080   4.401   9.343   2.763 -0.0678 -0.1706  0.1556
10272W        W26081   2.249  16.350   1.942  0.1378 -0.0106  0.0299
10273W        W26082  16.231   0.759  13.007 -0.2857 -0.5151 -0.1792
10274W        W26083   3.971  18.755  10.608  0.2952 -0.1113 -0.0681
10275W        W26084  18.912  18.177  12.694 -0.1268  0.0515  0.1551
10276W        W26085  17.957   2.429  14.959  0.3879 -0.2222 -0.0420
10277W        W26086  17.438   5.410  12.988 -0.1865  0.3718 -0.1833
10278W        W26087  14.002  12.927  13.866 -0.0364 -0.0142  0.2386
10279W        W26088   5.270   6.757  12.551 -0.0295  0.0986  0.3026
10280W        W26089   7.924  15.548   1.803  0.5380  0.0921 -0.2163
10281W        W26090   8.292   7.141   3.180 -0.3936  0.1978 -0.0709
10282W        W26091   1.910  14.917   2.386 -0.0928  0.2788 -0.0203
10283W        W26092   5.657  12.483  10.658  0.0560 -0.0441 -0.0628
10284W        W26093   1.666   7.101  12.092 -0.0657  0.0434 -0.2298
10285W        W26094  11.724  18.084   5.513 -0.0023  0.3047 -0.0962
10286W        W26095   5.188   0.444   2.829  0.3514  0.1311  0.2076
10287W        W26096  10.939  12.579  10.875  0.1987  0.1230 -0.0451
10288W        W26097  14.431  17.844   3.984 -0.1692 -0.0346  0.1008
10289W        W26098  15.769  15.081  12.176  0.1196  0.1644  0.3328
10290W        W26099   6.844  14.394  11.226 -0.1781 -0.0583  0.2423
10291W        W26100   4.459   2.806   4.415  0.1584 -0.0741 -0.0463
10292W        W26101   2.119  14.275  12.783 -0.0373 -0.1759 -0.4112
10293W        W26102   2.809  18.720  14.255 -0.0439 -0.0395  0.2038
10294W        W26103  15.741  13.515   3.194 -0.0308 -0.0348  0.0419
10295W        W26104  19.012   7.680   3.144  0.0013 -0.1785 -0.0441
10296W        W26105  15.467   9.867  11.791  0.2032 -0.4142 -0.0737
10297W        W26106   2.774   6.253  13.875 -0.1784 -0.0490  0.1185
10298W        W26107  12.743   6.907   0.852  0.3161  0.4246 -0.0090
10299W        W26108   6.703  10.709  14.060 -0.0708 -0.0950 -0.0319
10300W        W26109  16.097   6.471  14.125 -0.0030  0.3581 -0.0867
10301W        W26110   5.873   6.290  14.527  0.0918  0.0656  0.1711
10302W        W26111   5.573  14.576   0.168  0.2296  0.3206 -0.0239
10303W        W26112   8.527  18.121  11.130 -0.0264 -0.1668 -0.0413
10304W        W26113  10.599   4.966  14.135  0.1038 -0.1939  0.2144
10305W        W26114   1.540  12.339   4.374 -0.0080 -0.2235  0.0942
10306W        W26115   3.657   8.460  11.659 -0.1110  0.0357 -0.1726
10307W        W26116   4.364   6.995   1.597 -0.1340  0.0056 -0.0225
10308W        W26117   0.172   4.646   1.125 -0.2162  0.4890  0.1120
10309W        W26118  17.455  12.525  14.559 -0.0431  0.1633 -0.2487
10310W        W26119  10.813   1.500  14.369  0.0907 -0.1265 -0.0085
10311W        W26120  16.150  10.185  12.269 -0.1931 -0.1179 -0.0147
10312W        W26121  14.793   9.025   5.012  0.1156 -0.0226 -0.2537
10313W        W26122   9.079  12.175   3.770  0.0059 -0.0771 -0.2660
10314W        W26123  16.084   1.879  15.157  0.0177  0.5246 -0.1773
10315W        W26124  18.923   3.489  12.932 -0.0503  0.0011  0.2720
10316W        W26125   7.047  15.856   2.344 -0.2308 -0.0515 -0.0312
10317W        W26126  14.750  18.369  12.056  0.3771 -0.0178  0.0063
10318W        W26127   8.465  15.684   2.186 -0.4628 -0.0693  0.0679
10319W        W26128   7.245   0.035   4.602  0.0912 -0.1335  0.0294
10320W        W26129  12.018  17.607   4.191  0.2626  0.1044  0.2950
10321W        W26130  17.357  18.197  11.183  0.2401 -0.5004  0.0953
10322W        W26131   3.775   4.969   2.667  0.1396  0.4033  0.4653
10323W        W26132  16.580   3.035   5.321 -0.0771  0.1883 -0.0741
10324W        W26133   8.175  10.713  11.185 -0.0316  0.1892  0.0635
10325W        W26134   1.931  14.326  14.415  0.0359  0.0271  0.2451
10326W        W26135  11.022   2.621  14.590  0.1790 -0.3979  0.1404
10327W        W26136   1.640  10.030   2.150  0.1672  0.0942  0.2215
10328W        W26137   9.245   8.892  13.639 -0.0200 -0.0057 -0.1399
10329W        W26138  14.368  10.644   1.449 -0.1698 -0.1193  0.1419
10330W        W26139   8.179   3.033  10.710 -0.2297  0.0002  0.1783
10331W        W26140   5.877   1.388  12.827 -0.1001  0.3797  0.2860
10332W        W26141  13.704   9.683  13.923 -0.0907  0.0120 -0.0043
10333W        W26142   6.487   6.689  13.731 -0.0218  0.0504  0.0420
10334W        W26143  17.919  11.431   2.648  0.0549 -0.2591 -0.1432
10335W        W26144   8.110   4.779   3.595  0.1734  0.0536  0.0464
10336W        W26145  16.184   3.436  11.863  0.1130  0.0194 -0.1606
10337W        W26146   7.366   6.067   3.737  0.1298  0.1078  0.0960
10338W        W26147   8.114   1.074  10.210  0.0851 -0.0417  0.1897
10339W        W26148   1.623  12.278  11.320 -0.1784  0.0123 -0.0108
10340W        W26149  14.707  10.107  14.123 -0.0770  0.0624  0.0710
10341W        W26150   5.903   0.115  12.525  0.0442  0.2664  0.1895
10342W        W26151  12.087   4.799   2.749  0.2602  0.0684  0.2007
10343W        W26152  10.320  14.416  13.985 -0.3932 -0.2320 -0.0956
10344W        W26153  15.524  17.908   0.082  0.0494 -0.2813 -0.1507
10345W        W26154   5.125   6.418  15.132 -0.0395 -0.1036 -0.0378
10346W        W26155  17.898   5.525   3.674 -0.1665 -0.0862 -0.3089
10347W        W26156   9.704  10.407  10.873 -0.2694  0.3330 -0.0174
10348W        W26157  14.907   4.577  14.352 -0.1297 -0.0824  0.0291
10349W        W26158  13.878   9.428   0.815  0.1857 -0.2431 -0.3359
10350W        W26159   1.559  18.726   0.751 -0.0324  0.0057 -0.0468
10351W        W26160  15.687  18.366   5.268  0.3432 -0.0048  0.2847
10352W        W26161  10.590   5.136  15.006 -0.4553  0.1565 -0.0170
10353W        W26162   7.789   9.999  12.780 -0.0421  0.4536 -0.0995
10354W        W26163   6.828   4.343  11.713  0.1041  0.0048 -0.1494
10355W        W26164   9.204   8.002  14.919  0.0617 -0.3751  0.3294
10356W        W26165   8.179   5.631   2.253 -0.0231 -0.3158  0.2691
10357W        W26166  17.736  12.804  11.884 -0.0293 -0.0076 -0.2414
10358W        W26167  14.234   3.074   0.003  0.4829 -0.1170 -0.2010
10359W        W26168  12.028   5.112  14.963  0.0521 -0.0479  0.2432
10360W        W26169  13.486   0.850  13.432 -0.1950 -0.0707 -0.1198
10361W        W26170   6.998   8.795  11.461  0.1096 -0.2138 -0.1825
10362W        W26171  14.023  10.217   4.848  0.2251 -0.1944  0.0366
10363W        W26172   8.654  17.411  11.611 -0.0184  0.0083 -0.0648
10364W        W26173   8.872  10.750   3.457 -0.0519  0.2519  0.1601
10365W        W26174  12.717  16.725  12.812 -0.0350 -0.0768  0.1828
10366W        W26175   1.277   6.602  10.893 -0.0006  0.4044 -0.1419
10367W        W26176   1.360  18.264  10.156  0.2352 -0.2686  0.0788
10368W        W26177   9.240   3.162  14.983  0.0866  0.0607  0.0658
10369W        W26178   6.668   8.211  10.526  0.3009  0.1869  0.3594
10370W        W26179   2.184   0.415   4.266 -0.1005 -0.0115 -0.0485
10371W        W26180  17.470  14.867   4.044  0.2794  0.0204 -0.2279
10372W        W26181  16.961  19.030  12.191 -0.1715 -0.2338 -0.3693
10373W        W26182   6.381  12.410   5.203 -0.0208 -0.0421 -0.0767
10374W        W26183   3.550  10.406   1.818 -0.2260  0.0137  0.1483
10375W        W26184   5.008  11.647  14.593  0.0122 -0.1903  0.4556
10376W        W26185  18.953  14.757  13.027  0.2426 -0.0160 -0.0487
10377W        W26186  15.971   8.386   4.942  0.0665 -0.0348  0.4105
10378W        W26187  11.468  10.462   4.319 -0.0072  0.0564 -0.0405
10379W        W26188   2.731   5.222  15.156  0.0379 -0.1256 -0.0600
10380W        W26189  10.215  16.687   4.876  0.2020 -0.0939  0.1195
10381W        W26190  14.839   4.443  11.461  0.1022  0.0031 -0.2670
10382W        W26191   9.162  11.399   2.508  0.2678  0.0112 -0.1011
10383W        W26192   0.402   0.271   3.626  0.0713 -0.0391  0.0348
10384W        W26193   7.880  11.601   3.567 -0.2524  0.0102 -0.0093
10385W        W26194   9.220  11.184   5.342  0.2347  0.0329  0.1541
10386W        W26195  11.845  15.900   0.512  0.0386 -0.0967  0.1254
10387W        W26196   9.771   8.408  14.247  0.1552  0.1957 -0.0412
10388W        W26197   2.144   8.576   2.174 -0.1359 -0.1773 -0.0227
10389W        W26198   1.058  10.322  11.763 -0.0360 -0.2223  0.0645
10390W        W26199   1.747  18.507  12.122 -0.0496 -0.2897  0.1935
10391W        W26200  17.702  15.296   5.302 -0.0258 -0.1608  0.3643
10392W        W26201  15.199   8.729  14.311 -0.1073  0.3510 -0.3119
10393W        W26202   6.394   8.079   9.757 -0.1526 -0.2503 -0.5269
10394W        W26203   7.454   5.609  10.683  0.2584  0.0666  0.2022
10395W        W26204   2.949   7.239   3.099 -0.2934 -0.0765 -0.0372
10396W        W26205   3.282   2.894  14.845  0.2004  0.0534  0.0175
10397W        W26206  10.848  18.709   2.937  0.1157 -0.0065 -0.1832
10398W        W26207  13.458   7.386  11.983 -0.1895 -0.0818  0.0289
10399W        W26208   0.785  14.325  11.630 -0.2159 -0.2132  0.0882
10400W        W26209   2.455  10.843   3.931  0.2518  0.1946  0.4159
10401W        W26210  17.924   4.982   1.742  0.0752 -0.2706 -0.4469
10402W        W26211   8.949  19.158   4.356  0.0189  0.0009 -0.1119
10403W        W26212   4.930   0.537   4.282  0.1039  0.3468  0.0288
10404W        W26213  16.083   5.962  12.403 -0.0020  0.0732  0.0415
10405W        W26214   6.641   0.059  12.994 -0.3878  0.1007 -0.3089
10406W        W26215   4.464  15.771   0.781 -0.2032  0.1388 -0.1261
10407W        W26216  15.422   8.078   2.902 -0.1751  0.2277  0.1026
10408W        W26217   7.605  14.087   0.980 -0.0497  0.0223  0.0078
10409W        W26218   8.873   2.825   4.241  0.2784 -0.2253 -0.1302
10410W        W26219  15.587   3.987   4.069  0.0748 -0.1023  0.0875
10411W        W26220   3.947  15.639  13.954 -0.3614  0.0473 -0.2438
10412W        W26221   1.244  15.233  12.229  0.1434  0.2877  0.3217
10413W        W26222   7.208  14.663   5.673 -0.0127 -0.1471  0.0338
10414W        W26223   9.145   3.780  12.812  0.2531  0.2622 -0.0763
10415W        W26224   3.267  16.187  10.117 -0.1830  0.0069  0.2333
10416W        W26225   2.407   7.212   1.153 -0.2697  0.1438  0.1121
10417W        W26226  10.157   0.441   0.737 -0.2336 -0.1187  0.0428
10418W        W26227   3.955   7.589   2.573 -0.1094  0.0234  0.2127
10419W        W26228  15.588  16.581  11.534  0.2650  0.0633  0.0933
10420W        W26229  10.113  18.209   1.454 -0.1925 -0.0164  0.1252
10421W        W26230  15.674   2.631   4.525  0.1363  0.2634 -0.0135
10422W        W26231   5.623   6.217  11.893 -0.2497 -0.2659  0.0702
10423W        W26232   3.650   5.563   3.982  0.0929 -0.0994 -0.1043
10424W        W26233  17.974  14.884  13.668 -0.0221  0.0663 -0.0128
10425W        W26234   9.720   8.988  11.092  0.3054  0.2614 -0.0880
10426W        W26235  11.589  18.556   4.522  0.3122 -0.1469 -0.0102
10427W        W26236   8.839  15.231  14.800 -0.3307  0.0406 -0.1332
10428W        W26237   7.979   2.140  14.086  0.1761  0.0711 -0.0961
10429W        W26238  14.380   5.942   4.704 -0.1359 -0.1384 -0.1056
10430W        W26239  14.428  10.481   6.162 -0.1990  0.2633  0.2117
10431W        W26240  16.025  14.498  10.959  0.0242  0.2113 -0.0542
10432W        W26241  13.474  15.285   1.878 -0.0622  0.2392 -0.0656
10433W        W26242   7.145   8.353  13.018 -0.0742  0.4676  0.3509
10434W        W26243  16.109  11.175   5.628 -0.4159  0.1691 -0.1519
10435W        W26244  17.990  11.725   3.548 -0.2178  0.2729  0.1581
10436W        W26245   6.739   0.391  12.496  0.0568  0.1540  0.1298
10437W        W26246  17.017  12.759   4.264 -0.0360  0.2887  0.3096
10438W        W26247   3.665   6.620   0.761 -0.0732 -0.2712  0.2342
10439W        W26248  13.209   0.263  12.282  0.2414 -0.3020  0.1911
10440W        W26249  18.304   5.748  11.037 -0.0449  0.0078  0.1239
10441W        W26250  10.378   6.755   1.174 -0.1703  0.5607 -0.0335
10442W        W26251   1.743   0.607   4.401 -0.1593 -0.0517 -0.2102
10443W        W26252  11.416   7.631  11.362  0.0743 -0.2888 -0.1181
10444W        W26253   3.954  12.095  11.540 -0.0005 -0.2293  0.1156
10445W        W26254   3.520  16.053  12.022 -0.0051 -0.1402  0.0292
10446W        W26255  11.871  14.626   0.602 -0.0458  0.0864  0.1372
10447W        W26256   1.746   0.833   1.031 -0.2189 -0.1880 -0.1277
10448W        W26257  13.170   4.135   4.782 -0.0077 -0.1880 -0.1268
10449W        W26258   4.503   2.286  11.587  0.0508 -0.2264 -0.1987
10450W        W26259   9.268   1.573   0.436  0.4220  0.4387  0.0582
10451W        W26260   9.493  16.140   4.647  0.0701 -0.0848 -0.1859
10452W        W26261   8.656   9.530   2.690  0.1990  0.0460 -0.2150
10453W        W26262   1.301   1.633  13.812  0.0317 -0.3912 -0.0434
10454W        W26263  11.027  10.019  14.008 -0.3395  0.1466 -0.1506
10455W        W26264   7.333  10.460   3.707 -0.3646 -0.0460 -0.1823
10456W        W26265   2.994  17.314   3.433 -0.0756 -0.1409  0.1244
10457W        W26266  13.030   3.292  13.580 -0.0687 -0.3451  0.3726
10458W        W26267  13.376  12.547  14.555 -0.1173  0.1303  0.1882
10459W        W26268  15.286   3.749   0.121 -0.2443 -0.2798  0.2713
10460W        W26269  10.611   5.374   0.703 -0.1157 -0.3500 -0.0278
10461W        W26270   1.439   4.879  13.663  0.0130 -0.0102 -0.0609
10462W        W26271  12.735   4.087   4.502 -0.0251  0.1645  0.1185
10463W        W26272   8.658  10.495  13.368 -0.0797  0.0293  0.0819
10464W        W26273   3.031  18.470  10.249 -0.0161  0.1505 -0.3621
10465W        W26274  14.951   0.694  11.942  0.0308 -0.2824 -0.1221
10466W        W26275  13.100   8.127  12.201  0.0071  0.2038  0.0729
10467W        W26276   8.549   2.058  14.402 -0.3278  0.0410  0.0410
10468W        W26277   0.897  11.324  14.224  0.1502  0.2337 -0.0061
10469W        W26278  17.703  12.124   0.354  0.4639 -0.0697  0.2133
10470W        W26279  15.429   2.783  11.738  0.3111  0.0019  0.1053
10471W        W26280  11.674  10.144   3.578  0.4260  0.0529  0.3482
10472W        W26281   9.834   4.662  13.517 -0.2057  0.0256  0.0680
10473W        W26282   9.426  12.466   0.636  0.0254 -0.2136 -0.3020
10474W        W26283   2.835  15.621   4.391  0.0874  0.0704 -0.0016
10475W        W26284  16.664  14.237  14.352  0.2756  0.2247 -0.0723
10476W        W26285  14.673   9.600  14.055 -0.0650 -0.2772  0.2011
10477W        W26286  12.351   3.572   3.070 -0.2587  0.2149  0.0552
10478W        W26287  14.285   6.922   2.779  0.0372  0.3299 -0.2175
10479W        W26288  12.672  17.983   4.419  0.0828 -0.2803  0.2739
10480W        W26289   7.694  11.033  14.898 -0.1293  0.1389  0.1059
10481W        W26290   4.164   2.470   0.018  0.1293 -0.2625 -0.0428
10482W        W26291  14.685   5.766   4.337  0.2451  0.1010  0.0242
10483W        W26292  17.815   2.236   2.902 -0.0628 -0.5143 -0.2273
10484W        W26293  14.076   5.165  11.722  0.3623  0.0458  0.1151
10485W        W26294  11.255   0.020  10.555  0.2484 -0.1017  0.2889
10486W        W26295  18.053  14.324   3.921 -0.1882 -0.0994 -0.1099
10487W        W26296   7.966   1.971   3.915  0.1135  0.4097  0.3557
10488W        W26297  11.978   9.269  12.722  0.1588 -0.0626  0.2446
10489W        W26298  11.288   4.076  10.483 -0.2169 -0.1261 -0.1918
10490W        W26299   6.148   8.268  15.151  0.1281 -0.1625  0.5510
10491W        W26300   3.769  18.396  12.794 -0.2008 -0.1454 -0.2034
10492W        W26301  14.076   5.639   1.436  0.1858  0.0179 -0.1339
10493W        W26302   0.543  15.053  11.045  0.3133  0.1954 -0.2483
10494W        W26303  19.059  17.967   4.404  0.0873 -0.1826 -0.3162
10495W        W26304  18.579  17.380  13.530 -0.1477  0.0050 -0.2080
10496W        W26305  19.026   1.251   4.473 -0.2166  0.2559  0.0821
10497W        W26306  12.893   5.354  12.240 -0.0186  0.1242 -0.1453
10498W        W26307   8.975   6.345   4.848  0.0307  0.0343  0.2037
10499W        W26308   5.443  14.867  13.235  0.1142  0.0900 -0.0739
10500W        W26309  14.092   0.005   1.072  0.1707  0.1694  0.1293
10501W        W26310  12.955  14.879  11.934 -0.2110  0.0007  0.1445
10502W        W26311  13.976  12.816  12.223 -0.2717  0.0330  0.0822
10503W        W26312   0.327   1.673  14.207  0.0317 -0.1061 -0.1261
10504W        W26313  16.969  10.396   1.365 -0.0207  0.0676  0.1447
10505W        W26314   6.454  17.002   3.458 -0.1898  0.5460  0.1572
10506W        W26315   4.159  17.457  14.174  0.1110  0.4278  0.2073
10507W        W26316  12.027  16.579   3.161  0.0654 -0.2343 -0.3289
10508W        W26317   2.760   4.840   4.982 -0.2150  0.0162 -0.1560
10509W        W26318  11.898   0.259   1.747 -0.0682 -0.2150  0.1481
10510W        W26319   1.919  11.061   2.020 -0.2720 -0.1548  0.2269
10511W        W26320   7.386   5.366   4.334  0.2002  0.1711 -0.0623
10512W        W26321   9.715  12.394  13.674  0.0649  0.1300  0.0922
10513W        W26322   9.732  18.056   3.577 -0.1215  0.1041 -0.2035
10514W        W26323  14.436  18.277  12.696 -0.1947  0.2102  0.1640
10515W        W26324   6.498  18.795   4.565  0.0124  0.2709  0.4730
10516W        W26325   4.288   0.943  14.830 -0.1710  0.0037  0.2307
10517W        W26326  17.865   3.011   1.754 -0.1656  0.0769  0.0276
10518W        W26327   6.895  11.106  14.317  0.2311  0.0366 -0.1850
10519W        W26328  11.436   9.901   1.004 -0.3324 -0.0992 -0.3298
10520W        W26329   9.486  12.355   3.509 -0.1281  0.0065 -0.2860
10521W        W26330   7.005  18.541   2.971 -0.5607 -0.0729 -0.2329
10522W        W26331  12.683  11.045  14.544  0.4469  0.3551 -0.3222
10523W        W26332  18.354  18.050  15.183  0.0817 -0.1589 -0.0101
10524W        W26333   7.966  13.301  12.109 -0.1252 -0.0117  0.0236
10525W        W26334  16.663  11.924  14.727  0.2312 -0.1455 -0.1903
10526W        W26335   8.976  14.622   0.575 -0.3208 -0.3708 -0.0929
10527W        W26336  10.560   4.634  10.827 -0.0543  0.5084 -0.0484
10528W        W26337  11.713  12.294  13.222  0.3007  0.2631 -0.0664
10529W        W26338   6.811   8.862  12.747  0.1789 -0.3665 -0.4557
10530W        W26339  14.863  11.474   5.265 -0.0360 -0.1351  0.1814
10531W        W26340  14.986  10.907  14.500  0.2519  0.3257  0.1239
10532W        W26341   1.716  18.146   0.851  0.0182  0.1654 -0.1062
10533W        W26342   7.132  13.821  13.873  0.3476  0.2639  0.1059
10534W        W26343  18.017  14.799  14.489 -0.2746  0.3865 -0.3866
10535W        W26344   5.293  10.862  13.681  0.0319 -0.4436  0.1846
10536W        W26345   6.901   6.060   3.988 -0.1201  0.0553 -0.0704
10537W        W26346  17.146  14.537  13.945 -0.2541 -0.1109 -0.1713
10538W        W26347   8.425  17.140   1.830  0.2317  0.0910  0.1740
10539W        W26348  16.030   2.348   0.129 -0.4022 -0.1628 -0.0511
10540W        W26349   9.788   3.947  14.763 -0.1621  0.3106 -0.1514
10541W        W26350   2.211   2.443   4.695 -0.1039 -0.0411  0.1878
10542W        W26351   3.899  12.057   1.486  0.1889  0.1649  0.0333
10543W        W26352   4.844  18.124   4.545 -0.4377 -0.0104 -0.0943
10544W        W26353   0.218   0.449   5.448  0.2856  0.1278  0.0692
10545W        W26354   1.195   9.321   5.551  0.3957  0.0954  0.3230
10546W        W26355   4.520   3.288  11.134 -0.0969 -0.2524 -0.2050
10547W        W26356  12.249  14.299  12.127  0.1811 -0.1019 -0.1802
10548W        W26357  10.342   4.509   4.109  0.2163 -0.3646 -0.0733
10549W        W26358   1.339  13.219   2.217  0.1144  0.1326  0.0407
10550W        W26359  19.098   9.121  13.556  0.3605  0.1754 -0.1130
10551W        W26360   6.971  16.568   4.112  0.0473  0.0118  0.0085
10552W        W26361   7.779  18.839   3.961 -0.1249  0.3633  0.0829
10553W        W26362   9.339  15.731   3.805  0.0705 -0.3910 -0.1500
10554W        W26363   6.899   4.652   1.631 -0.0342 -0.0055  0.0623
10555W        W26364  10.031  14.678  12.016 -0.1947  0.1398 -0.1701
10556W        W26365   5.498  17.758   2.900 -0.1567 -0.0178  0.2141
10557W        W26366   2.563  14.094  10.926 -0.0753 -0.1223  0.0343
10558W        W26367  13.236  10.426  13.137 -0.4130  0.0686  0.1291
10559W        W26368  17.484   3.310  10.971  0.0154 -0.2480  0.0617
10560W        W26369   7.101  14.866  14.815  0.1388  0.0815 -0.0915
10561W        W26370  16.904   8.865  13.045  0.1369 -0.1368  0.1537
10562W        W26371  16.514   4.573  14.478  0.1564 -0.0294 -0.1577
10563W        W26372   9.973   4.472  13.068 -0.1323  0.0510 -0.0571
10564W        W26373   8.605  16.362   5.798 -0.0588 -0.1091  0.3754
10565W        W26374  13.197   5.873   2.450 -0.0091  0.1589  0.1850
10566W        W26375  13.596   6.617  14.122  0.0584 -0.0702  0.0563
10567W        W26376   8.436  12.660  14.556 -0.4737  0.1721 -0.0352
10568W        W26377   0.746  15.228   5.644 -0.2219 -0.0183  0.1249
10569W        W26378   0.494   3.498   3.464  0.3534  0.1048 -0.0637
10570W        W26379   8.210  10.186   0.089  0.1372 -0.0089 -0.1667
10571W        W26380   7.687   7.703  12.863 -0.2192 -0.1328  0.1290
10572W        W26381   0.387   8.573  14.625 -0.3253  0.0653  0.1083
10573W        W26382  14.589  14.282   5.092 -0.0868  0.0216  0.0519
10574W        W26383  15.771  14.396   1.273 -0.3124  0.0260  0.2989
10575W        W26384   6.800  15.816  10.760 -0.2141 -0.1136 -0.0024
10576W        W26385  10.362   2.727  11.926  0.2189  0.1642  0.0884
10577W        W26386   5.914  12.590   0.127  0.2955 -0.2567 -0.2944
10578W        W26387  14.126  12.083   1.018  0.1285  0.0908  0.2075
10579W        W26388   7.019  12.585  11.472  0.2444 -0.1068  0.0601
10580W        W26389  15.974  13.163  15.075  0.1245  0.0590 -0.0104
10581W        W26390  13.771   6.085   0.749 -0.1167 -0.2056  0.0634
10582W        W26391  18.826  15.012  14.045 -0.2602  0.0550 -0.0842
10583W        W26392  11.624  10.408   0.293  0.0861  0.1084  0.0489
10584W        W26393  14.911  10.196   2.355 -0.0522  0.1967 -0.2544
10585W        W26394   4.157  14.387  12.300  0.1828 -0.2413 -0.0509
10586W        W26395  18.586  13.649   0.083  0.2002  0.2460  0.0011
10587W        W26396  12.415   6.748   4.147  0.0303  0.0863 -0.1378
10588W        W26397   0.727  13.613  11.243 -0.1394 -0.2921 -0.1559
10589W        W26398  14.220   2.474   3.991 -0.1890  0.3055  0.5155
10590W        W26399  15.886   4.159  11.189  0.0168  0.0328 -0.0643
10591W        W26400  16.548   5.449   3.097 -0.1250 -0.3922  0.4336
10592W        W26401  18.931   4.829   9.953 -0.1281  0.3861 -0.1135
10593W        W26402  15.646   4.632   4.006 -0.2180 -0.0142 -0.1509
10594W        W26403   4.899   1.984  12.434 -0.3166 -0.2940 -0.1531
10595W        W26404  10.674   6.049   1.388  0.2220  0.0328 -0.1051
10596W        W26405  12.664  16.153   4.910 -0.0370 -0.0348 -0.0534
10597W        W26406  16.256   1.627  11.589  0.1431  0.3920  0.1580
10598W        W26407   7.019  16.428  12.717 -0.0994  0.4284 -0.1757
10599W        W26408   0.778   7.211  10.441  0.1122  0.0544 -0.3398
10600W        W26409  16.760  10.512   3.463 -0.0644  0.1473  0.0506
10601W        W26410  16.959  12.829  10.068  0.2018 -0.1526 -0.1067
10602W        W26411   6.738   6.774  12.349 -0.1541  0.0230 -0.1456
10603W        W26412  10.949   4.122  15.147 -0.2110  0.0133  0.1701
10604W        W26413   7.419   6.877   3.450  0.2014 -0.1429 -0.0356
10605W        W26414  16.590  14.266   2.628  0.0985 -0.0381  0.0865
10606W        W26415   3.778   0.895  11.676 -0.3842  0.0544 -0.0150
10607W        W26416  17.859   1.315   0.178  0.0715  0.0148  0.1036
10608W        W26417   2.303  14.867   2.718 -0.0020 -0.0068 -0.0735
10609W        W26418   2.361   1.096  15.168  0.0326 -0.1198  0.0393
10610W        W26419  16.052  17.357   5.100  0.1389 -0.2461 -0.0683
10611W        W26420  16.019  10.477  13.570  0.3162 -0.0964 -0.0139
10612W        W26421  13.651  18.587   5.442  0.0547  0.0352 -0.0111
10613W        W26422  11.444   2.669   1.462  0.0519 -0.1679  0.0150
10614W        W26423   2.041   6.415   9.324  0.2295  0.1924 -0.0586
10615W        W26424   0.369   5.980  14.895 -0.3719  0.0007 -0.3827
10616W        W26425   3.640  11.725  12.267  0.0016  0.1710 -0.0253
10617W        W26426   0.840   0.297  10.628 -0.0273  0.0264  0.1784
10618W        W26427   9.012   8.927   1.761 -0.1564  0.0485 -0.3909
10619W        W26428  16.994  18.461  12.062  0.1290 -0.1525  0.0573
10620W        W26429   8.581  12.990   2.839  0.1743 -0.1141  0.1055
10621W        W26430  19.086  12.604   1.221  0.0612  0.2861 -0.0658
10622W        W26431  16.023  10.639  12.225  0.2275 -0.2009 -0.0154
10623W        W26432  14.563   4.244  10.740 -0.0768  0.3708 -0.1421
10624W        W26433  18.362   3.591   0.630 -0.1007 -0.1499  0.2292
10625W        W26434   6.234  15.404   3.806  0.2726  0.1556  0.0251
10626W        W26435  18.341  12.962  13.988  0.0387  0.2392 -0.1318
10627W        W26436  12.373  15.011   5.093 -0.0817  0.0948  0.0707
10628W        W26437   9.581   6.756  11.045  0.1365  0.2481  0.0053
10629W        W26438   6.503  12.513   3.528  0.0328  0.2638 -0.1329
10630W        W26439   7.386  12.827   3.894 -0.0107  0.2702 -0.1524
10631W        W26440   8.078   8.682  14.204 -0.0070  0.0867 -0.0948
10632W        W26441   1.195  10.842  10.851  0.0698 -0.1003 -0.0232
10633W        W26442   7.135   3.511   3.735 -0.1351 -0.1204 -0.2339
10634W        W26443  15.765   5.247   9.548  0.2282 -0.2101  0.0970
10635W        W26444   5.507  15.454   9.227 -0.0233 -0.0139 -0.2586
10636W        W26445  11.804  16.403   0.761  0.1069  0.1454  0.0085
10637W        W26446  16.093   5.829   5.244  0.2628  0.1580  0.3818
10638W        W26447  13.236  10.678   0.107 -0.0005 -0.1524  0.0727
10639W        W26448   0.289   5.938   4.750  0.1466  0.1586  0.0214
10640W        W26449   2.506   6.941  12.310 -0.0182 -0.1922  0.1166
10641W        W26450  11.425   3.883  15.048  0.2767 -0.1370 -0.1684
10642W        W26451   5.819  13.797  14.539 -0.2178  0.0624 -0.0095
10643W        W26452  18.334  14.434  13.030  0.2620  0.0801 -0.4052
10644W        W26453  13.205   5.923  12.681  0.0663 -0.2891 -0.0225
10645W        W26454  11.608  11.701   0.217 -0.0102  0.3396 -0.1832
10646W        W26455  12.594   7.598  13.680 -0.1308  0.3467 -0.5686
10647W        W26456   7.230   9.038  11.858  0.0647  0.3734 -0.1333
10648W        W26457  14.950  10.958   5.056 -0.2074  0.0735  0.0936
10649W        W26458   5.769  12.443   4.068 -0.2484  0.2090  0.0969
10650W        W26459  14.446  13.118  14.013  0.2077 -0.0717 -0.1463
10651W        W26460  17.376  13.719  12.162  0.1159  0.0905 -0.1871
10652W        W26461   5.808  17.984   3.679 -0.0728 -0.0640 -0.0355
10653W        W26462   6.862   1.534   1.626  0.0359  0.2004 -0.1332
10654W        W26463   8.295   5.201   3.283  0.2257  0.1118 -0.3751
10655W        W26464  10.278  10.930  13.231  0.1458  0.0875 -0.3074
10656W        W26465   3.330   5.013  13.826 -0.1109  0.0433  0.1655
10657W        W26466  13.477  16.975   1.674  0.0789  0.2142  0.0207
10658W        W26467   6.221  18.286   0.639 -0.0587 -0.0858 -0.2200
10659W        W26468   0.666  10.564   0.425 -0.1691  0.1055  0.0422
10660W        W26469  15.934  17.736   2.249  0.1721 -0.3517 -0.0586
10661W        W26470  14.270   0.962  14.666 -0.0367  0.3063 -0.1609
10662W        W26471   5.263   2.703   4.196  0.1570 -0.2582  0.1075
10663W        W26472   7.338   0.653  13.285 -0.3049 -0.1891 -0.0901
10664W        W26473  10.254  16.390   0.125  0.2620  0.5363 -0.0110
10665W        W26474   4.053  14.635   5.330  0.1383 -0.1944  0.2991
10666W        W26475   8.901  17.862   4.263  0.0180 -0.0125  0.0917
10667W        W26476   8.542   6.926  10.299 -0.0343  0.1663 -0.0223
10668W        W26477   9.463  15.845  11.165 -0.3168 -0.1599 -0.0589
10669W        W26478  14.684  15.686  11.416 -0.1531 -0.1526 -0.0570
10670W        W26479   6.060   8.422   1.712  0.0387  0.1335  0.1770
10671W        W26480  11.589  11.101  11.690  0.2522 -0.3054  0.1697
10672W        W26481  19.030   4.532   3.432 -0.0186 -0.1040  0.2802
10673W        W26482   4.642  16.689   3.943  0.0738  0.1393  0.1365
10674W        W26483  16.045   9.030   4.075 -0.2044 -0.1768 -0.3077
10675W        W26484   9.676   9.771  15.027 -0.0614 -0.0395 -0.0170
10676W        W26485  15.229   3.112  14.356  0.5980  0.0140  0.2089
10677W        W26486   9.610   7.219   2.052 -0.1077  0.3516  0.0581
10678W        W26487   3.670  12.557   2.799 -0.3606 -0.0045 -0.2769
10679W        W26488   0.292  18.782   4.671  0.1835  0.0077  0.0340
10680W        W26489   8.433  11.140  14.438  0.1289 -0.0910  0.2117
10681W        W26490   8.174   3.921   0.139 -0.0376  0.0872  0.0806
10682W        W26491   1.278  17.564   0.630  0.0064  0.1189  0.1507
10683W        W26492  11.672   4.294  10.788  0.0193  0.1410 -0.2192
10684W        W26493  11.494  17.982   4.687 -0.2139 -0.2020 -0.0360
10685W        W26494   2.809  14.165   1.645 -0.2582 -0.2671 -0.0512
10686W        W26495   0.713   3.505   4.513  0.0890 -0.2434 -0.0424
10687W        W26496  13.431  17.007  11.614 -0.2970  0.1389  0.0789
10688W        W26497  18.091   4.630   3.096 -0.3075 -0.1956  0.1472
10689W        W26498   9.581   5.137   1.731 -0.2627 -0.0587 -0.1078
10690W        W26499   7.514   0.864   5.082 -0.4180 -0.2753  0.0499
10691W        W26500   6.097  17.264   0.911 -0.1531 -0.0932  0.0992
10692W        W26501  15.976   8.259  14.587  0.2222  0.0666 -0.1138
10693W        W26502   2.758   6.894  11.831  0.1827  0.2002  0.2188
10694W        W26503   3.708   1.170   1.414  0.1225 -0.0298 -0.2987
10695W        W26504   8.497   3.513  14.359  0.3434  0.0327 -0.1118
10696W        W26505   0.812   6.570  10.947 -0.0405 -0.1787 -0.2117
10697W        W26506   7.967   8.513   3.275 -0.2876  0.2383 -0.1628
10698W        W26507   2.989   2.861   4.094 -0.0106  0.0099 -0.0781
10699W        W26508  11.072  18.387  11.182  0.3391  0.2176 -0.1383
10700W        W26509   4.487   8.502   0.234 -0.1933  0.3394 -0.1588
10701W        W26510  15.196  16.160   5.321 -0.2440 -0.0190 -0.1654
10702W        W26511  14.130   6.796   3.696  0.0262  0.0745  0.0960
10703W        W26512   7.029  14.810  14.100 -0.4861 -0.2880 -0.1079
10704W        W26513  15.998   3.035   1.990 -0.0765  0.1107 -0.2070
10705W        W26514   2.272  10.474   2.825  0.1304 -0.4974  0.0108
10706W        W26515   1.347   8.212  14.538 -0.2463  0.0233 -0.2349
10707W        W26516  12.706   8.995  13.488 -0.0102  0.2785  0.2406
10708W        W26517   5.568  16.805  11.361 -0.2423 -0.2182  0.2406
10709W        W26518  14.504   1.375   1.940 -0.1955 -0.2569  0.2237
10710W        W26519   4.157   9.723  11.744 -0.0198 -0.0800 -0.1988
10711W        W26520  12.798   4.178   3.993 -0.0521  0.1086  0.0117
10712W        W26521  10.314   3.737   4.242  0.0488  0.1449 -0.0189
10713W        W26522  18.236   8.435   3.166  0.0689  0.1285 -0.0563
10714W        W26523  10.552  13.966   0.950 -0.0899  0.1289  0.2975
10715W        W26524  15.697   0.329   1.733 -0.2691 -0.2236 -0.3357
10716W        W26525   7.373  15.394   0.264 -0.1053 -0.0250  0.0023
10717W        W26526   0.739  13.223  14.184 -0.1185  0.1511  0.2593
10718W        W26527   9.695  11.085  10.763  0.1424 -0.0672 -0.1276
10719W        W26528  14.897   3.924  11.716 -0.0893 -0.2107  0.0961
10720W        W26529   0.892   3.055   4.197 -0.1229 -0.3816 -0.0103
10721W        W26530   2.962  12.390  11.703  0.0579  0.1257 -0.0764
10722W        W26531   1.745  17.457  10.632  0.0022  0.0524 -0.0207
10723W        W26532   7.525  17.120   1.388 -0.1661 -0.0530 -0.0633
10724W        W26533   9.097   2.949   1.211  0.2653 -0.0088 -0.4230
10725W        W26534  11.862  13.088   1.942  0.1919 -0.0996  0.1456
10726W        W26535   5.049   5.785  11.088 -0.0621  0.0205 -0.1179
10727W        W26536  14.162   2.312   3.325 -0.0488 -0.1784  0.1341
10728W        W26537   7.410   6.561  11.786 -0.0946 -0.2300 -0.2745
10729W        W26538  18.444   0.757   0.708  0.3161  0.1622 -0.3601
10730W        W26539   5.049   9.287  10.615 -0.1123 -0.2194 -0.1499
10731W        W26540  11.220  14.825   0.295 -0.0988 -0.1271  0.1476
10732W        W26541   4.921  16.874  11.232 -0.1446 -0.0603 -0.1104
10733W        W26542   5.627  16.022  10.171 -0.1442  0.1299 -0.0829
10734W        W26543   1.916  16.770   2.020 -0.1552 -0.0436 -0.3248
10735W        W26544  18.237  12.244   3.501 -0.1765 -0.1774  0.0533
10736W        W26545  17.774  12.705   0.460 -0.4172  0.0341  0.0718
10737W        W26546   8.719  17.326  10.156  0.0469  0.0573 -0.2007
10738W        W26547  18.902  16.925  12.195 -0.0055 -0.0558 -0.1693
10739W        W26548   8.415  10.853   4.545  0.0862  0.1279 -0.0245
10740W        W26549   4.240  14.951  11.397 -0.0292 -0.0763  0.0335
10741W        W26550  13.964   3.807  13.392 -0.0214 -0.1726  0.0331
10742W        W26551   9.545  13.234   1.268  0.1604  0.0466  0.0365
10743W        W26552   2.802   8.244   3.863  0.2771  0.0555  0.1604
10744W        W26553   4.770  12.532  10.754 -0.1624 -0.1243 -0.2919
10745W        W26554   1.525  16.986  14.591 -0.1704  0.4306 -0.1740
10746W        W26555   1.178   6.152   4.042  0.2096 -0.1970  0.2712
10747W        W26556   0.517   4.773   2.739  0.3761 -0.4815 -0.0478
10748W        W26557  14.793   0.235   1.503  0.0726 -0.1074  0.1660
10749W        W26558  10.422  12.521  12.802  0.0494  0.0613 -0.3213
10750W        W26559  15.579   3.747   1.493 -0.1416 -0.0014  0.0060
10751W        W26560  14.940   7.157  12.570 -0.0043  0.1296  0.0597
10752W        W26561   7.219   9.602   0.424 -0.0711 -0.1117 -0.0733
10753W        W26562   2.958  13.809  13.883  0.2959 -0.0703 -0.1678
10754W        W26563  11.169   3.744   2.236 -0.0818  0.2246  0.1513
10755W        W26564   1.590  10.558  10.904 -0.3141 -0.0297 -0.0812
10756W        W26565  11.173   4.599   4.650 -0.1094  0.0583 -0.1895
10757W        W26566  15.195   6.658  10.725 -0.0259  0.1622 -0.2587
10758W        W26567  12.705  14.201   0.343  0.0266 -0.2821 -0.2764
10759W        W26568  14.163  10.096   1.227  0.0465 -0.3033  0.2824
10760W        W26569  13.913   5.632   0.913  0.1823 -0.1454 -0.1204
10761W        W26570  16.684  12.848  13.392  0.0056 -0.0866 -0.2779
10762W        W26571  12.260   8.925   4.822 -0.0136 -0.0714 -0.1043
10763W        W26572   4.821   6.802   1.479 -0.0515  0.1709  0.0546
10764W        W26573  13.628  13.055  12.640  0.1824 -0.0137 -0.4638
10765W        W26574  18.615  16.464  13.217 -0.0790 -0.2112 -0.0440
10766W        W26575   7.630  16.842  12.417 -0.3859 -0.0199 -0.2084
10767W        W26576  10.940  14.619  12.778  0.0535  0.0807 -0.2457
10768W        W26577   2.459  10.860   2.998  0.0745 -0.0986  0.2149
10769W        W26578  11.189  17.123  14.653 -0.0077 -0.1364 -0.0650
10770W        W26579  12.185   6.418   1.528 -0.0994 -0.2479 -0.0763
10771W        W26580  15.947   1.964   2.961  0.0608 -0.0527 -0.1795
10772W        W26581   6.731   8.515  10.966 -0.0065 -0.2394 -0.2973
10773W        W26582   1.485  10.477   4.505  0.1990 -0.2890  0.0966
10774W        W26583  16.195   6.677   0.285 -0.1405 -0.0928  0.0251
10775W        W26584  10.818   4.648   0.002 -0.2036  0.1133  0.0555
10776W        W26585  13.715   4.467  13.978 -0.0382 -0.1475  0.0803
10777W        W26586   8.930  13.441   3.204  0.3740  0.1919  0.3468
10778W        W26587   6.394  15.187  11.160 -0.1148 -0.0397 -0.2512
10779W        W26588   3.065  13.063   2.621  0.1894 -0.0630  0.0077
10780W        W26589   3.538   3.589  11.965 -0.2033 -0.0713  0.4469
10781W        W26590  17.378  11.955  13.489  0.1486 -0.0363  0.2172
10782W        W26591   9.041  12.531   0.261  0.0122 -0.1149 -0.2533
10783W        W26592   0.181  12.464   4.838  0.0706 -0.0027  0.1768
10784W        W26593   2.036   6.249   0.449  0.0805 -0.0043 -0.1503
10785W        W26594   2.804   9.252   3.752 -0.1245  0.1408  0.1144
10786W        W26595   6.644   4.900   5.528  0.0919  0.0706 -0.1203
10787W        W26596   2.280  18.760   1.892 -0.2959 -0.0504  0.1912
10788W        W26597  12.763  12.901   6.207  0.1763 -0.2956  0.1548
10789W        W26598  10.213   1.477  13.833  0.1226  0.0665  0.2005
10790W        W26599   5.174  15.551   1.995 -0.4177 -0.0145 -0.0038
10791W        W26600   8.937  10.804  14.848  0.1467 -0.1679 -0.0373
10792W        W26601   7.500  11.514   1.160 -0.1007  0.1546  0.1376
10793W        W26602   4.872   3.725  11.125 -0.0535  0.3406 -0.0668
10794W        W26603  13.964   4.654  14.396  0.0859 -0.1988  0.1918
10795W        W26604   1.437  14.021   1.786  0.1549  0.3531 -0.1638
10796W        W26605   2.152  16.546  13.806 -0.2066  0.4054 -0.3647
10797W        W26606   7.936   9.857  14.893  0.2505 -0.2531 -0.1243
10798W        W26607   7.824   3.757   5.128  0.0456  0.0071 -0.1098
10799W        W26608   8.484   5.711   3.307 -0.3573 -0.1810 -0.1637
10800W        W26609   0.298  17.647  13.348  0.0290  0.1354 -0.0662
10801W        W26610   6.918   5.650  10.727 -0.2708  0.0568 -0.0984
10802W        W26611  10.470   1.556   4.568 -0.2604  0.0129  0.1695
10803W        W26612   7.723   1.954  14.872  0.2654  0.1613  0.1660
10804W        W26613  13.997   2.388  13.553  0.2502 -0.1917 -0.2386
10805W        W26614  13.331   7.370   0.034  0.1370  0.0312 -0.2131
10806W        W26615   2.235   0.066   3.921 -0.0721  0.0169 -0.1269
10807W        W26616   5.979   7.629  10.318 -0.1989 -0.0678  0.1438
10808W        W26617  11.030  17.407   2.154 -0.0658  0.0300 -0.0542
10809W        W26618  12.276   2.997  11.041  0.1212 -0.3445 -0.0209
10810W        W26619   5.657   8.161   1.922  0.0397 -0.0443 -0.1303
10811W        W26620   8.742   6.268   3.015 -0.2871 -0.0711  0.0914
10812W        W26621   9.110   4.724  14.710  0.3475 -0.2916 -0.1212
10813W        W26622   3.862  14.011   3.770  0.0126 -0.1325  0.1917
10814W        W26623   8.715   8.464   1.817 -0.0328  0.2704  0.1985
10815W        W26624  16.491   5.153  11.643 -0.1554 -0.0147  0.2560
10816W        W26625   8.060   6.197  12.217 -0.0049 -0.0373 -0.0618
10817W        W26626   3.194   8.489  14.187  0.0224  0.0079  0.1918
10818W        W26627   4.069  11.181   0.807  0.2371 -0.1003 -0.0223
10819W        W26628   2.118   0.981   4.320  0.2565 -0.0049 -0.2844
10820W        W26629   0.180   9.372  11.061 -0.1859  0.2322  0.2116
10821W        W26630   3.472   9.795  12.219 -0.3183 -0.0676 -0.4928
10822W        W26631  10.644  14.174  12.799 -0.3256  0.1693 -0.4077
10823W        W26632   4.869   6.646   2.187 -0.3422 -0.0745 -0.3183
10824W        W26633  17.497  17.894   2.181 -0.1524 -0.1350 -0.0176
10825W        W26634  18.716  10.108  14.946 -0.1085 -0.0726 -0.1038
10826W        W26635   2.085   8.607  12.739 -0.2090 -0.0976  0.0661
10827W        W26636  12.747   2.875  13.032  0.2124  0.3866 -0.1588
10828W        W26637   9.831  16.802  11.551  0.1414 -0.2300 -0.1730
10829W        W26638  11.360  14.599  12.337  0.1168  0.2689 -0.3189
10830W        W26639  17.681   3.334   0.973 -0.0871 -0.2786  0.1704
10831W        W26640   7.528  14.885  14.526 -0.0557 -0.0875  0.0270
10832W        W26641  18.359   3.086  11.316 -0.0558 -0.0095 -0.2189
10833W        W26642   9.143   4.032  13.580  0.0764 -0.1657 -0.2547
10834W        W26643  18.085  17.394   0.994  0.0266  0.3100 -0.0280
10835W        W26644   6.001   9.942   3.418  0.2351  0.1346 -0.2229
10836W        W26645  14.685   6.283   4.298 -0.1563 -0.1435 -0.4503
10837W        W26646  15.415  18.202  14.877 -0.3469  0.2731 -0.0593
10838W        W26647   3.427  10.633   0.489  0.5019 -0.1526 -0.0368
10839W        W26648  11.185   7.737  14.996  0.2940  0.1255 -0.1206
10840W        W26649  10.986   6.951  10.278  0.0561 -0.3463  0.0451
10841W        W26650  18.917   8.166   2.336 -0.6764  0.0435 -0.1108
10842W        W26651  13.619  16.823  13.792  0.0673 -0.1963 -0.3821
10843W        W26652   3.776   5.251   1.268  0.0788  0.0841 -0.1116
10844W        W26653   5.466   9.120   2.093  0.0373  0.0136 -0.1823
10845W        W26654   1.734  12.128   0.839 -0.2355  0.2134 -0.1539
10846W        W26655   4.842  19.070  11.461 -0.0936 -0.1310 -0.0494
10847W        W26656   2.231  11.477  11.386  0.2183 -0.0470  0.1720
10848W        W26657   0.963   8.411  14.872 -0.2223  0.1935  0.3167
10849W        W26658   8.533   3.664   4.616 -0.1344  0.3137  0.0366
10850W        W26659   2.112   8.122  13.991  0.0866  0.0110 -0.0449
10851W        W26660  10.351   5.220  13.268  0.0186 -0.2089 -0.0543
10852W        W26661  11.113   2.164  12.277 -0.1776  0.0936 -0.0941
10853W        W26662   7.484  18.523   4.967  0.1947 -0.1329  0.2713
10854W        W26663   7.651  17.755  13.424  0.1176 -0.1594 -0.2240
10855W        W26664  12.282  17.368   2.396  0.0941  0.0712  0.1894
10856W        W26665  18.348  10.512   3.387 -0.1010  0.2015  0.1496
10857W        W26666  13.301  15.748  12.546 -0.1937 -0.3256  0.0487
10858W        W26667   3.348   5.874   3.685  0.3027 -0.3003 -0.0873
10859W        W26668   6.624  13.254   1.585 -0.0801  0.0629  0.1086
10860W        W26669   8.240  18.951  10.917  0.1851  0.1081 -0.1397
10861W        W26670   0.034   1.053  13.666  0.1754  0.0944 -0.1429
10862W        W26671   7.775  11.965  12.265 -0.4391 -0.0440 -0.0428
10863W        W26672  12.230  18.846   2.628 -0.0360 -0.1046  0.1184
10864W        W26673  17.908  12.140  13.508  0.1683  0.0094  0.3458
10865W        W26674   1.994   0.481  13.259 -0.2813  0.1587  0.1527
10866W        W26675   5.933  15.343   2.333 -0.2317  0.0431 -0.0210
10867W        W26676   1.240  17.309  10.542  0.1054  0.3218  0.1862
10868W        W26677  12.497  10.880  12.244  0.0426 -0.0441  0.2204
10869W        W26678   4.747   6.948  11.699  0.2299  0.0879  0.2011
10870W        W26679  15.811  14.553   5.398 -0.1948 -0.1745  0.0449
10871W        W26680  17.557  14.060   2.662 -0.1974 -0.0835 -0.0159
10872W        W26681  10.306  15.807   5.135  0.0524 -0.0071 -0.0230
10873W        W26682   1.687  13.349   1.295  0.3979 -0.0917  0.0867
10874W        W26683  10.665   9.745   4.408 -0.1725  0.0608  0.0338
10875W        W26684  14.408  11.047   3.596  0.2789  0.2898 -0.1375
10876W        W26685  13.742   5.059  13.271 -0.0762  0.0131 -0.4832
10877W        W26686   5.560  17.473   2.395  0.0216 -0.3235  0.1807
10878W        W26687   4.419   7.763   2.551 -0.1673 -0.0495 -0.2961
10879W        W26688  11.580  17.315   5.567 -0.1156  0.0737  0.1361
10880W        W26689  10.446  16.456   2.493  0.0241 -0.2436 -0.1507
10881W        W26690   4.762   4.633  14.576 -0.2529  0.0798  0.0252
10882W        W26691   5.067  17.482  13.930  0.3854 -0.0612 -0.1711
10883W        W26692  15.527   2.171   0.053 -0.0236 -0.0400 -0.2038
10884W        W26693  12.571  13.936  12.129  0.0373  0.0250 -0.3272
10885W        W26694   4.790   6.852  12.281  0.0729 -0.3682  0.1934
10886W        W26695   1.522  12.315   3.820  0.0801 -0.4132 -0.0506
10887W        W26696  10.721   3.426  12.785  0.0023  0.2979 -0.2751
10888W        W26697  18.482  14.386   9.733 -0.2138 -0.0904  0.2780
10889W        W26698   0.726  15.845  10.776  0.0431  0.0227  0.3049
10890W        W26699   7.274  16.166   4.311  0.1470  0.2875  0.0303
10891W        W26700   7.971  16.657   1.280 -0.1337  0.0656 -0.1416
10892W        W26701   2.923   2.849   0.940 -0.1197 -0.1405  0.0260
10893W        W26702   7.297  18.428  14.119 -0.0152  0.2099  0.0111
10894W        W26703   8.029  17.894  15.137  0.2865  0.2532 -0.2953
10895W        W26704  13.324   4.541   1.060  0.0180 -0.4454  0.1393
10896W        W26705   4.818   4.765   2.327 -0.0639  0.0905  0.2248
10897W        W26706  12.585   7.548  10.575  0.3533  0.1345 -0.1296
10898W        W26707   4.918  17.595  10.307  0.0356  0.1630  0.3063
10899W        W26708   6.720  16.803  14.147 -0.0461  0.0801  0.2421
10900W        W26709  14.998   0.230   3.534  0.1122 -0.1060  0.1487
10901W        W26710  17.425   0.015  12.288  0.0521  0.1535 -0.2799
10902W        W26711   3.757  17.720  14.670  0.2393 -0.1833 -0.0500
10903W        W26712   3.610  10.487  13.842  0.2090 -0.0589 -0.0358
10904W        W26713  11.892   6.700   1.246  0.3452  0.1465 -0.1091
10905W        W26714   6.661   5.008   2.413  0.3110 -0.1437 -0.0578
10906W        W26715   1.317  14.500   0.957  0.1805 -0.0514 -0.0297
10907W        W26716   5.035  15.218   3.998 -0.2360  0.0582 -0.1785
10908W        W26717   4.090   2.972  12.729  0.2241  0.2324  0.1067
10909W        W26718  15.957   5.505  14.887  0.0034  0.2522 -0.1500
10910W        W26719   6.872  13.720   3.683  0.2147  0.2220  0.3133
10911W        W26720  12.791   2.402   5.597 -0.3074 -0.0646 -0.1883
10912W        W26721   5.680   8.109  11.423 -0.3712  0.0858  0.0363
10913W        W26722   6.317  10.390  14.917 -0.0573 -0.0865 -0.0828
10914W        W26723  17.997   8.914   9.751 -0.2299 -0.0608 -0.0876
10915W        W26724   4.595   2.650  13.077 -0.2242  0.1682 -0.0807
10916W        W26725   8.794  14.755   2.470 -0.0846 -0.3763  0.1799
10917W        W26726   3.610   5.643  10.843  0.2690 -0.0612  0.2808
10918W        W26727  11.506  10.948   2.587 -0.0223  0.1259  0.0667
10919W        W26728  15.546   1.696  12.624 -0.0632 -0.0500  0.2565
10920W        W26729   9.273   1.022  12.524  0.2373  0.0376  0.3096
10921W        W26730   3.636   6.200  10.933 -0.1633 -0.2387 -0.1017
10922W        W26731  13.356   4.500   3.263 -0.3047  0.2681  0.2343
10923W        W26732  10.109  14.085  14.379 -0.1788  0.0038  0.0277
10924W        W26733  11.935  16.243  12.631 -0.0592 -0.1303 -0.1822
10925W        W26734   7.863  12.535   5.241  0.0078 -0.2952 -0.0218
10926W        W26735   9.467   2.853  10.351 -0.0466  0.1784  0.0470
10927W        W26736   7.457   7.838  14.022 -0.1718 -0.2074 -0.2634
10928W        W26737  15.814   1.406  11.451  0.3167 -0.1603  0.4006
10929W        W26738   0.793   3.164   3.263  0.4261 -0.1996  0.3489
10930W        W26739  17.792  18.476   3.796  0.0011  0.3949  0.1661
10931W        W26740   2.559   3.070   0.568 -0.0503  0.2182  0.1169
10932W        W26741   9.955  10.269   1.266  0.2595  0.0785  0.0776
10933W        W26742   5.884   8.269   2.973  0.0015 -0.1723 -0.0483
10934W        W26743   4.086   9.995  10.826 -0.3053 -0.2747  0.1596
10935W        W26744  13.333  18.451  13.377  0.0162 -0.0410  0.0756
10936W        W26745  18.007   7.082  12.356  0.0019  0.2028  0.3008
10937W        W26746  11.331   9.175   1.342  0.0254  0.1249  0.3780
10938W        W26747   8.188   4.658  11.303 -0.0853 -0.0785  0.2142
10939W        W26748   3.399  10.659  11.983 -0.0764  0.0995  0.1859
10940W        W26749  15.276   2.538   4.871 -0.0001  0.3754  0.0998
10941W        W26750   4.373  16.540  10.664  0.2498 -0.1324 -0.0927
10942W        W26751  14.899  17.669  13.170  0.0061 -0.0455  0.1276
10943W        W26752  14.587   1.635   0.058  0.0017  0.0883  0.1583
10944W        W26753   2.026  10.957  11.714  0.3014  0.1570  0.0633
10945W        W26754   1.614  14.327  10.785  0.1589 -0.1625  0.0157
10946W        W26755  12.412  17.886   2.360  0.1855 -0.0046 -0.3085
10947W        W26756  10.671  11.692  11.062  0.2200  0.1284  0.1320
10948W        W26757   3.070  16.792   4.487  0.2571 -0.3626  0.3661
10949W        W26758  16.665  15.450   6.080  0.1103  0.2653 -0.0118
10950W        W26759  16.198   2.249   1.842 -0.0784 -0.1131 -0.4984
10951W        W26760  18.614   7.279   1.748 -0.0486  0.1139 -0.0885
10952W        W26761   6.259  18.857   3.982  0.0606  0.3234  0.0682
10953W        W26762  15.816   3.694   2.783  0.1137 -0.0668  0.0674
10954W        W26763  12.181  13.496   2.055 -0.2943 -0.0787 -0.1623
10955W        W26764  18.219  19.128  11.215 -0.0927 -0.1467 -0.1177
10956W        W26765   0.470  17.245  11.073  0.2836 -0.2603  0.1094
10957W        W26766  16.772   8.269  11.636 -0.2182 -0.1371 -0.2783
10958W        W26767   9.732  18.234   2.553 -0.1160 -0.0956  0.0898
10959W        W26768   2.960  16.890   2.579 -0.2066 -0.0771 -0.1150
10960W        W26769   9.834   1.979   0.997 -0.1757  0.3619 -0.1629
10961W        W26770   0.646  15.595   5.246 -0.2694  0.0350 -0.0203
10962W        W26771  11.674  14.472   3.625  0.0204 -0.2752 -0.2635
10963W        W26772  12.687   5.216  11.840 -0.2594  0.0772 -0.0295
10964W        W26773   8.863   2.538  10.067  0.1195 -0.1659 -0.0603
10965W        W26774   5.323   8.151   9.956 -0.1562 -0.0753  0.1143
10966W        W26775   0.459   2.952  13.585  0.0296 -0.3500  0.0692
10967W        W26776   4.486  17.195   2.919 -0.2711  0.1871  0.0032
10968W        W26777  12.351   3.123   1.313 -0.2078 -0.1783  0.3100
10969W        W26778  16.320   3.490   4.370 -0.0009  0.3438 -0.0245
10970W        W26779  11.288   1.824   4.176 -0.2097 -0.3229  0.1391
10971W        W26780   4.352  17.095  12.915  0.3710 -0.0423  0.1119
10972W        W26781  15.150  13.066   0.939  0.0753 -0.3178  0.0163
10973W        W26782   0.755  15.449  13.491 -0.1284  0.2788  0.2038
10974W        W26783  17.890  13.316   2.492  0.0176 -0.2561 -0.0131
10975W        W26784   4.431   7.039  12.021  0.0557  0.0447  0.0025
10976W        W26785  11.429  16.288  13.047  0.0221  0.1829  0.0343
10977W        W26786  16.024  11.107   2.196  0.1269  0.1408  0.1486
10978W        W26787  17.199  16.967   5.778 -0.0522  0.2584 -0.0213
10979W        W26788  10.870   7.980   1.867 -0.1569 -0.0380 -0.1666
10980W        W26789  12.927  17.497   3.178  0.0230 -0.1415  0.0505
10981W        W26790  12.170   7.011   1.477 -0.0269  0.1350  0.1629
10982W        W26791  16.741   9.931   1.618 -0.0268 -0.3359  0.1014
10983W        W26792   6.021   0.573  10.842  0.1293  0.1866  0.1058
10984W        W26793   4.955   5.648   3.013  0.0775  0.1295  0.1862
10985W        W26794   4.319   1.696  10.752 -0.0812 -0.0676 -0.1507
10986W        W26795   2.208   1.630  12.457 -0.0108  0.1470 -0.1310
10987W        W26796   2.134   8.450   5.220 -0.1124  0.1921 -0.1045
10988W        W26797   0.004   7.508   0.863  0.0485 -0.0514  0.1681
10989W        W26798  17.893  16.048   4.637 -0.0610  0.0336  0.1517
10990W        W26799   5.558   4.963  11.199 -0.1754  0.0377  0.0598
10991W        W26800  12.423   7.659   0.503  0.0553  0.1154 -0.1002
10992W        W26801   8.578   0.051   2.377  0.2169 -0.0142 -0.0957
10993W        W26802  13.204   7.803  11.813  0.1278  0.2020  0.2032
10994W        W26803  14.508   3.571  12.503 -0.0188  0.1234 -0.0898
10995W        W26804   0.019   3.303   4.818  0.1317 -0.0685 -0.0123
10996W        W26805  12.970  15.536  10.102 -0.1551 -0.0454 -0.3995
10997W        W26806  18.156   8.357   1.828 -0.1298  0.2085  0.4095
10998W        W26807  12.783   5.776   4.931 -0.3924 -0.3198  0.0642
10999W        W26808  15.290   7.055   1.629  0.0599  0.3068  0.1367
11000W        W26809   8.381  14.790   1.860 -0.1855  0.1377  0.1879
11001W        W26810  14.748   1.671  14.732  0.3267  0.2405 -0.0606
11002W        W26811   2.261   4.968  10.218 -0.0776 -0.1405 -0.1988
11003W        W26812   4.319  12.758  13.003  0.1052 -0.1231  0.1731
11004W        W26813   6.563   7.852   2.949  0.0016  0.1760 -0.2064
11005W        W26814   6.163   7.172   4.549  0.1140 -0.2277  0.1890
11006W        W26815   4.362   2.187  10.452  0.3136 -0.1445  0.0963
11007W        W26816   5.208   9.831  13.512 -0.0049 -0.2561  0.0382
11008W        W26817   3.217   8.478   4.652  0.1352 -0.0124 -0.0793
11009W        W26818  12.358  11.905  13.133  0.1139  0.0724 -0.2001
11010W        W26819  18.350  12.432   4.867 -0.0472  0.3262 -0.3314
11011W        W26820  12.754   5.818  10.191  0.1364 -0.3380  0.2561
11012W        W26821   9.792   1.436  10.904 -0.0307 -0.0260 -0.2301
11013W        W26822  15.759   5.159  13.932  0.2430  0.0964  0.1850
11014W        W26823  10.469  13.027  12.686 -0.3419 -0.3649  0.0569
11015W        W26824   0.932   8.966  11.892 -0.2851 -0.3936 -0.1307
11016W        W26825   9.568  15.190   2.453 -0.0855 -0.1819  0.0170
11017W        W26826   8.938  10.725   0.394  0.0804 -0.3503  0.2161
11018W        W26827   5.290   8.286  13.240  0.0196 -0.1322  0.1314
11019W        W26828  15.548   7.733  14.051 -0.2464 -0.1971 -0.0449
11020W        W26829   0.008  13.555  10.531 -0.2300 -0.0770  0.1568
11021W        W26830  15.010  15.783  10.697 -0.0147 -0.0026  0.0398
11022W        W26831   5.912  12.520  14.042  0.1490 -0.0100  0.1799
11023W        W26832   5.262   4.352   1.087  0.1158  0.1356  0.2696
11024W        W26833  15.726  17.225   2.091  0.1006 -0.1857 -0.2339
11025W        W26834  10.369   8.729   4.023  0.1577  0.1387  0.1023
11026W        W26835   0.170  14.083   0.722 -0.1356 -0.1865  0.1142
11027W        W26836  13.187  10.831   4.825 -0.0676  0.1157 -0.1300
11028W        W26837   0.197  16.336  13.583 -0.0723  0.3166 -0.3657
11029W        W26838  10.762  15.376   0.988 -0.2122 -0.0071  0.0086
11030W        W26839   9.337   4.226   0.753  0.3435 -0.0484 -0.2577
11031W        W26840  17.025   1.291  13.145  0.2903  0.0124  0.2450
11032W        W26841   7.607   5.978  13.445  0.0983 -0.0459 -0.3814
11033W        W26842  13.395  14.605  12.699  0.2726 -0.0186  0.0313
11034W        W26843  13.351   0.405   9.978 -0.0238 -0.0316 -0.0602
11035W        W26844  11.093  11.316  11.778 -0.2909 -0.1001 -0.0123
11036W        W26845   0.696   7.200  15.059  0.0391  0.3171  0.3466
11037W        W26846  10.413  14.159   2.148  0.2961 -0.0834  0.2308
11038W        W26847   1.663  11.479  14.816  0.2027  0.3051 -0.1188
11039W        W26848   5.482  19.030  10.807  0.2947  0.3364  0.0313
11040W        W26849  15.347   6.196  14.656  0.0535  0.2229  0.2484
11041W        W26850  18.769  18.637   1.874  0.1060  0.0312 -0.0249
11042W        W26851  18.301  14.730  11.836  0.1837  0.0488 -0.1075
11043W        W26852  14.124  10.653  13.630 -0.2218  0.0231  0.0165
11044W        W26853   0.752  10.308  12.484 -0.1239 -0.3381 -0.2185
11045W        W26854   8.480   7.106   1.471  0.0044 -0.0008  0.1449
11046W        W26855   4.770  13.154  14.680  0.2199  0.0533 -0.3004
11047W        W26856   4.093   6.529   1.560 -0.1221 -0.1433 -0.0877
11048W        W26857   8.055   0.355   4.663  0.0944 -0.1407  0.4624
11049W        W26858   8.280  18.960   5.771 -0.1121 -0.0104  0.1654
11050W        W26859  11.649   0.135  10.225 -0.0038 -0.0753 -0.1180
11051W        W26860  15.665  18.444  13.852  0.1640 -0.1294 -0.0141
11052W        W26861   5.792   5.294  14.154 -0.0723  0.3287 -0.0341
11053W        W26862  10.639  10.565   3.334  0.2212  0.0751  0.1041
11054W        W26863   4.437   7.861  11.831 -0.2677  0.2872 -0.0812
11055W        W26864   2.461   2.700   3.306  0.1020  0.0818 -0.2280
11056W        W26865   4.515   0.723  10.378 -0.0330 -0.3283  0.0853
11057W        W26866  17.558  15.949   0.997 -0.0285 -0.0839  0.0813
11058W        W26867   6.345  17.895   3.507  0.2132 -0.0740  0.1109
11059W        W26868  16.539  15.850   1.422  0.2062 -0.3410 -0.2652
11060W        W26869  18.179  14.252  11.776  0.1415  0.2019  0.0241
11061W        W26870  16.971   5.374  11.806  0.0555  0.3004 -0.2710
11062W        W26871  14.788  18.406  14.323 -0.4454 -0.0408  0.1485
11063W        W26872   5.752   7.175   4.913  0.0124 -0.1273 -0.0228
11064W        W26873  13.656  13.138   1.691  0.1634  0.2691 -0.1210
11065W        W26874   4.437   2.755  14.875 -0.2328  0.0789 -0.2241
11066W        W26875  13.090  11.798   1.897 -0.0708 -0.1212  0.2388
11067W        W26876   2.990   8.814   2.643 -0.3265  0.0453  0.1582
11068W        W26877   6.753   5.882   1.221  0.1578  0.0980 -0.1462
11069W        W26878  16.613   2.535   4.360  0.0662 -0.1717 -0.2634
11070W        W26879  14.182   1.091  14.161 -0.3573 -0.2345  0.2409
11071W        W26880   1.961  18.045  13.280 -0.2163 -0.3777  0.2434
11072W        W26881   4.514   0.884   5.037 -0.2352 -0.2018 -0.3478
11073W        W26882   1.654   3.498   1.803 -0.0109 -0.1283  0.0793
11074W        W26883  13.292  18.225   0.130  0.0478 -0.0528  0.0625
11075W        W26884   5.088   5.545   9.733  0.0395 -0.0594 -0.2907
11076W        W26885   1.661   2.194  14.429 -0.3896  0.0393  0.2685
11077W        W26886   8.003   0.344   0.861  0.0150  0.2544 -0.0650
11078W        W26887   2.242  14.686  14.699 -0.2281  0.1868  0.2249
11079W        W26888   9.769   6.939  14.925 -0.1560  0.2852 -0.3607
11080W        W26889  10.187  17.554   0.732  0.1345 -0.2104  0.1459
11081W        W26890  14.289   7.079  14.425 -0.0477 -0.0588  0.2634
11082W        W26891  14.034   3.085   1.823 -0.4668 -0.1348  0.2536
11083W        W26892   1.797   7.478  13.445 -0.1255 -0.2882 -0.1486
11084W        W26893  10.961   5.609   9.938  0.1564 -0.1396 -0.1515
11085W        W26894  12.306  14.586   2.820 -0.1418  0.0648 -0.2161
11086W        W26895  16.173   2.423   1.375  0.2081 -0.0381 -0.1944
11087W        W26896  14.421  14.699  12.137 -0.2370  0.2482  0.2346
11088W        W26897   3.146   0.602  10.655 -0.0194  0.4233 -0.0904
11089W        W26898   6.091   1.127   1.227 -0.1133 -0.0928 -0.0684
11090W        W26899   5.090   8.743  14.998  0.1460  0.1547 -0.0224
11091W        W26900  13.953  18.628   0.322  0.0075 -0.0509  0.2319
11092W        W26901   2.593   2.818  13.380  0.0612 -0.0388 -0.0942
11093W        W26902   5.174   1.458  14.000  0.0043 -0.1060 -0.0979
11094W        W26903   8.672  13.152  12.912 -0.2036  0.4820 -0.1346
11095W        W26904   9.697   1.657  13.116  0.1584 -0.2229 -0.1187
11096W        W26905  12.339   5.745  13.733  0.0302  0.2149  0.0614
11097W        W26906   3.230  12.522  14.468 -0.0547 -0.2751 -0.2641
11098W        W26907   2.464  16.967  13.788 -0.3933  0.2251 -0.1676
11099W        W26908  10.945   0.245   0.724  0.2069  0.0740 -0.0284
11100W        W26909  15.398  11.768   2.509  0.0774 -0.1418 -0.3352
11101W        W26910  17.337   9.168  13.319 -0.1642 -0.1283 -0.1281
11102W        W26911  11.391   3.318   2.331  0.2507 -0.2088  0.4271
11103W        W26912  17.136  10.942  11.882 -0.2965  0.2552 -0.0854
11104W        W26913  13.421  18.703  11.797  0.2332 -0.3501  0.2541
11105W        W26914   9.551  16.507   3.500 -0.0017 -0.0977  0.2313
11106W        W26915   2.215   4.848   2.318  0.1346 -0.1198 -0.1610
11107W        W26916  13.103   4.888   1.500 -0.0038 -0.0410 -0.1684
11108W        W26917   7.417   9.159   1.174 -0.2030  0.1396 -0.0244
11109W        W26918   9.901   8.937  14.403  0.0016  0.1722  0.2235
11110W        W26919   7.447   1.667   4.652  0.2258 -0.2552  0.1998
11111W        W26920   8.109  16.768   4.716  0.2650 -0.1423 -0.0199
11112W        W26921  10.814  11.812   5.436 -0.1994 -0.2203  0.2652
11113W        W26922   4.333  13.594   3.034  0.0243  0.0017 -0.2174
11114W        W26923   7.762  17.734  11.164  0.2000  0.4214 -0.0372
11115W        W26924   8.929   2.488  15.189 -0.1912 -0.0277 -0.0415
11116W        W26925  16.416   2.202  14.949  0.2479 -0.1964 -0.0997
11117W        W26926  11.704   5.517  12.907 -0.1399  0.1694 -0.4856
11118W        W26927  13.997  11.251   2.250 -0.0072 -0.4640  0.1460
11119W        W26928   2.357  10.203   5.081  0.0541  0.0136  0.0119
11120W        W26929   3.257  15.286   3.531 -0.0223  0.1315  0.0722
11121W        W26930  18.970  17.765   2.496  0.1900 -0.2757  0.3669
11122W        W26931   6.665   8.208  11.499  0.3554 -0.0238  0.1569
11123W        W26932   3.070   6.174  14.810  0.2960 -0.1667  0.1009
11124W        W26933   5.192  13.025  14.388 -0.0608 -0.1757  0.0980
11125W        W26934  12.491   3.851   2.511  0.0671  0.0904  0.2748
11126W        W26935   1.061  16.635   0.447 -0.2493 -0.1995 -0.0166
11127W        W26936  16.064  13.431  13.637  0.1101  0.2456 -0.0218
11128W        W26937   8.064   3.181  11.903 -0.3432  0.1425 -0.0900
11129W        W26938  10.667   5.158   3.210 -0.1756  0.0240 -0.1016
11130W        W26939   5.470  14.043   1.437 -0.2191 -0.2914  0.1624
11131W        W26940   6.066   2.284   2.643 -0.3862 -0.0168  0.0889
11132W        W26941  17.329  12.831   1.842 -0.0387 -0.1340 -0.5381
11133W        W26942   2.361   0.664  13.691 -0.2909 -0.2625 -0.1569
11134W        W26943  15.507   3.611  14.335  0.1311 -0.1529 -0.3159
11135W        W26944   5.650  18.978  12.208 -0.0024 -0.0967  0.0123
11136W        W26945   2.840   0.102  14.237  0.2241 -0.0465  0.0715
11137W        W26946   5.096  12.608   0.682 -0.1146  0.0679  0.0126
11138W        W26947  15.027  12.231  12.417  0.1150 -0.0165  0.1364
11139W        W26948   0.799   3.271   1.765 -0.1694 -0.1552 -0.1149
11140W        W26949   5.640  16.329   9.232 -0.0319  0.2717 -0.0520
11141W        W26950  16.015   9.754  10.838 -0.0398  0.1568 -0.0954
11142W        W26951  16.465   1.281   4.177  0.2418  0.1690 -0.0077
11143W        W26952  11.853   9.879   5.260 -0.1490  0.2611  0.0989
11144W        W26953  12.854   6.985   3.775  0.1277  0.0040 -0.2543
11145W        W26954   3.754  11.698   1.112  0.4157  0.3296 -0.1219
11146W        W26955  14.546  12.047   0.078  0.1583  0.0996  0.1314
11147W        W26956   3.605   0.428  13.752  0.0354  0.1724 -0.0138
11148W        W26957  12.240   6.558  13.061 -0.0214  0.0357  0.0057
11149W        W26958  13.359   9.505  11.647 -0.1309 -0.0309  0.3214
11150W        W26959  16.200   9.963   2.788  0.2809  0.1852 -0.0563
11151W        W26960  17.312  13.520   3.960  0.0727  0.0287  0.0387
11152W        W26961  10.531   9.359   4.059 -0.1497  0.1362 -0.2169
11153W        W26962  16.805  16.339   3.106  0.0829 -0.0807 -0.2378
11154W        W26963  16.934  16.165   3.638 -0.2005 -0.3202 -0.1195
11155W        W26964  14.675   9.072  13.122  0.2920  0.1346 -0.0744
11156W        W26965   7.898  10.041  11.321  0.4168 -0.0680 -0.0697
11157W        W26966   7.247  14.683   4.529  0.1198 -0.3363 -0.0095
11158W        W26967   2.837   1.495   3.972  0.0140  0.1990 -0.0382
11159W        W26968   4.349   5.937  11.711 -0.1126 -0.0098 -0.1037
11160W        W26969   0.932  18.877  11.242  0.2443  0.0661  0.3766
11161W        W26970  15.658   8.637   2.068  0.4478  0.0961  0.2496
11162W        W26971   5.574   4.662  11.575 -0.1678 -0.0285 -0.3787
11163W        W26972   2.991  16.260  13.328  0.0463 -0.0328 -0.0930
11164W        W26973  13.653   5.647   1.703  0.3451  0.2456  0.0881
11165W        W26974   9.286   3.261  12.681 -0.1960  0.1314  0.0722
11166W        W26975   9.100   3.529  10.879  0.0992  0.0961  0.2181
11167W        W26976  17.535  13.360  13.938 -0.2251 -0.1353  0.2344
11168W        W26977  17.422  17.374   2.619  0.2819 -0.0300  0.1502
11169W        W26978   5.318  15.940  11.302 -0.1635  0.1414  0.1921
11170W        W26979  17.748   7.455   2.072 -0.1271  0.0730 -0.0797
11171W        W26980   2.713   0.019   0.782  0.1828  0.2837  0.0401
11172W        W26981  13.260  14.851   2.005  0.0082 -0.0531 -0.3787
11173W        W26982   1.812  10.848  13.505 -0.0787 -0.0931 -0.0572
11174W        W26983   8.434   1.485   4.529 -0.0520  0.0556 -0.2264
11175W        W26984  14.163   0.134  15.125 -0.0631  0.1440  0.2320
11176W        W26985   4.496  11.130   2.134  0.1701  0.0525 -0.2957
11177W        W26986  12.020   4.757  13.645  0.0269 -0.0871  0.0016
11178W        W26987  12.670   9.825   4.235 -0.0374  0.0412 -0.0165
11179W        W26988   1.393  13.592  11.390 -0.3236 -0.1391 -0.0739
11180W        W26989   3.739   4.208   4.122 -0.2084  0.2710 -0.4026
11181W        W26990   1.657  17.027   0.647  0.0173 -0.0983 -0.2179
11182W        W26991  10.143   0.725  13.484 -0.3449  0.0803 -0.0487
11183W        W26992   5.242   9.419  11.764 -0.0103 -0.3374  0.2190
11184W        W26993  17.928   4.581   1.447 -0.0846  0.0542 -0.3662
11185W        W26994  18.659  15.113  14.665  0.0483 -0.0478  0.0730
11186W        W26995  11.325   9.918  12.907 -0.1747 -0.0478 -0.2304
11187W        W26996   4.032  10.552   1.810 -0.2218  0.4446 -0.1765
11188W        W26997  13.428   9.009   3.294  0.1106  0.2789 -0.0780
11189W        W26998   2.636  14.599   9.955 -0.2362  0.0728  0.0585
11190W        W26999  13.035  11.131  11.015  0.0819  0.0718 -0.2063
11191W        W27000   3.024  16.217   3.270  0.1687  0.0453  0.0400
11192W        W27001   8.593  13.944   3.232  0.3222  0.4568 -0.2380
11193W        W27002   6.770   8.764  10.483  0.0737 -0.2208  0.2345
11194W        W27003  11.724  15.022  13.064  0.1742 -0.0302  0.1642
11195W        W27004  13.501   2.166   2.425 -0.0972 -0.0832  0.1028
11196W        W27005  17.669  11.499   3.165 -0.1994  0.1154  0.2676
11197W        W27006   6.276  14.530  14.625  0.0721  0.1384  0.1152
11198W        W27007  16.875  16.909  11.613 -0.1614  0.4685  0.0103
11199W        W27008   0.486   5.946  12.483  0.0377 -0.0503 -0.1225
11200W        W27009  13.072   3.716  11.819 -0.0590  0.1757  0.1039
11201W        W27010  12.563  17.715  12.446 -0.0991  0.2490  0.0286
11202W        W27011   1.563   3.932   4.436  0.3811  0.3107  0.0174
11203W        W27012   5.825   1.514  10.984 -0.1596  0.1235 -0.0594
11204W        W27013  14.576   5.808  11.603 -0.0757 -0.0008 -0.2556
11205W        W27014  10.882   6.028  12.709 -0.2236 -0.1612 -0.6139
11206W        W27015   9.053  12.171   1.556  0.0433  0.1789 -0.1690
11207W        W27016   3.970   9.117   2.408  0.2455 -0.4608  0.0238
11208W        W27017   8.906   6.666   4.470  0.3032 -0.0856 -0.0360
11209W        W27018   8.976  18.365  11.045 -0.1232  0.2037 -0.0623
11210W        W27019  12.167   3.748   2.131 -0.2135  0.2139  0.5473
11211W        W27020  13.425  17.711   0.290 -0.4279 -0.0183  0.0788
11212W        W27021   8.597   1.752   1.804 -0.0630  0.0013 -0.2975
11213W        W27022   2.471   2.003   2.511 -0.0611 -0.1760  0.0466
11214W        W27023   1.553   1.283   0.942  0.0745 -0.3025 -0.5317
11215W        W27024  10.713  14.812  15.129  0.1682 -0.0962 -0.1400
11216W        W27025  15.761   6.557  14.918 -0.1751  0.1492  0.1117
11217W        W27026   2.293  11.930   3.018  0.3488 -0.0505  0.0119
11218W        W27027  13.858   5.386   3.518  0.0522  0.3146 -0.1432
11219W        W27028  18.998   6.204  11.851 -0.2210  0.1869  0.1259
11220W        W27029   2.354   6.936  14.540  0.0601  0.1631  0.1634
11221W        W27030   9.007   1.502  13.235  0.3868  0.0911  0.1509
11222W        W27031   4.416  16.696  12.476 -0.0923  0.2255 -0.0269
11223W        W27032  11.782   6.718   4.239  0.1087 -0.1259 -0.3762
11224W        W27033  10.165   1.927  10.488 -0.4457  0.0815 -0.3418
11225W        W27034  17.368  11.776   5.414  0.0512  0.1368  0.0236
11226W        W27035  13.282   8.581  12.390  0.0255 -0.0387  0.2004
11227W        W27036  18.776   1.995  12.853 -0.1307  0.0306 -0.2970
11228W        W27037   6.900  10.184   2.371 -0.2943 -0.0762 -0.1058
11229W        W27038  17.960   0.530   1.082  0.0406 -0.3939  0.0097
11230W        W27039   8.061  14.804  10.510  0.0025  0.0299 -0.0213
11231W        W27040  15.078  11.540   3.312 -0.3122 -0.0381  0.0857
11232W        W27041   5.747  19.057   0.098  0.2066 -0.0118 -0.1854
11233W        W27042   7.329  10.739  11.078  0.2174  0.0636 -0.2830
11234W        W27043   2.398  15.229   0.490 -0.2695 -0.2993  0.3890
11235W        W27044  15.729   0.999  10.623 -0.1218  0.2473  0.0395
11236W        W27045  11.610  11.624  11.703  0.0542 -0.1349  0.1113
11237W        W27046  17.569  15.657  13.981 -0.2739  0.2408  0.2253
11238W        W27047  18.037  18.974   4.812  0.1542  0.1771  0.0199
11239W        W27048  18.519  17.565   4.628  0.0441 -0.0993  0.0336
11240W        W27049   9.671   6.140  15.193 -0.1127 -0.1802 -0.0620
11241W        W27050   0.489  10.516   2.546 -0.0800  0.2685 -0.2760
11242W        W27051  14.708   1.761  13.179 -0.2483  0.1023  0.1199
11243W        W27052   9.993   2.253   5.445  0.0897 -0.2835  0.2121
11244W        W27053   0.566   3.130  13.053 -0.2455 -0.0060 -0.0246
11245W        W27054  12.378   9.384   3.422  0.1042 -0.0199  0.1936
11246W        W27055  10.130   9.063  11.311 -0.0426  0.2127 -0.1890
11247W        W27056   9.048  14.392   5.543  0.2424 -0.0331  0.3625
11248W        W27057   3.189  11.164   3.421 -0.1621  0.0656 -0.0834
11249W        W27058   8.786  17.316   0.337 -0.0119 -0.0776  0.0283
11250W        W27059   9.243  17.842  11.784  0.1866  0.0106 -0.1175
11251W        W27060  15.071   9.203  12.582 -0.1009 -0.1230 -0.3273
11252W        W27061  18.300   3.006   4.874  0.2333  0.2300 -0.0275
11253W        W27062   5.186   2.953   0.959  0.1184  0.2516 -0.2308
11254W        W27063  16.241   3.376   2.815 -0.0605  0.4217 -0.2468
11255W        W27064   2.079   0.720  14.436 -0.0114 -0.1824 -0.0186
11256W        W27065  18.671  10.531   3.925  0.2096 -0.4001  0.1625
11257W        W27066  11.846   5.596   0.452  0.0338 -0.1805  0.1716
11258W        W27067  13.916   6.685  14.460 -0.0697  0.2197  0.0139
11259W        W27068   2.620  10.259   3.784 -0.1541  0.3474  0.2183
11260W        W27069  14.892  17.828   1.185 -0.0465  0.1797 -0.2006
11261W        W27070   2.872   2.028   2.256 -0.5254 -0.1716  0.5095
11262W        W27071   0.605   0.981  12.823  0.0331  0.1161  0.1443
11263W        W27072   0.513   2.136   0.433 -0.0925  0.1738  0.1413
11264W        W27073  15.414   0.076  11.576 -0.1677 -0.2093 -0.0211
11265W        W27074   7.132   0.032   0.961 -0.0964 -0.3070 -0.0742
11266W        W27075   7.737   5.564   0.861  0.5426 -0.0886 -0.2671
11267W        W27076  12.121   8.404   1.907  0.1425  0.3169  0.1274
11268W        W27077  17.447   4.112   3.984  0.3559 -0.0020  0.1855
11269W        W27078  17.396  16.684  11.665 -0.0871  0.3370  0.1650
11270W        W27079   7.546  11.624  11.864  0.1167 -0.1698  0.1316
11271W        W27080  12.838   4.947   3.475  0.1867  0.0402 -0.0574
11272W        W27081   9.792   5.425   4.302  0.1912 -0.2263 -0.2188
11273W        W27082  16.672   3.199   3.714  0.1288  0.3255 -0.0909
11274W        W27083   3.622  12.453   1.497 -0.3764 -0.3408  0.4657
11275W        W27084   6.900  18.726  10.809  0.0466 -0.0104 -0.0295
11276W        W27085   7.666   3.108   1.273  0.1937 -0.0965 -0.1773
11277W        W27086   1.874   8.552  15.005 -0.0442  0.0013  0.3780
11278W        W27087  18.387  18.771   1.335  0.3642 -0.0104 -0.1874
11279W        W27088  17.193   0.435   1.731  0.1186  0.0318  0.2981
11280W        W27089  15.749   8.365   2.571  0.0273  0.0577  0.4255
11281W        W27090   1.438  15.127  11.712  0.2034 -0.0252 -0.2113
11282W        W27091   0.505  13.140   0.612 -0.0010  0.0820  0.4530
11283W        W27092   9.482   1.547   1.149 -0.1759 -0.2510 -0.0939
11284W        W27093   0.552   9.677   9.428  0.3360  0.1726  0.2479
11285W        W27094  15.322  13.367   2.855 -0.0270  0.0794 -0.0167
11286W        W27095  17.249   8.888  14.482 -0.0340  0.1518  0.2158
11287W        W27096  13.668   5.305   1.230 -0.1834  0.0462 -0.2181
11288W        W27097  16.910   9.184   5.050  0.0288  0.1361  0.0089
11289W        W27098  17.468  12.097   1.442 -0.1876  0.0367 -0.2444
11290W        W27099   1.670  12.946  13.130  0.0194 -0.1239  0.2989
11291W        W27100  17.163  12.866   4.715  0.2605 -0.0433  0.1072
11292W        W27101   2.886   7.116   1.319  0.1888 -0.0880 -0.0509
11293W        W27102   9.307   4.489   4.067  0.1141 -0.0182 -0.3140
11294W        W27103  16.766   8.354   0.329  0.1044 -0.0461 -0.0549
11295W        W27104   8.404   0.791   1.253  0.0599  0.2268 -0.0833
11296W        W27105   1.674   0.357   1.418  0.0979 -0.1664  0.1997
11297W        W27106  11.440   8.477   2.732 -0.0748 -0.0818 -0.0229
11298W        W27107  14.642  16.263  14.104 -0.0319  0.0257  0.0435
11299W        W27108  13.708   7.937   4.098  0.1999  0.0028 -0.4471
11300W        W27109  16.134   7.557  10.367 -0.2097  0.2844  0.3216
11301W        W27110   1.327   3.000   2.819  0.2419  0.2100 -0.0974
11302W        W27111   3.118   7.536   5.602 -0.0393 -0.3430  0.0677
11303W        W27112  17.042   4.144  15.105 -0.1839  0.2777  0.3603
11304W        W27113   0.537  13.256   2.628  0.3436 -0.2893 -0.1745
11305W        W27114   3.646   7.428  12.514  0.3272  0.0321  0.1084
11306W        W27115   0.816  11.691   3.315 -0.2809 -0.3265 -0.2630
11307W        W27116  13.602   7.034   2.333 -0.0110 -0.2378 -0.1791
11308W        W27117   1.332  14.226  11.720 -0.0241  0.0095 -0.0218
11309W        W27118  14.679  18.777   4.283  0.1440 -0.3622  0.0809
11310W        W27119  11.629   5.025  13.886 -0.3458  0.0399  0.0230
11311W        W27120   0.692  16.783   3.377  0.1365  0.0576  0.1771
11312W        W27121  11.791   7.616   4.620 -0.1979 -0.0823 -0.0426
11313W        W27122   3.557   8.945  14.995 -0.0903  0.0457 -0.0022
11314W        W27123   3.175   2.491  14.262  0.1081  0.2793 -0.4832
11315W        W27124   5.692  18.474   4.748 -0.1096  0.0355  0.2764
11316W        W27125  12.063   3.990   2.741  0.1721 -0.3999 -0.0782
11317W        W27126   1.482   9.669  14.549  0.1393 -0.1558 -0.1627
11318W        W27127   7.962  13.267  13.652  0.2498  0.2742 -0.0900
11319W        W27128   7.007  12.174  10.145 -0.0561  0.2837 -0.1801
11320W        W27129  18.463   6.324   1.195 -0.2102 -0.5254 -0.0635
11321W        W27130  13.037   1.085  14.720 -0.1219  0.3719 -0.0015
11322W        W27131  15.593   4.103  12.046  0.1858  0.1586 -0.1645
11323W        W27132  16.025   0.240   3.522 -0.0019  0.2832 -0.3282
11324W        W27133  18.754  17.685  12.706  0.0747  0.3423 -0.3645
11325W        W27134   0.001  15.760   2.878 -0.0448  0.3548 -0.1696
11326W        W27135   5.638   1.844  14.825 -0.0623 -0.0376 -0.0032
11327W        W27136  14.271  17.452  13.773 -0.3896  0.0083  0.1158
11328W        W27137   8.847  17.157   3.783 -0.0085 -0.1070  0.2663
11329W        W27138  12.946   3.866  13.881 -0.3289 -0.1674 -0.0737
11330W        W27139   8.920  13.848   9.918  0.3015  0.0277 -0.1953
11331W        W27140   8.605  12.530   2.942 -0.2054  0.4841 -0.2164
11332W        W27141  11.304   2.624  12.968 -0.2174 -0.1259  0.3760
11333W        W27142  11.621   5.761   4.709  0.3994  0.0564  0.1547
11334W        W27143  16.160   0.902  13.972  0.1794  0.3725 -0.2903
11335W        W27144   4.062   2.906   4.130 -0.1998  0.1325  0.0429
11336W        W27145  14.788  14.582   2.926  0.2517  0.1187 -0.1254
11337W        W27146  13.234  18.977   2.838  0.0194 -0.1865 -0.1783
11338W        W27147   2.765  17.679   4.463  0.2013 -0.0538 -0.1426
11339W        W27148  18.112  16.287   2.576 -0.2274 -0.0223 -0.2052
11340W        W27149  13.725  13.474   4.143 -0.0528 -0.1460 -0.0173
11341W        W27150  10.028   0.032  13.041 -0.1733  0.1182  0.1415
11342W        W27151  17.637  11.542  11.268  0.0606  0.4158  0.0458
11343W        W27152   7.389  16.344   1.852 -0.3942  0.0810  0.0955
11344W        W27153  16.025  17.687   0.099  0.1638 -0.3224 -0.1695
11345W        W27154   3.719  11.655   4.581  0.1001  0.1609  0.0284
11346W        W27155  12.960   8.681   2.898 -0.1579  0.2840  0.0207
11347W        W27156   1.979  19.141  12.417  0.0561  0.0400  0.4080
11348W        W27157   8.035   3.719  14.363 -0.0905 -0.1217 -0.2283
11349W        W27158  11.716  16.885   4.716 -0.2848 -0.1102  0.0305
11350W        W27159  12.884   0.019   0.156  0.3171  0.0655 -0.2716
11351W        W27160  18.958   2.545   4.301 -0.0437  0.1276 -0.3817
11352W        W27161  12.451   6.579  10.840  0.0293  0.0473  0.1233
11353W        W27162   7.019  15.541  10.426 -0.2906 -0.1737  0.1314
11354W        W27163  13.881   4.033   1.900  0.2749 -0.1631  0.0978
11355W        W27164  14.818  15.311  11.751  0.1818  0.0579  0.0708
11356W        W27165   3.430  10.049  14.061 -0.4071 -0.1680  0.0224
11357W        W27166  16.235   0.263  13.786 -0.4065  0.0332  0.1221
11358W        W27167  17.716   3.830  14.065  0.0130  0.0781 -0.3498
11359W        W27168   4.884  10.581  12.168  0.0818  0.1218 -0.0321
11360W        W27169   8.546  16.628  12.012  0.0990  0.1398 -0.0983
11361W        W27170   3.025   5.842  13.428  0.0324  0.1482  0.1325
11362W        W27171  10.301  17.022  14.599  0.1858 -0.0120 -0.2097
11363W        W27172   0.138   5.640   2.249 -0.1963  0.1047  0.2077
11364W        W27173   9.796   7.707   0.343  0.0408  0.0637  0.2452
11365W        W27174  17.715  11.068  14.342 -0.0970 -0.0115 -0.0933
11366W        W27175  10.434  11.751   4.576  0.1588 -0.0576  0.0111
11367W        W27176   1.470   5.325   4.677 -0.2075 -0.0420 -0.0274
11368W        W27177   5.252   4.289  12.308  0.0100  0.1930  0.3555
11369W        W27178   1.972  12.238   2.085  0.0083  0.1112  0.5546
11370W        W27179  13.748   1.667   2.097 -0.4789  0.1356 -0.1135
11371W        W27180  13.915   0.814   3.792  0.3970 -0.0614 -0.0121
11372W        W27181   3.392   8.155   0.433  0.2172 -0.2078 -0.0328
11373W        W27182   4.968   4.514   4.914 -0.3456  0.0422 -0.1967
11374W        W27183  10.485   9.927  14.263  0.0866  0.0472 -0.2993
11375W        W27184  17.441  10.574   4.971  0.3301  0.0982 -0.2845
11376W        W27185   5.740   7.873   0.222  0.1194  0.0569  0.2352
11377W        W27186  18.983   4.210   3.848  0.1367  0.0312 -0.1206
11378W        W27187   7.534  10.441   1.011 -0.0566  0.0364  0.0126
11379W        W27188  16.607  18.082   5.355  0.1993  0.0124  0.1730
11380W        W27189  11.347  10.163   3.938  0.2550  0.2827 -0.1861
11381W        W27190   5.118   3.287   0.550 -0.1552  0.1436  0.0348
11382W        W27191  14.847  11.932  13.951 -0.0745 -0.0558  0.2186
11383W        W27192   9.979   5.835   4.107 -0.1027 -0.0759  0.0372
11384W        W27193  11.147  10.942  14.470 -0.0238 -0.0337  0.1415
11385W        W27194  10.367  12.129   2.247  0.4443 -0.4041 -0.2213
11386W        W27195   6.496   2.503   2.402 -0.0676 -0.3591 -0.7992
11387W        W27196   2.818   4.254  13.521  0.0852  0.0065 -0.0017
11388W        W27197   0.368   1.463   2.978 -0.1882  0.1728 -0.2125
11389W        W27198  11.842  18.513   4.108  0.2497 -0.1950 -0.1901
11390W        W27199   3.673  12.262  11.111 -0.3057  0.2411  0.3571
11391W        W27200  15.945   2.109  13.559  0.1081 -0.2637  0.2513
11392W        W27201   8.225   5.041   4.523 -0.2506 -0.3673 -0.2699
11393W        W27202  14.451   1.737  13.647 -0.0830  0.0351 -0.3091
11394W        W27203  17.741   7.057   1.235  0.0756 -0.0223 -0.0578
11395W        W27204  15.638  18.927   0.363  0.0819 -0.0583  0.1281
11396W        W27205   6.033   3.196   4.012  0.2644 -0.3356  0.1409
11397W        W27206  12.740   7.176  10.915  0.0401 -0.1574  0.0219
11398W        W27207   4.822  15.289   0.182 -0.1126 -0.2294 -0.1336
11399W        W27208  13.289   7.958   1.015 -0.1922 -0.1637 -0.2550
11400W        W27209  17.053  18.688   3.343 -0.3154  0.1079  0.1799
11401W        W27210  15.620   6.244   1.280 -0.0739  0.1835 -0.0994
11402W        W27211  17.327  10.620   1.017 -0.0125  0.2297 -0.2519
11403W        W27212  14.273  12.072  12.951 -0.1856  0.2034 -0.1280
11404W        W27213   4.951  14.334   4.972 -0.1282  0.0357 -0.0351
11405W        W27214  16.025   5.541  14.340  0.0864 -0.2675 -0.3352
11406W        W27215   4.243  15.513   1.546  0.1673  0.2853 -0.1674
11407W        W27216  16.653  10.437   9.606 -0.2317 -0.2728  0.0268
11408W        W27217  14.034  16.232  11.894  0.2211  0.0934 -0.0285
11409W        W27218   8.987  16.854   4.261 -0.0922  0.1929  0.0664
11410W        W27219  16.590   5.777  13.041 -0.2366  0.0084  0.2284
11411W        W27220   9.129  10.458   1.008 -0.0458  0.0407  0.2025
11412W        W27221   9.644   4.022   3.235 -0.1241 -0.3467  0.1027
11413W        W27222  15.673   7.319  12.291  0.0893  0.1336  0.0061
11414W        W27223   7.779  18.715   2.020 -0.1076 -0.2024 -0.2875
11415W        W27224   7.819   8.314  14.711 -0.3120  0.0510 -0.0258
11416W        W27225   4.997   4.410   9.005 -0.0578  0.0382  0.2311
11417W        W27226  13.041   1.729  15.178 -0.0906 -0.0567 -0.0864
11418W        W27227   3.789  10.973   0.267  0.2630 -0.1168 -0.1954
11419W        W27228   0.419  12.598   0.534 -0.0652  0.2977  0.2272
11420W        W27229  17.024  13.745   1.949 -0.0613  0.0316  0.3783
11421W        W27230  14.188   9.447   3.376 -0.0106 -0.1649  0.0015
11422W        W27231   2.963   8.574  13.742  0.1576  0.1379  0.0559
11423W        W27232   8.300   3.993  11.920  0.3874 -0.1695  0.0930
11424W        W27233  11.382  13.067   4.220  0.1632 -0.2128 -0.1115
11425W        W27234  16.639   3.042   4.260  0.2247 -0.1743  0.0180
11426W        W27235   1.229  19.115  15.108  0.2031 -0.1909  0.0871
11427W        W27236  18.940   0.061   2.554  0.3491  0.1069  0.1104
11428W        W27237   4.684  14.849  11.681  0.0714 -0.0637 -0.2567
11429W        W27238  14.230  17.277  11.566 -0.1698 -0.0051  0.1773
11430W        W27239   2.329  10.791  10.192 -0.0134 -0.0041  0.1564
11431W        W27240  13.967   7.651  12.233 -0.1123  0.0791 -0.0026
11432W        W27241   1.987   0.139   0.207  0.1457 -0.0360  0.1609
11433W        W27242   0.234   6.711  12.796  0.3038  0.0310  0.0951
11434W        W27243  13.888  18.332   1.983 -0.2147  0.1376 -0.0256
11435W        W27244  10.350   6.804   4.237 -0.2392  0.0136  0.0564
11436W        W27245  11.346  18.995   0.109  0.2796  0.0438  0.3192
11437W        W27246  12.847   4.766   1.004 -0.1038 -0.0089 -0.4095
11438W        W27247  14.415  15.200  12.079  0.3370  0.1077 -0.1532
11439W        W27248  11.821   2.262   5.735 -0.3037 -0.3991 -0.0522
11440W        W27249   4.766  11.429   3.832  0.1341  0.0668 -0.3015
11441W        W27250  17.858   1.609  13.756 -0.0869 -0.2264  0.2707
11442W        W27251   5.511  14.447  11.353  0.0510  0.0275 -0.3099
11443W        W27252  10.179   0.941  10.799 -0.2947 -0.1405 -0.3351
11444W        W27253  11.835  16.877   2.489 -0.3705 -0.1523  0.1570
11445W        W27254   7.402   9.066   5.301  0.2531  0.0154 -0.2502
11446W        W27255   9.243   1.162  13.732 -0.4937 -0.1639  0.1601
11447W        W27256  12.947   7.603  11.021  0.1868  0.2738 -0.1488
11448W        W27257  13.373   4.797   9.427  0.1221  0.1433  0.1282
11449W        W27258  10.679  12.430  14.539 -0.1552  0.1771  0.2657
11450W        W27259  14.025  18.941   3.510 -0.1852 -0.3897 -0.1189
11451W        W27260  11.592   3.960  12.745 -0.1140  0.0156  0.2317
11452W        W27261  11.197  12.536  13.935 -0.5004  0.0016  0.1067
11453W        W27262  13.586   3.330   1.829  0.3839 -0.0910  0.0327
11454W        W27263   9.246  17.471   3.958 -0.1993  0.1290  0.0178
11455W        W27264  10.942  14.210   5.997 -0.1520 -0.0889 -0.0290
11456W        W27265  15.240  17.267  13.101  0.0507 -0.0109  0.1242
11457W        W27266  10.051   7.079  10.234 -0.0395  0.0121  0.2660
11458W        W27267  16.925   4.048   4.267 -0.0330  0.0914  0.2315
11459W        W27268  15.152  13.802   0.423 -0.0134 -0.2568 -0.3440
11460W        W27269   2.663  11.384  12.007  0.1982  0.1894  0.0154
11461W        W27270  18.342   5.234  14.533  0.0939 -0.4157 -0.0568
11462W        W27271   5.750  14.436   4.118  0.1589 -0.1725  0.0414
11463W        W27272  17.125   9.817   2.084 -0.2080  0.0054 -0.0784
11464W        W27273   8.352  15.504   1.303  0.0046 -0.1746 -0.0777
11465W        W27274  10.922  18.826   5.936 -0.1724  0.0511  0.1006
11466W        W27275   8.350   8.774   2.069  0.2089  0.1325  0.0222
11467W        W27276  15.297   0.354   2.450 -0.1854 -0.2350  0.2259
11468W        W27277  10.010  17.974   2.202  0.3108 -0.0949 -0.4303
11469W        W27278   6.461   4.569  13.200  0.0594  0.3318 -0.1695
11470W        W27279  16.897  10.581   4.789  0.1439  0.3174  0.1075
11471W        W27280   8.281   7.797   2.328  0.0042  0.1393  0.0131
11472W        W27281   7.678  11.196   4.330  0.0646 -0.1563 -0.0556
11473W        W27282  16.765   8.313  15.041  0.1339  0.0010 -0.0423
11474W        W27283   5.230   2.527   2.916 -0.2761  0.0745 -0.0378
11475W        W27284   9.914   1.676   1.425 -0.4040  0.3068  0.0232
11476W        W27285  18.659  11.913  14.960 -0.1199 -0.0250  0.2449
11477W        W27286  17.937  11.009   2.279  0.2873  0.2125 -0.2845
11478W        W27287  10.982  17.352   0.166  0.2115  0.0798  0.1231
11479W        W27288  10.133   8.340  12.479 -0.0493  0.1141 -0.1112
11480W        W27289  14.185   9.071  11.438  0.0105  0.5103  0.1985
11481W        W27290  12.684   7.834  11.851 -0.2484  0.1650 -0.3586
11482W        W27291  12.947  12.069  14.109 -0.1039  0.0268  0.3542
11483W        W27292  14.993   2.834  13.995 -0.1126 -0.1124 -0.1019
11484W        W27293  14.859   8.126   0.952  0.1777  0.0927  0.1487
11485W        W27294   7.497   8.579  13.302 -0.1592 -0.2126 -0.1196
11486W        W27295  10.081   5.191  11.548  0.0875  0.2246  0.2633
11487W        W27296   5.075  18.924  10.163 -0.1597  0.1045  0.2074
11488W        W27297   5.954  16.244   2.180 -0.0604  0.1673 -0.4590
11489W        W27298  10.801  18.486   1.863 -0.4380 -0.2980 -0.0117
11490W        W27299  15.679   6.427   5.119 -0.4156  0.0441  0.0589
11491W        W27300   8.460  18.784   5.076  0.3837 -0.0065 -0.2453
11492W        W27301   9.826  17.400  14.469 -0.5081  0.0889 -0.0260
11493W        W27302   2.868  19.042   3.323 -0.5191  0.2508 -0.2154
11494W        W27303   9.007  16.837  14.946  0.0075  0.1099 -0.2030
11495W        W27304   3.513   2.520  13.324 -0.2563 -0.3066 -0.0506
11496W        W27305   4.651  15.472   5.389  0.2253  0.1937 -0.0322
11497W        W27306   1.631  17.694   1.107  0.4007  0.1153 -0.1211
11498W        W27307  18.199   8.586   4.201 -0.0496 -0.3750 -0.0561
11499W        W27308  17.918   0.551   0.471  0.2553  0.1367 -0.2387
11500W        W27309  18.619   8.377   4.672 -0.2356 -0.0146 -0.0623
11501W        W27310  15.521  13.799  10.591 -0.1664 -0.1092 -0.0360
11502W        W27311   6.232  13.419   5.512  0.2322  0.0752 -0.4191
11503W        W27312   0.389   3.400   2.292 -0.0150 -0.2650  0.1226
11504W        W27313  16.432   8.980  12.192  0.2450 -0.0959  0.0602
11505W        W27314   6.021  18.757   4.444 -0.3394 -0.0843 -0.1091
11506W        W27315   6.437   3.677  11.603  0.2321  0.1892 -0.0661
11507W        W27316   3.642   5.368   2.404 -0.2302  0.1675  0.0604
11508W        W27317  12.210  18.335  14.604  0.2837 -0.0754 -0.2116
11509W        W27318   1.937  16.380  14.184  0.3519  0.3242 -0.1947
11510W        W27319  13.472  13.476   5.401 -0.2169 -0.2087  0.0193
11511W        W27320   4.073  15.962   9.987 -0.2019  0.0159 -0.2301
11512W        W27321   5.944  18.932  12.880  0.0052 -0.2232 -0.0250
11513W        W27322  10.337  17.669  14.077 -0.3251 -0.0597  0.1484
11514W        W27323   3.571   7.430  11.855 -0.0327 -0.2737 -0.2594
11515W        W27324   4.161   7.314  15.096  0.2542 -0.0496 -0.1583
11516W        W27325  13.461   4.149  14.926  0.0682  0.1280  0.1920
11517W        W27326   2.616   2.688  10.432 -0.0652 -0.2816 -0.0932
11518W        W27327  18.486   9.277   1.941 -0.2196 -0.0369 -0.0362
11519W        W27328  17.511  17.608  13.361 -0.0160  0.0348  0.2232
11520W        W27329   7.663  16.327   2.748  0.1904  0.0759 -0.1164
11521W        W27330  16.294  17.832   4.375 -0.0670  0.1625  0.3721
11522W        W27331  16.768   8.660  12.634  0.1502  0.2043  0.0803
11523W        W27332   0.292   8.958   4.576 -0.0927 -0.0495  0.2712
11524W        W27333   3.970   6.688  12.047 -0.0764  0.2694  0.0653
11525W        W27334   7.068  18.508  11.300 -0.0774  0.1748 -0.0866
11526W        W27335   1.642   4.801   1.029 -0.0239 -0.0568  0.2741
11527W        W27336   3.066   6.641  15.147 -0.3008  0.1850 -0.1038
11528W        W27337  15.842  14.082   5.434 -0.0326  0.0068  0.1728
11529W        W27338  17.074  14.408   9.646 -0.0533  0.0057  0.1106
11530W        W27339   0.288   1.751   0.710  0.3937  0.0997 -0.0351
11531W        W27340   5.565   9.607  14.725  0.0239  0.0542  0.1472
11532W        W27341   3.762  11.108   1.182  0.2127  0.0772 -0.3515
11533W        W27342   4.291  13.183  14.016  0.0958  0.1024 -0.3006
11534W        W27343   2.230  18.400   9.565 -0.0491 -0.5265  0.4262
11535W        W27344  11.875  11.168  14.048 -0.3666  0.1691 -0.0486
11536W        W27345  15.307  17.194  11.862 -0.2294 -0.1776 -0.1644
11537W        W27346  16.541   3.163   4.804  0.2071 -0.2153 -0.0623
11538W        W27347  15.298   4.751   3.068  0.0321 -0.2691 -0.1692
11539W        W27348  19.099   1.066   1.357  0.2165  0.3739  0.1708
11540W        W27349   2.987  16.953   0.362 -0.3024 -0.2897  0.0164
11541W        W27350   9.528   5.234   2.580  0.1764  0.2661 -0.0658
11542W        W27351  18.252  17.185   4.415 -0.4824 -0.4843 -0.2919
11543W        W27352  18.396  12.610  10.448  0.1730 -0.1410  0.1842
11544W        W27353  15.690   9.460   0.449 -0.0708 -0.4006 -0.1688
11545W        W27354   2.355   8.085  11.081 -0.2292  0.0640 -0.0111
11546W        W27355   7.309   6.274   1.185  0.0778  0.2915 -0.1240
11547W        W27356  17.385  16.551  14.494 -0.0544  0.0445  0.2559
11548W        W27357   6.818  11.265  13.239  0.2050  0.0728  0.0591
11549W        W27358   3.886  12.474  12.255  0.0929 -0.1326  0.0584
11550W        W27359  15.917   7.091   5.007 -0.0582  0.3091  0.4185
11551W        W27360  14.077   1.761   0.174  0.1007 -0.2465  0.3812
11552W        W27361   6.867   8.478   3.907  0.0966 -0.1582  0.2587
11553W        W27362  17.616  14.295   0.056 -0.0985 -0.0919 -0.0625
11554W        W27363   2.739   8.341   1.963 -0.1455  0.1786 -0.3363
11555W        W27364  10.766  19.135   0.194 -0.0488  0.3922  0.1816
11556W        W27365   4.031  10.571  12.462  0.2232  0.0242  0.1039
11557W        W27366  11.528   2.093   4.709 -0.0171  0.1254  0.0108
11558W        W27367   3.420  13.628  10.427 -0.1563  0.1719  0.0561
11559W        W27368   6.153   1.298   2.764 -0.2533  0.2800  0.3323
11560W        W27369  10.460   3.120   0.042 -0.0329  0.2643  0.3263
11561W        W27370  11.020   1.953  13.887 -0.2996  0.1394  0.1317
11562W        W27371   2.865  16.760  10.992  0.3119 -0.0199  0.2745
11563W        W27372  11.743  17.955   0.966  0.3758 -0.3119 -0.0758
11564W        W27373   2.795   7.650   1.008  0.0766 -0.2173 -0.2671
11565W        W27374  13.463  11.725   4.711  0.1895 -0.1811 -0.1294
11566W        W27375  15.836   5.636  10.993  0.0723  0.2906 -0.0251
11567W        W27376  14.552   1.654   1.446  0.3059 -0.2017 -0.3805
11568W        W27377  16.405  11.401  13.662 -0.1607 -0.2272  0.0833
11569W        W27378   5.353  18.826   1.437  0.0334  0.0498  0.0477
11570W        W27379  10.296  10.985   5.042  0.1761 -0.0444 -0.1416
11571W        W27380   2.141  18.561   3.347 -0.1499 -0.0823  0.2102
11572W        W27381   6.628  11.995  12.034  0.0036 -0.1736  0.0158
11573W        W27382  12.660  17.706  11.439 -0.1797 -0.0079  0.1283
11574W        W27383   7.224  14.925   0.484 -0.2574 -0.0421 -0.2620
11575W        W27384   9.733   6.210  13.232 -0.0200  0.0110 -0.0593
11576W        W27385   4.467   1.294  10.276 -0.3071  0.2650 -0.1340
11577W        W27386   8.969   5.267   3.827 -0.0649  0.1891  0.0448
11578W        W27387  12.403   5.911   1.720  0.1993 -0.0558  0.2482
11579W        W27388   3.253  16.733  13.336  0.2074 -0.1425  0.0346
11580W        W27389  18.594  17.057  14.444  0.2321  0.0964  0.1071
11581W        W27390   8.111   1.149  13.780  0.0004  0.1883  0.0828
11582W        W27391  13.244  15.793  10.891  0.3823 -0.1014  0.0957
11583W        W27392   1.309   8.454  10.998  0.3695  0.3366  0.1962
11584W        W27393  11.788  11.135   6.003 -0.1288 -0.0557 -0.2153
11585W        W27394  15.714  10.642  11.786 -0.0636 -0.0043 -0.2042
11586W        W27395   3.054   6.095   4.357  0.0669  0.3474 -0.3515
11587W        W27396   8.781  12.008  12.848  0.2515  0.0039  0.0240
11588W        W27397   4.955  15.066   2.970 -0.1382 -0.1101 -0.2194
11589W        W27398   7.462   1.156  12.150  0.1449 -0.1096 -0.4926
11590W        W27399  13.726   3.118  12.932 -0.0714 -0.1946 -0.0723
11591W        W27400  16.108   2.797  15.102 -0.1034  0.5458 -0.1213
11592W        W27401   4.295  12.634   4.886  0.0187 -0.1252 -0.1315
11593W        W27402  14.389  12.809  13.548 -0.1062  0.1356  0.0971
11594W        W27403   6.632  15.647   5.396 -0.0976 -0.1903 -0.0720
11595W        W27404   2.901  11.367  15.180  0.0738 -0.0319 -0.1182
11596W        W27405  12.916  15.074   3.087  0.1072 -0.0440  0.2368
11597W        W27406   9.636   7.835  15.045  0.3659 -0.1158  0.2038
11598W        W27407   8.228  16.002  11.221 -0.2082 -0.0533  0.1665
11599W        W27408  18.737   2.224   0.170  0.0613  0.7308  0.0937
11600W        W27409   9.230  14.792   2.659  0.1818  0.2037 -0.0668
11601W        W27410   3.904   5.032   0.782  0.1602  0.0627  0.0573
11602W        W27411   6.732   7.557   3.504  0.0872  0.0983  0.2281
11603W        W27412  14.199   8.976  13.373 -0.0658  0.0427  0.1281
11604W        W27413  11.432  16.384  13.568 -0.3388  0.0084 -0.2227
11605W        W27414   6.818  17.858   3.501 -0.0733 -0.3384 -0.0988
11606W        W27415  12.605  17.486  13.218 -0.0955 -0.1797 -0.0113
11607W        W27416   8.495   3.558  11.797  0.0632  0.2037 -0.1725
11608W        W27417  17.938  15.111   3.539  0.1812  0.0270 -0.1697
11609W        W27418   3.820  18.694   4.160 -0.1385  0.2680  0.1053
11610W        W27419   8.043  13.265  10.072 -0.1972 -0.0717 -0.1821
11611W        W27420   8.399  14.897   3.379 -0.1247 -0.0229  0.1478
11612W        W27421  10.653  14.718  11.289  0.1208  0.1265 -0.1545
11613W        W27422   2.714   0.957   1.126 -0.4861  0.0719  0.0338
11614W        W27423   3.784  14.770   0.930  0.1720  0.1547 -0.1645
11615W        W27424  11.072  17.330  10.992  0.1949  0.0156  0.1812
11616W        W27425  14.106  18.169   4.150 -0.1520  0.2029  0.0055
11617W        W27426  15.520  15.211   5.748  0.3336 -0.0203 -0.4191
11618W        W27427  13.090   9.244  14.872 -0.1627  0.5229 -0.1463
11619W        W27428   8.928  15.742   0.482  0.5763  0.1651 -0.3333
11620W        W27429   3.248   3.640   1.819 -0.3266  0.5008 -0.1029
11621W        W27430  16.805   4.799  13.454 -0.3864 -0.0137  0.1047
11622W        W27431   1.354   9.167  13.159  0.0231  0.0964 -0.3112
11623W        W27432  12.980  14.574   3.310  0.1027 -0.3414  0.2365
11624W        W27433   1.908  17.324   1.093 -0.1259 -0.2098 -0.0422
11625W        W27434  11.680   0.443  14.600  0.0553  0.1983 -0.1420
11626W        W27435  12.216   6.431   3.272  0.1237  0.3049  0.0048
11627W        W27436  13.030   9.158   0.179 -0.1485  0.1615 -0.0069
11628W        W27437  18.581   8.120  12.750 -0.3313 -0.0265  0.0929
11629W        W27438  11.002   6.046  11.923 -0.2938 -0.3142 -0.4997
11630W        W27439  12.605   9.288   1.535 -0.2143 -0.0422 -0.0460
11631W        W27440   8.242  15.260   5.046  0.0364 -0.0980 -0.2624
11632W        W27441   1.737   7.571   0.147  0.4169  0.0731 -0.2247
11633W        W27442   3.017  15.429  13.218 -0.0620  0.3217 -0.2096
11634W        W27443   6.738   2.408  14.719  0.0491 -0.2765 -0.0656
11635W        W27444   5.445  16.362  11.990 -0.0774  0.0059 -0.0319
11636W        W27445   9.627   2.226  14.477  0.2572 -0.0413 -0.0588
11637W        W27446   8.553   4.773   0.269 -0.0989 -0.0079  0.0752
11638W        W27447  11.672   4.444   1.854 -0.0389  0.0778  0.0744
11639W        W27448   4.073   8.446  13.407  0.1953  0.0136  0.2477
11640W        W27449   3.840   3.561  12.785 -0.1827  0.2170  0.0628
11641W        W27450   5.179  13.662   1.831  0.1217  0.1588  0.3272
11642W        W27451   4.578  10.208  10.845 -0.2468 -0.0943  0.0396
11643W        W27452  11.785   9.394  11.602  0.0397 -0.3075  0.1726
11644W        W27453   6.940  18.561   9.814  0.1499 -0.1177  0.3710
11645W        W27454   3.125  11.589   5.112 -0.2606  0.3403 -0.0745
11646W        W27455  12.210  10.544   1.588  0.2798 -0.0434  0.0965
11647W        W27456   2.863  12.754  11.198 -0.2315 -0.4858  0.2291
11648W        W27457  15.590  17.127   0.828  0.0831 -0.0577  0.2111
11649W        W27458  12.207   5.319  12.786 -0.0748 -0.0441  0.1245
11650W        W27459  18.359  17.816  13.732  0.3923 -0.3077 -0.3081
11651W        W27460   8.458   8.489   3.151 -0.1444 -0.1904 -0.1415
11652W        W27461   7.924  10.484  14.883  0.0250  0.0371 -0.0659
11653W        W27462   4.701  14.254   2.776  0.0151  0.0946  0.1652
11654W        W27463  11.650  16.849  13.791  0.0410 -0.1830  0.0344
11655W        W27464  12.924  11.658   4.377  0.2028  0.0349 -0.1285
11656W        W27465   3.673  10.902  11.568  0.2500 -0.3389  0.3284
11657W        W27466   6.833  14.899  12.844 -0.1401  0.0220 -0.2183
11658W        W27467  13.274  14.518   3.744  0.1655 -0.1777  0.0529
11659W        W27468  16.800   8.600   4.944  0.1833  0.0951  0.0800
11660W        W27469  13.649   8.611   3.062  0.3471 -0.1064 -0.1120
11661W        W27470  17.720   8.442  11.146  0.2724  0.2686  0.1053
11662W        W27471  14.230   2.685  11.899 -0.1565 -0.0694  0.0220
11663W        W27472  17.519   1.319   5.262 -0.2469  0.1587 -0.0947
11664W        W27473   1.868  17.643   0.615  0.2401 -0.1361  0.1135
11665W        W27474   6.771  10.889  11.293  0.1398  0.0340 -0.1828
11666W        W27475   7.482  16.723  11.281 -0.0277  0.0979 -0.0615
11667W        W27476   0.760  15.074   3.975 -0.2491 -0.3907 -0.4208
11668W        W27477   9.231   1.746   2.470  0.2071 -0.1245 -0.1823
11669W        W27478   5.851  11.151   3.145 -0.2663  0.1830 -0.1169
11670W        W27479  12.768   5.288  13.227  0.0709  0.0212  0.0524
11671W        W27480   0.769   4.184  14.729 -0.2772  0.0057 -0.2086
11672W        W27481  13.402  17.910  13.109 -0.2495 -0.2148 -0.1818
11673W        W27482  16.880   7.913  11.994 -0.1920 -0.2368  0.1643
11674W        W27483   0.154   8.972   3.599 -0.1508 -0.0469 -0.0769
11675W        W27484   1.133   4.894   4.549  0.1513 -0.1102  0.1324
11676W        W27485   3.190  17.883   4.040 -0.0858  0.0313  0.0189
11677W        W27486   8.247  12.362  13.764  0.1532 -0.0348  0.0880
11678W        W27487  14.862  12.566   2.918  0.1937 -0.5375  0.1421
11679W        W27488   8.799  14.534   2.026  0.3273  0.0782 -0.0704
11680W        W27489   5.101   1.016  14.942  0.0299 -0.0942 -0.1700
11681W        W27490  18.510   9.958  12.943 -0.3698  0.0305 -0.0096
11682W        W27491   9.013  14.304  12.190 -0.1727 -0.1591 -0.2744
11683W        W27492  14.622   7.341  10.886  0.1430  0.0543  0.2189
11684W        W27493  11.993  11.888  14.568 -0.0709  0.2156 -0.1153
11685W        W27494   3.468  12.790  12.274 -0.1392 -0.0223 -0.0821
11686W        W27495   8.926   9.992  11.880 -0.1327  0.1593 -0.0254
11687W        W27496   4.228  17.324   0.914  0.1022  0.0167 -0.2076
11688W        W27497  15.051   2.843   3.877  0.1237  0.4168  0.2922
11689W        W27498   6.146   1.975  13.628  0.1076 -0.0906  0.0780
11690W        W27499  12.740   2.863  14.573 -0.1000 -0.1063  0.1121
11691W        W27500  17.836  18.075   3.221 -0.1090  0.0508 -0.1198
11692W        W27501   6.909  18.849  13.124 -0.2442  0.0381 -0.1618
11693W        W27502   4.042  10.820   3.502 -0.6019 -0.1957 -0.0539
11694W        W27503  10.952  17.860   0.331  0.0158 -0.2336  0.5223
11695W        W27504  16.289  11.051  12.264 -0.2752 -0.1972  0.0033
11696W        W27505  11.616  15.146  13.968 -0.0559 -0.1343  0.3298
11697W        W27506  12.477  18.523   2.083  0.1793 -0.0266 -0.1757
11698W        W27507  16.419  13.360  14.829  0.2259 -0.0152 -0.1896
11699W        W27508   6.433  16.887  11.755  0.0624  0.1046 -0.2547
11700W        W27509  17.712  11.486  12.776  0.0401  0.1264  0.3436
11701W        W27510   9.000  10.722  11.904 -0.0583 -0.0544 -0.2582
11702W        W27511   6.281   0.192  11.121 -0.2373 -0.2009 -0.2714
11703W        W27512  16.335  16.479   4.613  0.5033 -0.1175 -0.0972
11704W        W27513  18.801   5.194   2.558 -0.0232  0.2796  0.1591
11705W        W27514  12.790  15.485  11.088 -0.0019 -0.0308  0.0964
11706W        W27515   8.750  17.783  11.918 -0.3256  0.0900  0.2611
11707W        W27516   9.852   5.525   3.300  0.0684  0.1821  0.0718
11708W        W27517   1.889   7.496   4.191  0.0927 -0.0411 -0.4142
11709W        W27518   5.632  13.649  11.193 -0.1104  0.0915  0.1359
11710W        W27519   2.942  13.257   1.929 -0.1521  0.2882 -0.1872
11711W        W27520  12.738  12.667  13.624  0.0505  0.0090 -0.1411
11712W        W27521   0.286  12.107   0.380  0.0929 -0.0203 -0.4666
11713W        W27522  14.568   0.787  11.618  0.6608 -0.0683  0.0022
11714W        W27523   0.133  12.824  11.337 -0.0264 -0.2627  0.0420
11715W        W27524  16.804  12.897   2.434 -0.0970  0.1128  0.0356
11716W        W27525   9.520   9.652   2.373 -0.2202 -0.0779 -0.1586
11717W        W27526   6.892   7.881  15.200 -0.1809  0.0754 -0.2538
11718W        W27527   1.590   9.532  13.977 -0.1837  0.4261 -0.0109
11719W        W27528   1.415   6.895  11.294 -0.2616 -0.1317  0.0227
11720W        W27529   6.921  11.050  10.468  0.1061 -0.0316 -0.2664
11721W        W27530  17.499  15.533  14.520 -0.2742  0.0022  0.3162
11722W        W27531  12.417   7.809  10.975 -0.1144 -0.0593  0.2898
11723W        W27532   4.390  18.076   5.306 -0.1856  0.1418 -0.2598
11724W        W27533  13.003  13.244   2.207  0.4294  0.2081 -0.0860
11725W        W27534   0.159  13.371   4.936  0.4479  0.0711 -0.0631
11726W        W27535   5.377  13.428  10.418 -0.1014  0.1029  0.2713
11727W        W27536  14.289   7.362  11.338  0.1922  0.0794 -0.2384
11728W        W27537  17.990   2.745  11.347  0.0862  0.1359 -0.0417
11729W        W27538   1.715  15.903   4.606 -0.0090 -0.0494  0.1363
11730W        W27539   9.680  11.328  13.924 -0.1589  0.1166 -0.2204
11731W        W27540  15.653  10.049  10.511  0.0755 -0.1766 -0.0295
11732W        W27541  16.742   6.114  12.171  0.2856 -0.0391 -0.2466
11733W        W27542   2.457  10.014  14.248  0.2593 -0.2527  0.4540
11734W        W27543   7.421   1.361   2.370 -0.1381  0.2091 -0.2358
11735W        W27544   2.758   2.005   4.238 -0.3055  0.1424  0.0149
11736W        W27545  13.768   1.402  10.564  0.2433 -0.1696  0.0986
11737W        W27546   2.837  11.159   5.125 -0.0706  0.1098  0.0636
11738W        W27547   9.726   9.343   2.015 -0.1867 -0.0678 -0.1049
11739W        W27548   1.428   2.930   9.922  0.1265  0.2204 -0.1261
11740W        W27549  15.735  12.736   2.599 -0.2213 -0.1595 -0.1304
11741W        W27550   0.779  11.639  11.667 -0.1843 -0.1308  0.1701
11742W        W27551   3.467   3.995  12.818 -0.0943 -0.0440  0.0026
11743W        W27552   4.485  10.015   4.330  0.0850  0.0202 -0.2976
11744W        W27553   5.348   0.621   0.112 -0.2020  0.0237  0.4063
11745W        W27554   5.465  11.148  15.065 -0.0869  0.3499 -0.0474
11746W        W27555   8.884  12.543   4.513  0.2373 -0.0968 -0.0294
11747W        W27556  11.802   8.820   4.097 -0.0302 -0.3601 -0.0822
11748W        W27557   1.842  13.851  10.628  0.3990  0.2122 -0.1837
11749W        W27558  12.309   3.096   3.044  0.0519  0.1020  0.2566
11750W        W27559   5.605   9.245   1.566  0.1779 -0.3224 -0.2005
11751W        W27560   4.532   5.470  11.812  0.1224 -0.0448  0.1476
11752W        W27561   4.272   3.757  11.001  0.0278 -0.3141  0.3574
11753W        W27562   5.509   8.438  12.584 -0.1268 -0.0277 -0.2277
11754W        W27563   6.059   1.063  12.477  0.2689 -0.0011 -0.0166
11755W        W27564  14.143   8.677   3.046 -0.2066  0.1675  0.0386
11756W        W27565   4.359  10.535  11.992  0.0366 -0.1882  0.1539
11757W        W27566   7.390   6.327  14.518  0.0138 -0.4321 -0.3741
11758W        W27567  13.959   6.453  13.008  0.1938  0.2911 -0.0076
11759W        W27568   6.618   7.652  11.666 -0.2430 -0.1117  0.1018
11760W        W27569   9.814  14.380   4.901 -0.1417  0.1877  0.0466
11761W        W27570   4.381  12.679   1.294  0.2471 -0.1601  0.3005
11762W        W27571  12.243  10.702   5.200 -0.0215  0.0090  0.2775
11763W        W27572   1.937   0.307   2.633 -0.1270 -0.1933 -0.0034
11764W        W27573  14.691   7.124  11.478  0.3536 -0.3617 -0.2122
11765W        W27574   5.478   3.766  12.839 -0.3795  0.2104  0.1405
11766W        W27575   2.155   3.096   3.370  0.0369  0.1187  0.0579
11767W        W27576   6.780  14.311  12.629 -0.1370 -0.1202  0.1315
11768W        W27577   7.767  17.258  10.268 -0.0313 -0.1188  0.3073
11769W        W27578  12.421   1.349   2.578  0.4238 -0.1418 -0.4561
11770W        W27579   7.291   2.702   2.633 -0.1276 -0.1426 -0.0060
11771W        W27580  13.922   8.501   9.363 -0.0813 -0.1875  0.2436
11772W        W27581  14.281  17.941   1.983 -0.0683  0.2013 -0.1698
11773W        W27582   8.694   5.838  10.773 -0.0804 -0.0260  0.0827
11774W        W27583   5.747   0.963  10.979 -0.3526  0.1995 -0.2435
11775W        W27584  13.152  14.921   5.577 -0.0001  0.0968 -0.1178
11776W        W27585  13.014  12.330  11.143 -0.1328 -0.1290  0.2109
11777W        W27586  18.725  10.451   2.419 -0.2380  0.0717 -0.1640
11778W        W27587  11.069   0.975   5.158  0.0895 -0.1275  0.3714
11779W        W27588  16.721   2.435  11.430  0.1142 -0.2651  0.0513
11780W        W27589  11.009  13.891   5.138  0.2614 -0.0313  0.3836
11781W        W27590  14.079  15.541   4.495 -0.1499 -0.3018  0.3051
11782W        W27591   3.222  18.492  14.614  0.2845 -0.0870  0.0175
11783W        W27592   9.771   2.069   1.721 -0.1717 -0.1283  0.1075
11784W        W27593  15.075  16.425  12.593  0.0353 -0.1159 -0.3100
11785W        W27594  10.860   5.813   9.453 -0.0745 -0.0923  0.1855
11786W        W27595   0.433   7.555  10.283 -0.1900  0.4847 -0.0315
11787W        W27596   1.988  13.658  12.566 -0.0649 -0.2464 -0.1469
11788W        W27597   6.745  17.797  10.820 -0.2480  0.3448 -0.0070
11789W        W27598   9.074  17.331  12.739  0.0304  0.0968 -0.2273
11790W        W27599   4.900   4.151   0.137  0.0077  0.2755  0.1525
11791W        W27600   3.161   2.521   4.838 -0.1074  0.1603 -0.0409
11792W        W27601  11.555  13.442   1.247  0.1897  0.1503 -0.3271
11793W        W27602   1.540   7.137   4.231  0.2519  0.1035 -0.2207
11794W        W27603   5.040   0.228   3.923 -0.1604 -0.1942  0.2225
11795W        W27604  10.575   1.129   4.821 -0.3111  0.1100  0.0559
11796W        W27605   5.472   7.057   3.366 -0.1718 -0.3357  0.1206
11797W        W27606   6.082   7.648   2.361 -0.1042 -0.0777 -0.1510
11798W        W27607   5.028   4.376  10.957 -0.2198  0.0308 -0.3415
11799W        W27608   6.139   0.770  11.287  0.2282  0.3123 -0.1842
11800W        W27609  10.572   6.339  13.955 -0.1720  0.1412  0.4626
11801W        W27610  12.706   9.841   4.749  0.0928  0.3314 -0.0414
11802W        W27611  16.169  12.873   1.533 -0.0309  0.1651 -0.0889
11803W        W27612   3.098   2.249  11.857 -0.0688 -0.2633 -0.0074
11804W        W27613   8.424   8.318   3.599  0.0131 -0.2561 -0.1292
11805W        W27614   3.573   0.784   2.351 -0.0036 -0.0365  0.2689
11806W        W27615   9.292   2.613   0.362 -0.1886 -0.2640  0.3901
11807W        W27616  13.110   3.204  14.748  0.0886  0.0108 -0.0158
11808W        W27617   9.264  17.952   2.661 -0.2059  0.2770  0.0636
11809W        W27618   2.179   7.314  12.455  0.1787  0.0481  0.1730
11810W        W27619   4.025   3.594  14.862  0.3170  0.0311 -0.0154
11811W        W27620  15.428   9.731   0.851 -0.1863 -0.2221  0.2587
11812W        W27621   0.096   5.355   9.386  0.0600 -0.1913  0.1530
11813W        W27622  14.632  11.661   0.379  0.0023  0.0505 -0.1506
11814W        W27623   2.016   2.357   3.439 -0.2091  0.0346 -0.2391
11815W        W27624  13.440  10.822  14.195  0.4725 -0.1627 -0.0001
11816W        W27625   2.576   3.231   1.071  0.1355 -0.0784 -0.3766
11817W        W27626   1.884  13.813   9.492  0.0006  0.4055  0.0434
11818W        W27627   9.136  13.096   3.580  0.2329  0.1217  0.0263
11819W        W27628   9.088   1.161  10.035 -0.2244  0.2902 -0.2592
11820W        W27629   9.275  11.380   0.902 -0.0665  0.2764 -0.1100
11821W        W27630  18.758  12.359   0.191  0.2239  0.0198  0.0166
11822W        W27631   9.702   5.913   9.596  0.0143 -0.1415 -0.2841
11823W        W27632   0.866  12.520  14.177 -0.0192 -0.0777  0.5205
11824W        W27633   0.544  11.447   1.934  0.0036  0.0504 -0.0908
11825W        W27634   0.759   4.777   1.745  0.0791 -0.0643 -0.1161
11826W        W27635  15.202   6.597   0.341  0.0440  0.2569 -0.0139
11827W        W27636   9.566  12.565   5.255  0.1522 -0.2809 -0.2453
11828W        W27637  10.781  14.211  13.705  0.2416 -0.0102 -0.2528
11829W        W27638  11.804   4.854   1.663  0.0982  0.0711  0.1186
11830W        W27639  13.202   6.089  13.235  0.1107 -0.2112  0.1914
11831W        W27640  13.612  10.055   4.534 -0.0842  0.0844 -0.2686
11832W        W27641   3.927   2.013   2.446  0.3485 -0.0645 -0.1081
11833W        W27642   8.618  16.516   3.839  0.0135 -0.1039  0.0849
11834W        W27643   2.973  15.834   3.583  0.0474  0.5047 -0.0282
11835W        W27644   6.248   7.039  15.076  0.3341  0.0705 -0.3840
11836W        W27645  10.252   1.929   3.371 -0.0602  0.3232  0.2948
11837W        W27646   3.458  10.820  10.805 -0.1871 -0.0477  0.0386
11838W        W27647   5.638  17.166   1.195  0.1205  0.0930 -0.0886
11839W        W27648   1.552   3.929  13.431 -0.2967  0.1347 -0.0043
11840W        W27649   6.899   9.714   2.535 -0.4629  0.1983  0.2984
11841W        W27650   0.952  14.921   4.750 -0.0795  0.0241  0.2188
11842W        W27651  15.927  16.041   4.903 -0.0732  0.0450  0.0445
11843W        W27652   7.663  15.906   3.632 -0.2279  0.1397  0.0342
11844W        W27653  18.348   3.137  13.182 -0.1423 -0.3540 -0.0497
11845W        W27654   0.797  10.905  13.347 -0.2489 -0.0288 -0.2162
11846W        W27655  14.497   6.335   3.710 -0.1137  0.1208 -0.1790
11847W        W27656   3.767   2.390  11.102 -0.1467 -0.3334  0.0283
11848W        W27657  16.594   1.404   1.179 -0.5391  0.0693 -0.0477
11849W        W27658   1.576  15.269  11.221 -0.1351  0.2680 -0.3822
11850W        W27659  10.901  16.495  13.729 -0.2893  0.2876 -0.2414
11851W        W27660  11.093  11.649  12.107 -0.1688 -0.1283 -0.0369
11852W        W27661  14.400   5.462   2.145 -0.2298 -0.0304  0.1636
11853W        W27662   6.459   9.835   2.596  0.0388  0.3470 -0.1796
11854W        W27663  14.297  10.678  11.506  0.0511 -0.0062 -0.0299
11855W        W27664   8.058  12.208   4.264 -0.0753 -0.0494 -0.0642
11856W        W27665   0.513  17.700   3.256  0.3440  0.0080  0.0735
11857W        W27666  16.801   4.476   1.435  0.0200  0.0853  0.1404
11858W        W27667  16.686   9.050  15.216 -0.3031  0.1329 -0.1712
11859W        W27668   0.918  17.806  10.662 -0.0286  0.2509  0.0765
11860W        W27669   1.414  12.731   2.062 -0.0485  0.1445  0.0040
11861W        W27670   8.294   9.099  13.873 -0.1578  0.2458  0.3473
11862W        W27671  15.919  12.608   4.840 -0.0830 -0.2253 -0.1058
11863W        W27672  10.434  12.995  12.069 -0.2828  0.2377 -0.0779
11864W        W27673  15.814  13.623  13.987  0.3280 -0.0643  0.2093
11865W        W27674  17.768  16.023  11.697  0.1405  0.0066  0.0931
11866W        W27675   8.118   5.747  10.238  0.0726 -0.1105  0.0666
11867W        W27676  13.122   4.542   5.095 -0.1518  0.1527  0.1293
11868W        W27677  19.078  19.147  14.731 -0.0492 -0.1142 -0.1384
11869W        W27678  11.909  16.438  13.871  0.1324 -0.4787  0.3555
11870W        W27679  18.823  11.364  14.843 -0.2519  0.3000  0.2382
11871W        W27680   1.639  15.930   3.670 -0.1568  0.3820 -0.2856
11872W        W27681   7.891  17.554  14.451 -0.1886 -0.1979 -0.0486
11873W        W27682   8.428  15.872   0.394  0.1144 -0.2912 -0.1921
11874W        W27683  18.410  10.006  14.515 -0.0365 -0.1377 -0.3195
11875W        W27684   7.041   8.970   4.170 -0.1141 -0.1727  0.1555
11876W        W27685  19.045   4.829  12.602 -0.0905 -0.1092  0.0237
11877W        W27686   8.730  15.679  12.624 -0.1100 -0.1592 -0.0215
11878W        W27687  10.821   4.320  10.454  0.2142 -0.2858  0.0338
11879W        W27688   4.555   3.122   4.052  0.3900  0.0589  0.2874
11880W        W27689   1.858  15.893  12.722 -0.1688 -0.2737  0.2466
11881W        W27690   8.161   2.495   3.736  0.2078 -0.0149 -0.0777
11882W        W27691   5.810  15.895  12.780 -0.1842  0.4145 -0.0033
11883W        W27692   9.423   1.014   4.806  0.1774  0.1222  0.4027
11884W        W27693   2.101   6.525   2.632  0.2848 -0.1207 -0.3654
11885W        W27694   4.036   3.447   9.322 -0.2021  0.1019  0.3085
11886W        W27695   1.591  11.936  10.955  0.0400 -0.2103  0.2851
11887W        W27696  16.220  16.865   4.962  0.0118 -0.0184 -0.1232
11888W        W27697   5.185  19.125  12.308  0.0333  0.0067  0.1917
11889W        W27698   6.406   2.318   3.008 -0.4728 -0.1900 -0.0905
11890W        W27699   3.029   0.486  14.660  0.2641 -0.0644  0.1017
11891W        W27700   5.995   9.160  14.774 -0.1814  0.2161 -0.0853
11892W        W27701   6.588  15.406  13.378 -0.1694 -0.1836  0.1604
11893W        W27702   0.104  15.270  14.977  0.2353 -0.1643 -0.0165
11894W        W27703  16.982  13.427  13.355  0.0116  0.1209  0.0680
11895W        W27704   8.261   9.662   3.026 -0.0849  0.1419  0.4478
11896W        W27705  16.875  18.164   4.479 -0.2311 -0.0139  0.2780
11897W        W27706   9.606   0.927  10.848 -0.1922  0.1111 -0.1593
11898W        W27707  10.603   3.148  11.150  0.0683 -0.1482  0.0668
11899W        W27708  10.950  14.080   0.363 -0.0487  0.1195 -0.6063
11900W        W27709   5.944   3.498   4.499 -0.2314  0.2063  0.0101
11901W        W27710  18.356   8.048   4.418 -0.1803 -0.1854  0.0130
11902W        W27711  19.025  17.794  11.812 -0.0562 -0.1222  0.0185
11903W        W27712   3.136   2.884  12.513  0.1910  0.3531 -0.0201
11904W        W27713   8.489  12.640   1.423 -0.1346 -0.2991 -0.0690
11905W        W27714   5.958   3.605   5.238 -0.5064 -0.2330 -0.0327
11906W        W27715   6.878   4.425   1.060 -0.0361 -0.0651  0.0842
11907W        W27716   4.006  11.093  12.842  0.0646 -0.0699 -0.2888
11908W        W27717   6.924  16.471   0.517 -0.0752 -0.3329 -0.2560
11909W        W27718   7.770   5.387   2.477 -0.2033 -0.1600 -0.1563
11910W        W27719  15.930  10.106  11.787 -0.3679  0.1948 -0.3173
11911W        W27720  17.889  13.919   2.124  0.0788  0.0463  0.0479
11912W        W27721   3.528   6.691  15.085 -0.0688  0.1262  0.0389
11913W        W27722  16.463  11.056   5.948  0.0997  0.0482 -0.1924
11914W        W27723  12.763   2.672  10.356  0.0977 -0.2082  0.3165
11915W        W27724   4.528   0.049  13.077 -0.0185  0.0350  0.0947
11916W        W27725  10.686  14.430  12.332 -0.0159  0.0556  0.2254
11917W        W27726   2.948  12.741   0.686  0.1897  0.0305 -0.1085
11918W        W27727   8.972   3.606   1.251 -0.2458 -0.1763  0.0020
11919W        W27728  11.426   1.150   0.649  0.0133 -0.0365 -0.3718
11920W        W27729  17.199   1.333  14.078  0.6445  0.1520 -0.3814
11921W        W27730  12.985  13.495  14.712  0.0688  0.1933  0.4645
11922W        W27731   8.546  15.336   0.888  0.1137  0.0778  0.1414
11923W        W27732   1.183   4.311   0.150  0.0910  0.0506 -0.1273
11924W        W27733  14.103   4.863   2.755 -0.1492 -0.2457 -0.1319
11925W        W27734  18.509   6.590  10.573 -0.0076 -0.0215  0.0559
11926W        W27735   4.981   6.555  14.433 -0.0187  0.1517  0.1251
11927W        W27736  10.401   1.994   3.910 -0.0743 -0.2270  0.0126
11928W        W27737  13.481   7.383  14.002  0.1101 -0.4051  0.0302
11929W        W27738  13.040   2.214  15.113  0.0564 -0.2343 -0.0236
11930W        W27739  14.615  17.280  13.104 -0.3576  0.3775 -0.0362
11931W        W27740   8.483   7.650  13.493  0.2250  0.2456  0.1738
11932W        W27741  18.616   0.546   4.215  0.1297 -0.2319  0.0871
11933W        W27742   8.352   1.936  11.481 -0.0284  0.1426 -0.0436
11934W        W27743   5.159  10.708  13.101  0.2182 -0.2788  0.2012
11935W        W27744  12.237   1.577  11.319 -0.2599 -0.3430  0.1387
11936W        W27745  12.263  11.446   4.467 -0.1221 -0.0380 -0.2882
11937W        W27746  18.427   1.803   1.864 -0.3140  0.0149 -0.1844
11938W        W27747  13.181   3.882   3.674 -0.1385 -0.0625  0.2305
11939W        W27748   9.214  16.488   3.141  0.0842 -0.4260  0.1641
11940W        W27749  18.771   4.339  11.160  0.1442 -0.1408 -0.2575
11941W        W27750   6.862   2.961  13.785  0.2241 -0.0787 -0.2235
11942W        W27751  12.508  14.629   6.395  0.5517 -0.3529  0.1973
11943W        W27752  14.939  14.093   2.924  0.0604 -0.1215  0.2025
11944W        W27753  18.183   8.853   1.952 -0.0687 -0.0787 -0.0018
11945W        W27754  15.754   9.551  15.154  0.0519 -0.1366  0.0463
11946W        W27755  15.126  15.481   4.394  0.0035 -0.1810 -0.0061
11947W        W27756  15.431  18.604   3.633 -0.0062  0.1944  0.1257
11948W        W27757  14.594   5.596   2.573  0.2505 -0.1234 -0.2296
11949W        W27758   7.870   9.827   3.495 -0.2159  0.2814  0.1095
11950W        W27759  15.704  18.426  10.921  0.1575  0.1729  0.4863
11951W        W27760   9.507   2.802  10.868  0.2212 -0.1859  0.2986
11952W        W27761   7.357  16.143  11.568  0.1618 -0.0108 -0.3882
11953W        W27762   9.489   2.004  14.892  0.1022 -0.0964  0.2782
11954W        W27763   6.083  14.993  11.688 -0.2657  0.2967  0.2962
11955W        W27764   6.543   1.483   2.137  0.2207 -0.2311  0.1263
11956W        W27765   2.875  10.117  11.402 -0.2202  0.0476  0.0849
11957W        W27766   3.338  10.304   5.118 -0.4430 -0.2088 -0.2047
11958W        W27767   9.204   8.835   0.247 -0.1863  0.1685  0.1862
11959W        W27768  10.070  11.160  14.705 -0.2950  0.1591 -0.3616
11960W        W27769   7.268  11.260   2.368 -0.0996  0.1463 -0.2846
11961W        W27770   3.778   6.599   9.559 -0.0351 -0.0615 -0.0992
11962W        W27771   0.249   8.491   3.606  0.3150 -0.1874 -0.0130
11963W        W27772  10.382   5.778   0.906 -0.0441  0.0749  0.3949
11964W        W27773  15.663   6.492  10.453 -0.1702  0.0631  0.0923
11965W        W27774  15.890   9.321   2.593 -0.2151 -0.1376 -0.0641
11966W        W27775  18.720   7.948   3.624 -0.0583 -0.4326 -0.4382
11967W        W27776  15.381   2.629   1.423  0.1654 -0.0807 -0.1945
11968W        W27777   7.709   7.387   9.478  0.0416  0.0842 -0.0127
11969W        W27778  12.124   1.253   1.777  0.0577  0.0492 -0.0546
11970W        W27779   2.195   9.387  12.105 -0.2819  0.2552  0.1962
11971W        W27780   9.226  18.202  10.651  0.0910 -0.0457 -0.0306
11972W        W27781   9.121  14.303   1.718  0.1427 -0.2434 -0.3076
11973W        W27782   2.236   7.850  14.472 -0.1728 -0.1010 -0.1056
11974W        W27783  11.204   4.043   3.882 -0.0765  0.0418 -0.1774
11975W        W27784  16.450   2.316   3.849  0.4371 -0.0456 -0.0361
11976W        W27785  10.825  16.733  14.147 -0.6092 -0.0371  0.0186
11977W        W27786   7.165  10.959   0.591  0.0798 -0.3072 -0.2211
11978W        W27787   6.177  18.837   1.969 -0.4184  0.0202 -0.1704
11979W        W27788  13.042   4.092   3.239 -0.2175 -0.5809 -0.5330
11980W        W27789  14.050  14.013   2.474 -0.2985  0.2211  0.3213
11981W        W27790  15.732  11.623   6.345  0.1231  0.0615  0.1026
11982W        W27791   5.235  11.341  13.841  0.0768 -0.0023 -0.0751
11983W        W27792  14.535   5.371  11.878 -0.1919  0.2320  0.2567
11984W        W27793   4.722   6.068  13.345  0.2935  0.0479  0.1909
11985W        W27794   5.823  10.375   2.568 -0.0705  0.0323  0.0068
11986W        W27795  14.848   4.868  13.948  0.0460 -0.0068  0.0227
11987W        W27796  12.108   5.949  11.003  0.0842 -0.2668 -0.2862
11988W        W27797  14.332  16.211   1.964 -0.0558 -0.1478  0.0561
11989W        W27798   3.778   1.400   0.897 -0.0821  0.1409 -0.0702
11990W        W27799  12.128   7.570  11.801  0.0597 -0.0627  0.2937
11991W        W27800   4.152   5.081  12.575  0.2471 -0.0909 -0.1050
11992W        W27801  14.620   8.029  14.719  0.2965 -0.0220 -0.0343
11993W        W27802  10.759  12.697  12.462  0.1796 -0.4108 -0.0168
11994W        W27803   8.857  13.405   4.415 -0.0008  0.1758 -0.1157
11995W        W27804  10.297   9.526   4.569 -0.1235 -0.0610 -0.1598
11996W        W27805  10.921  16.490   0.790  0.2073 -0.0613  0.1476
11997W        W27806  17.077   0.745   2.078 -0.1544  0.3249 -0.0598
11998W        W27807  16.341   0.514   4.115 -0.3597 -0.2167 -0.3554
11999W        W27808  10.536   2.375  11.629  0.2599 -0.0171 -0.0390
12000W        W27809   7.911  10.079   0.936 -0.1244  0.1371 -0.0777
12001W        W27810  17.688   4.326   1.026  0.2305 -0.0522  0.1560
12002W        W27811  11.911  16.002   1.054 -0.0180 -0.2055  0.2392
12003W        W27812  11.915   2.895   3.786 -0.2426 -0.0907  0.1799
12004W        W27813   1.059   1.483  10.583  0.1462 -0.0970  0.1596
12005W        W27814  17.446  11.205   2.699  0.2191 -0.1333  0.2033
12006W        W27815   5.099   8.792  14.435  0.2527  0.1194  0.1150
12007W        W27816  14.733   3.225  14.308 -0.0465 -0.2337  0.4403
12008W        W27817  10.378  10.660   1.094 -0.0488  0.2731 -0.2127
12009W        W27818  14.699   1.156   0.369 -0.1088 -0.2665 -0.1284
12010W        W27819   4.026  16.586   4.857 -0.2168  0.0026 -0.2969
12011W        W27820   3.043  10.169   4.670 -0.3545  0.1922  0.1476
12012W        W27821  15.020  12.367  13.598 -0.1305  0.1633 -0.4630
12013W        W27822  17.067  18.491  14.192 -0.1327 -0.2812 -0.2107
12014W        W27823  10.788   2.707   2.287  0.0023  0.2927  0.1290
12015W        W27824  18.813  14.897  11.454 -0.1124  0.0832 -0.0135
12016W        W27825   2.940  18.681   0.411 -0.0405 -0.0279  0.2099
12017W        W27826   3.607   0.244   1.027  0.1887 -0.1138  0.1678
12018W        W27827  12.817   4.443   1.405  0.0351  0.0406  0.1000
12019W        W27828   4.047  10.175   2.304  0.0539 -0.0292  0.0495
12020W        W27829  18.591   5.991   2.615  0.1983  0.0936 -0.2188
12021W        W27830   2.223   6.900  11.746 -0.1999  0.1678  0.2466
12022W        W27831   6.355  11.471  13.033  0.2323  0.2651 -0.4982
12023W        W27832  18.801   3.429  14.895  0.3662  0.3193 -0.1224
12024W        W27833  15.747  16.753   3.365 -0.2321 -0.0785 -0.0463
12025W        W27834  16.179   8.064   2.596 -0.3483  0.1200 -0.0327
12026W        W27835   7.768  13.227  14.311  0.2634 -0.2886  0.1508
12027W        W27836  13.889   8.429  11.599 -0.2013  0.0947 -0.3036
12028W        W27837  17.893  11.176   0.583 -0.0514  0.0303  0.3362
12029W        W27838   5.518  11.101  14.224 -0.2665 -0.0714  0.0499
12030W        W27839   8.793  10.880  14.195 -0.0665 -0.0373 -0.2271
12031W        W27840   8.388  17.003  13.092  0.0742 -0.0221 -0.0996
12032W        W27841   6.648   7.864  12.490 -0.1589  0.0197 -0.1373
12033W        W27842  15.868  13.324  13.187  0.1084 -0.0214 -0.2572
12034W        W27843   6.462   8.622  11.401  0.1766  0.1998  0.0136
12035W        W27844   0.078   6.699  11.850  0.0790  0.0928 -0.2833
12036W        W27845   5.938  13.107  15.163  0.0836 -0.0779 -0.0365
12037W        W27846   8.409  13.260  12.450  0.0469 -0.1742 -0.1595
12038W        W27847   7.177  17.954  14.687  0.2846  0.2699 -0.0527
12039W        W27848   7.210   6.734   3.896 -0.3431 -0.1634 -0.1782
12040W        W27849   5.455  17.819   4.068 -0.1853 -0.0219  0.0148
12041W        W27850  11.545   3.532  14.664 -0.0214  0.0162 -0.3463
12042W        W27851  17.746   8.608  11.693 -0.1504 -0.0014 -0.1807
12043W        W27852   5.809  16.999  12.795  0.2295 -0.0333 -0.0890
12044W        W27853   6.529  11.221  14.915  0.0220  0.3236  0.0347
12045W        W27854  18.932  10.354   1.986 -0.2124 -0.4839 -0.1058
12046W        W27855  13.922   2.078   5.215  0.2464 -0.1658 -0.1153
12047W        W27856   1.715   0.738  10.874  0.2123  0.0378  0.2313
12048W        W27857  11.176  14.710  14.981 -0.0015  0.0309  0.2244
12049W        W27858   8.192  11.618   1.913 -0.0760  0.0660  0.1835
12050W        W27859   0.899   6.321  10.393  0.0193 -0.0324 -0.0391
12051W        W27860   8.104   9.993   2.089  0.2823 -0.1243  0.0991
12052W        W27861  17.634   1.663  12.011  0.1620  0.2523 -0.0782
12053W        W27862  15.022  10.046   0.598 -0.0629  0.0059 -0.1448
12054W        W27863  14.331  15.808   0.378 -0.1436 -0.0857 -0.1642
12055W        W27864   1.484  16.938   1.627 -0.1225  0.1277 -0.0201
12056W        W27865  17.522  14.278   3.111  0.0728  0.3226 -0.3763
12057W        W27866   1.032  17.473  11.524  0.1536  0.0244  0.0147
12058W        W27867  15.377   2.011   3.707 -0.1001  0.0933 -0.0908
12059W        W27868   7.008   6.512   1.744 -0.0327  0.1898  0.0746
12060W        W27869   8.180   0.544  11.662  0.2744 -0.1179 -0.0366
12061W        W27870  10.171   6.054   2.773 -0.1510 -0.2963  0.0278
12062W        W27871   9.506   4.755   2.802 -0.1602  0.3030 -0.0561
12063W        W27872   6.241   5.493  11.511 -0.3765  0.2355 -0.3480
12064W        W27873  11.813   4.370   0.327  0.1434 -0.1255 -0.1546
12065W        W27874  13.720  11.851   2.672 -0.1081 -0.2139  0.0309
12066W        W27875  12.862  17.316  13.627 -0.1708  0.3627  0.1013
12067W        W27876  18.955   2.816  12.218  0.0210  0.1790 -0.1359
12068W        W27877   4.601   7.771  10.498  0.0585  0.1143  0.0266
12069W        W27878  12.906   6.834  13.884  0.0240 -0.1980 -0.0063
12070W        W27879  12.028   2.607  14.970 -0.0612  0.1082 -0.2120
12071W        W27880   6.253   3.953  14.893 -0.0247 -0.1230 -0.0699
12072W        W27881  14.644   3.188  12.812 -0.0010  0.0504  0.4047
12073W        W27882  15.438   9.951   1.682 -0.3376 -0.2385  0.1170
12074W        W27883  18.070   1.349   2.177  0.2193  0.0165 -0.4350
12075W        W27884   5.418   4.239   3.092  0.1004  0.1198  0.0750
12076W        W27885   9.183   5.222  10.213  0.2749 -0.0840 -0.0127
12077W        W27886  15.225  13.375   2.294  0.1749 -0.2370 -0.0099
12078W        W27887  18.355  18.235  13.501  0.1877 -0.0366 -0.0998
12079W        W27888   5.702   3.034   0.883 -0.2976 -0.2331 -0.1621
12080W        W27889  15.131   8.065   4.496  0.4009  0.1028 -0.1722
12081W        W27890  16.187   1.251  11.967  0.0570 -0.1191  0.2662
12082W        W27891  15.896   0.082  11.097 -0.1218 -0.0145 -0.4265
12083W        W27892  10.370  17.676   3.609  0.1341 -0.3955 -0.1601
12084W        W27893  13.364  10.893  13.283  0.2452  0.2368  0.0273
12085W        W27894  14.560   3.760   2.176  0.1417 -0.2179  0.0519
12086W        W27895  15.099  18.191   0.133 -0.1407  0.0460  0.0500
12087W        W27896   2.835   2.923   5.018 -0.1816 -0.0228  0.0990
12088W        W27897  12.189   7.596  14.009  0.1026 -0.2062 -0.1742
12089W        W27898  12.189  19.160   4.101 -0.2996  0.0560  0.0701
12090W        W27899   7.319   7.327  13.934  0.1831  0.3602 -0.0391
12091W        W27900   4.110   2.054   0.410 -0.0102 -0.2173  0.4572
12092W        W27901  16.409  13.396   5.626  0.0495  0.3354  0.2587
12093W        W27902  12.089   1.256   4.798 -0.1681 -0.2071  0.2192
12094W        W27903  12.580   2.075   2.215  0.3604 -0.4836  0.1368
12095W        W27904   6.891  13.632   5.223 -0.1798 -0.2541  0.1374
12096W        W27905   2.065  10.132   1.416 -0.1976 -0.2965  0.0552
12097W        W27906  10.365  15.619  11.099 -0.3169 -0.0865 -0.2790
12098W        W27907   9.558   8.396   3.734  0.1495  0.0257 -0.4155
12099W        W27908  14.046   3.694  12.300 -0.2278 -0.0978  0.2565
12100W        W27909   3.319   9.382   4.448 -0.1428  0.1460 -0.1371
12101W        W27910   9.786   6.315  10.490  0.1664  0.2456  0.1568
12102W        W27911  16.742   7.976  10.753  0.0485  0.2121 -0.0018
12103W        W27912  10.127  13.199  13.482 -0.2336 -0.1105 -0.2577
12104W        W27913   6.115  11.243  14.596 -0.2693 -0.0512 -0.0389
12105W        W27914   7.453   1.786   0.931  0.1821 -0.2255  0.0791
12106W        W27915   9.662  10.473  14.456  0.0325 -0.2409 -0.0393
12107W        W27916  12.804   3.123  11.066 -0.0851  0.0606 -0.1475
12108W        W27917  13.054  10.486   0.584 -0.0099 -0.3600 -0.3031
12109W        W27918  11.841   4.642  12.006 -0.0369 -0.0483 -0.0595
12110W        W27919   2.998  13.355  15.096  0.0205 -0.3055  0.2660
12111W        W27920   4.076   7.516  10.318 -0.0901 -0.0338  0.0002
12112W        W27921  11.819   3.234   4.845  0.0258 -0.0401  0.0222
12113W        W27922  13.505  14.408  11.543  0.3078 -0.2223 -0.4196
12114W        W27923   4.254  10.856  13.809 -0.0171 -0.0783  0.2166
12115W        W27924  13.511  17.030  14.246  0.0278  0.0765  0.2791
12116W        W27925   7.096   8.281   4.788 -0.2459 -0.0549  0.1036
12117W        W27926   6.329   4.398  13.623  0.0402  0.1358  0.0922
12118W        W27927   6.689  10.977   9.991 -0.0016 -0.1379  0.1027
12119W        W27928  10.348  11.576  10.253  0.0443 -0.0206  0.0373
12120W        W27929   6.966   4.628  12.581 -0.3601  0.0524 -0.2168
12121W        W27930   3.966   8.212   1.199  0.0962 -0.0018 -0.0865
12122W        W27931   4.258  17.576  12.948 -0.1153  0.0051  0.0190
12123W        W27932  18.353   2.543   1.071  0.0233 -0.0379  0.0211
12124W        W27933   2.373   4.076  14.887  0.1713  0.0780 -0.0108
12125W        W27934   6.858  11.931   0.541 -0.1541 -0.1094 -0.3340
12126W        W27935   8.969   9.514   0.845 -0.1908  0.0066 -0.2093
12127W        W27936  13.292   7.820   3.825 -0.0924 -0.1333 -0.2058
12128W        W27937  12.151   3.195   3.500  0.1006 -0.0949 -0.1171
12129W        W27938  16.439  18.337   4.292  0.1097 -0.1251  0.1040
12130W        W27939   9.859   7.856  12.541  0.0960  0.2287  0.1860
12131W        W27940  16.674   1.837   3.442 -0.0018 -0.0154 -0.0864
12132W        W27941  12.302  10.547   4.581 -0.0807 -0.1474  0.0895
12133W        W27942   7.853   7.669   2.659 -0.1587  0.1749  0.2448
12134W        W27943   2.504   6.006  12.228 -0.2111  0.0430  0.1316
12135W        W27944   7.365   1.482   4.221 -0.0878  0.0946  0.1512
12136W        W27945   5.873  16.648  14.725  0.0086  0.1206  0.3220
12137W        W27946   5.556   5.239  12.691  0.0131 -0.0858 -0.2325
12138W        W27947  14.689  11.566  11.995 -0.0165 -0.2495 -0.1541
12139W        W27948   7.787  15.743  13.523 -0.0051  0.0962 -0.0328
12140W        W27949   3.854   3.804  11.308  0.1052 -0.0382  0.1909
12141W        W27950  10.847   1.125  14.028  0.2775 -0.2221  0.2103
12142W        W27951  10.618  10.941   2.265 -0.0855 -0.0951 -0.0761
12143W        W27952   6.482  14.427   3.374 -0.1619  0.3266 -0.1749
12144W        W27953   7.901  13.593   5.145  0.0105 -0.5796 -0.1255
12145W        W27954  15.802   2.473   5.110 -0.2151 -0.2801  0.0592
12146W        W27955   2.024   3.101   1.363 -0.2613  0.0946  0.0133
12147W        W27956  10.481  14.018   4.724  0.1561  0.1478 -0.1268
12148W        W27957  17.637   3.420   2.678 -0.0117 -0.1840  0.2325
12149W        W27958   4.338   0.836   2.475  0.3248 -0.1289 -0.1798
12150W        W27959  14.898  16.678   2.772 -0.1014  0.2231  0.0284
12151W        W27960   1.303   6.891  13.906 -0.3566  0.4340  0.3162
12152W        W27961   9.379  12.520  13.357 -0.0409 -0.4253  0.2097
12153W        W27962  16.025   7.944   5.260  0.2647 -0.1644  0.2436
12154W        W27963   6.015  19.000   2.840 -0.1499 -0.0743  0.0291
12155W        W27964  17.987   3.304   2.268  0.0787  0.1741 -0.2887
12156W        W27965   9.652   6.300   3.403 -0.4195  0.2394  0.2810
12157W        W27966  10.584  14.233  14.379 -0.0033  0.3576  0.2483
12158W        W27967  11.627   5.459  11.666  0.2318  0.1429  0.4411
12159W        W27968   2.635  11.192  12.467  0.2413 -0.2129 -0.0185
12160W        W27969   8.190  18.938  14.063  0.3151 -0.0905 -0.0246
12161W        W27970   6.630   2.174  11.963  0.1378  0.0551 -0.2148
12162W        W27971  17.802   1.549   3.987  0.3352 -0.0203  0.0630
12163W        W27972  15.282  14.538   2.962 -0.1081  0.2557 -0.0361
12164W        W27973   1.063  15.735   1.328 -0.2061  0.2196 -0.1345
12165W        W27974  15.582   6.008  11.605  0.0738  0.3532  0.2718
12166W        W27975  15.561   7.747  11.788 -0.1620  0.1285  0.0881
12167W        W27976   5.398  15.830   1.612 -0.5820  0.0370 -0.1080
12168W        W27977   2.790  13.976  14.475 -0.2510  0.2861  0.0049
12169W        W27978   7.343   8.795  12.884 -0.1375  0.1834  0.1870
12170W        W27979  14.898   4.667  12.898 -0.1519 -0.4125 -0.1586
12171W        W27980   3.310  13.641   0.924  0.1146 -0.2874  0.2189
12172W        W27981  17.032   7.897   1.999  0.2727  0.1943 -0.0996
12173W        W27982  17.508   2.902   9.982  0.1912  0.1667 -0.0808
12174W        W27983   5.267  16.726   2.242  0.3515  0.0345  0.1771
12175W        W27984   8.399   6.784  13.415  0.1825 -0.1522 -0.2173
12176W        W27985   7.291   7.604   0.194  0.1068  0.2557 -0.2406
12177W        W27986   0.496   2.215  13.019  0.1914  0.0689  0.2301
12178W        W27987  15.929   1.393   3.906  0.1429  0.0207  0.1459
12179W        W27988  12.494   9.649  11.741  0.0073  0.2064  0.1039
12180W        W27989  15.518   5.219  10.772  0.1637  0.1456  0.2851
12181W        W27990  10.412   2.297   2.530  0.2015 -0.2548  0.1202
12182W        W27991  14.761   0.834  12.937 -0.1595 -0.0896  0.1578
12183W        W27992   5.118   1.280  13.235 -0.1180  0.3183 -0.0615
12184W        W27993  11.770  14.330   2.772 -0.1096  0.0173  0.0805
12185W        W27994   5.901   2.023  12.115 -0.2080  0.0193  0.3192
12186W        W27995   2.396   4.321  14.459  0.1768 -0.1042  0.1833
12187W        W27996  12.063   5.531   1.791  0.2318  0.1676 -0.1950
12188W        W27997  10.162  18.297   3.493  0.0561 -0.0193 -0.3518
12189W        W27998  14.206   6.814   2.275 -0.3056  0.0122 -0.1347
12190W        W27999  14.846   1.709   3.007  0.1663 -0.4764 -0.2778
12191W        W28000   1.264  18.247  14.683 -0.2457 -0.0292  0.1482
12192W        W28001   7.561  14.131  14.708 -0.0978  0.3001  0.4083
12193W        W28002  10.176   9.279   1.721  0.1547  0.4293  0.4040
12194W        W28003  15.194   9.734   3.948 -0.2959 -0.1717  0.1076
12195W        W28004  18.925  11.941   0.542  0.1013  0.3186 -0.0268
12196W        W28005  13.507   9.322   1.138  0.0216 -0.0162 -0.0543
12197W        W28006  11.023   4.429  11.294  0.3076 -0.3240  0.1886
12198W        W28007   1.457  19.063  12.626  0.2586 -0.0452 -0.1932
12199W        W28008   6.931   6.443  10.678 -0.2869  0.0437  0.2906
12200W        W28009   1.951  16.773  14.561  0.0516  0.2235  0.1386
12201W        W28010  16.572   1.599  12.949  0.1058 -0.2547 -0.1829
12202W        W28011   6.690  14.514  14.990  0.1595  0.4110  0.0425
12203W        W28012  14.392   7.936  12.375 -0.0274 -0.1786 -0.0650
12204W        W28013   6.054  11.498   1.684  0.1447 -0.2118 -0.2164
12205W        W28014   1.094  16.002  11.712 -0.1974  0.2137  0.1914
12206W        W28015   2.768   7.165   9.669  0.0258  0.0718 -0.1865
12207W        W28016  10.284   3.122  14.232  0.2790  0.3614  0.4243
12208W        W28017  14.903  11.049   1.589 -0.0586  0.1199 -0.1024
12209W        W28018  18.160  11.096   1.404  0.1048 -0.0416  0.0117
12210W        W28019  14.148   2.613   2.029  0.0180 -0.0932  0.1454
12211W        W28020   5.701   2.153   0.970  0.0112  0.1164  0.2651
12212W        W28021   3.849  13.151  14.218  0.3312  0.0592 -0.0736
12213W        W28022   9.007  13.830   4.183 -0.1259  0.1535 -0.0302
12214W        W28023  11.117   8.552   4.990  0.2528 -0.0993 -0.1314
12215W        W28024  12.594   7.973  15.217  0.0551 -0.0656  0.0710
12216W        W28025  13.021  17.074  15.149 -0.0021  0.3263 -0.2613
12217W        W28026  13.719  12.999   4.240 -0.1767 -0.2660 -0.1489
12218W        W28027  17.028  16.835   3.015  0.0485 -0.2836  0.2921
12219W        W28028  18.702   5.869   3.113 -0.2556  0.0163 -0.1066
12220W        W28029  12.858   9.679   0.611 -0.2442 -0.1982 -0.2012
12221W        W28030   3.091   4.352  14.346  0.2702  0.0993 -0.0672
12222W        W28031   5.224  16.944  11.984  0.0386  0.1215 -0.2262
12223W        W28032  11.824  15.892  15.024  0.0753  0.0142  0.1189
12224W        W28033   7.773  15.405  14.328  0.3055 -0.1175 -0.4199
12225W        W28034  13.855   1.153  15.018  0.1399 -0.1160 -0.1829
12226W        W28035  11.030   8.813   1.531 -0.1527  0.0918  0.1739
12227W        W28036  18.397  11.384   3.535 -0.2981  0.3453 -0.1021
12228W        W28037  12.692  14.578   5.379 -0.0406 -0.0617 -0.0748
12229W        W28038  16.816  16.328   4.515 -0.2940  0.2184 -0.0338
12230W        W28039   3.837   2.149  14.696  0.0865 -0.1202  0.1229
12231W        W28040   9.455   1.705  14.347  0.2030 -0.2135  0.0526
12232W        W28041   2.570   8.048   9.862 -0.1676 -0.1008  0.4277
12233W        W28042  12.359  15.268   3.638  0.2819 -0.0429  0.0697
12234W        W28043   6.325  15.948  10.752  0.1750  0.0473 -0.2169
12235W        W28044   3.431  16.340   1.229 -0.0280 -0.2528 -0.0804
12236W        W28045  16.210  19.088   2.545  0.2007  0.0582  0.2601
12237W        W28046  16.426   6.401  15.038 -0.0989 -0.0370  0.0275
12238W        W28047  11.609  17.211  12.223  0.2412 -0.3589 -0.4091
12239W        W28048  13.043   1.869   4.766  0.1977 -0.0642  0.3631
12240W        W28049  14.796   8.518  13.857 -0.0470  0.2499  0.1054
12241W        W28050   9.743   2.791   4.210  0.0164  0.2546  0.1660
12242W        W28051  16.327   1.905  12.052  0.0338  0.1337 -0.1493
12243W        W28052  17.708  10.375  10.971 -0.0455  0.1194 -0.0248
12244W        W28053   5.259  11.836   1.675 -0.0940 -0.1128  0.3529
12245W        W28054   5.623   3.498   2.615  0.1906 -0.0717 -0.1620
12246W        W28055   8.064   4.805  13.714 -0.1587 -0.0392  0.0963
12247W        W28056   9.837   1.121   3.583  0.2851 -0.2133 -0.3232
12248W        W28057  12.888   3.932  10.772  0.3347 -0.1534  0.0929
12249W        W28058  11.072  14.271  11.948 -0.4945  0.0491  0.2454
12250W        W28059  17.879   0.988   2.704 -0.0010  0.0820 -0.0338
12251W        W28060   4.557  10.657   1.727 -0.3511  0.0949  0.0194
12252W        W28061  15.148   6.841   5.311  0.0704  0.0178 -0.0931
12253W        W28062  14.144  14.431  13.436  0.0184 -0.0701  0.2281
12254W        W28063  14.939   1.506   2.032  0.0231 -0.3509  0.0926
12255W        W28064  11.114  17.098   1.385 -0.2580 -0.1262 -0.0388
12256W        W28065   7.472   3.042  11.958 -0.2986  0.3865  0.1230
12257W        W28066   3.823  17.790  10.832 -0.1849  0.3353  0.1974
12258W        W28067  15.724  11.018  10.856  0.2837 -0.2084  0.2520
12259W        W28068  10.962   1.159   0.515 -0.4605 -0.1225 -0.0558
12260W        W28069  18.295  10.265  14.055 -0.1404  0.1817 -0.0815
12261W        W28070  11.729  13.247  10.654 -0.1783  0.0680 -0.1476
12262W        W28071  14.348   2.834   3.144 -0.2155 -0.0483 -0.2940
12263W        W28072   0.685  13.684  13.785 -0.2993  0.1601  0.2202
12264W        W28073  16.690  17.093   1.161  0.1632  0.2093 -0.2868
12265W        W28074   3.624  14.774   4.002  0.3893  0.1111  0.1214
12266W        W28075   5.724   9.557  12.108  0.1215 -0.1615  0.0229
12267W        W28076  19.161  16.302  13.101  0.0231  0.0999 -0.0739
12268W        W28077   9.662   4.229   2.753 -0.2822 -0.2479  0.1009
12269W        W28078   0.051   5.964  13.694  0.2166 -0.0282 -0.2186
12270W        W28079   7.777  17.347   4.342 -0.2122 -0.0906 -0.2724
12271W        W28080  14.802  18.464   2.504  0.2368 -0.2907  0.3573
12272W        W28081   6.838  11.974  14.359 -0.3484  0.1559  0.5156
12273W        W28082  11.783  11.580   2.576  0.1008  0.0635 -0.0517
12274W        W28083  14.203  16.104   3.236  0.1508  0.1642  0.2534
12275W        W28084  18.784   2.639   0.380 -0.0234 -0.1105  0.3747
12276W        W28085   5.925   8.834   1.321 -0.0929 -0.1260 -0.0776
12277W        W28086  13.692  11.400   1.172  0.1069 -0.3861 -0.0246
12278W        W28087  10.699  10.032  10.994  0.0792  0.2135  0.0848
12279W        W28088   1.711   1.805  15.174 -0.1416 -0.1389  0.3163
12280W        W28089  12.491   7.927   1.966  0.0328 -0.1259  0.0595
12281W        W28090   5.532  17.035   1.969  0.1385 -0.6865  0.3342
12282W        W28091  15.532   1.231  11.789  0.3946 -0.0783 -0.0820
12283W        W28092   8.553   4.830   1.721 -0.1342  0.1393  0.1758
12284W        W28093   2.698   1.826   3.345  0.0403  0.2836  0.1826
12285W        W28094   6.164   9.114  11.470  0.0903 -0.0964 -0.2150
12286W        W28095  18.433  12.659   2.531  0.2220  0.0263  0.1023
12287W        W28096  13.859  10.928  13.255  0.2465  0.1891 -0.2485
12288W        W28097   5.748  18.219  14.152  0.0368 -0.2050 -0.0905
12289W        W28098  11.729   3.525  12.988 -0.0988  0.0133  0.0584
12290W        W28099  17.714   9.640  10.356 -0.1442 -0.1783  0.0316
12291W        W28100  18.377  11.166   0.538 -0.0750 -0.0353 -0.0046
12292W        W28101   0.666   6.065   2.084  0.0190  0.0678 -0.1904
12293W        W28102  12.615   6.116   1.281 -0.0010 -0.1163  0.1995
12294W        W28103   8.505   5.090   4.108 -0.0322  0.0455 -0.0703
12295W        W28104   3.544  16.937  11.530 -0.0114 -0.0306 -0.2297
12296W        W28105  13.037   3.641  14.962 -0.0574 -0.2048 -0.2232
12297W        W28106   8.115   3.199   4.469  0.0146 -0.1369 -0.0484
12298W        W28107   9.058   8.860   0.775 -0.1128  0.1890  0.0976
12299W        W28108  11.898   6.064   3.069 -0.1695  0.2944  0.0664
12300W        W28109   3.228   6.441   4.062 -0.0545  0.0369 -0.2215
12301W        W28110  18.689   5.402   4.405  0.1571 -0.1932 -0.0322
12302W        W28111  10.476   0.429  10.767  0.0011 -0.3408  0.3857
12303W        W28112   0.961  18.246   2.718 -0.5611  0.2303  0.0926
12304W        W28113   9.232   6.822   0.057 -0.0442 -0.0717  0.1610
12305W        W28114   0.501  13.966  13.240  0.0605  0.2389 -0.3491
12306W        W28115   5.739  15.326   0.702 -0.1459  0.0613  0.0150
12307W        W28116   9.892  17.408   2.102 -0.2870  0.3148  0.0498
12308W        W28117  16.117  15.767   1.742  0.0598 -0.1392 -0.0357
12309W        W28118   6.066   5.644   3.617 -0.2263  0.0525 -0.0644
12310W        W28119  17.266  15.839  12.700  0.1698 -0.3463 -0.0605
12311W        W28120   3.278  18.337   0.381  0.0853 -0.0428 -0.3384
12312W        W28121   2.543  11.204  13.319 -0.0736  0.3323  0.0309
12313W        W28122   8.215  15.324   3.111 -0.1159 -0.0277 -0.2807
12314W        W28123   8.803  12.192   9.714  0.2032  0.1912  0.2350
12315W        W28124   9.087   4.279  15.035  0.2434  0.1258  0.2225
12316W        W28125   7.589  11.362  12.238  0.3880  0.1187 -0.5251
12317W        W28126  10.659   3.817   4.631  0.3231  0.0124 -0.2402
12318W        W28127  17.417   6.689   1.374 -0.1098  0.1733  0.0082
12319W        W28128  13.650   8.747  14.341  0.1216 -0.0719  0.1859
12320W        W28129  17.065   3.577  13.226  0.3201  0.2762  0.0702
12321W        W28130   3.983  13.417   0.057 -0.0381 -0.3701 -0.1580
12322W        W28131  15.506  17.533   5.804  0.3728 -0.2499 -0.0364
12323W        W28132   1.575   9.949  15.129 -0.0162 -0.1857 -0.5190
12324W        W28133  14.028   9.295   4.495 -0.1705  0.2638  0.1461
12325W        W28134  14.201   1.825  14.555 -0.1038 -0.0017 -0.0171
12326W        W28135  17.872  13.711  13.642  0.0792 -0.2021  0.0365
12327W        W28136   8.881  14.008  11.201 -0.1674  0.0827 -0.1819
12328W        W28137  13.005   9.559  13.227 -0.0050 -0.0005  0.1703
12329W        W28138   4.725  15.872   2.218 -0.0710 -0.2575 -0.3771
12330W        W28139  13.964   3.640   4.732 -0.1778  0.0287 -0.1968
12331W        W28140   6.507  13.527  10.856  0.2575  0.3121 -0.0258
12332W        W28141   2.425   5.399   1.561  0.2867  0.0224 -0.1560
12333W        W28142   1.946  17.064  10.917  0.0691  0.0865 -0.0221
12334W        W28143   1.904   0.267   9.841 -0.2130  0.1689 -0.1562
12335W        W28144  13.139   1.016   5.205  0.1537  0.3307  0.1424
12336W        W28145   2.418  18.254   1.070 -0.2587 -0.1372  0.2747
12337W        W28146   0.829  16.935   1.761 -0.1431 -0.0141  0.1119
12338W        W28147   9.753   9.918  14.047  0.0705  0.4019  0.2812
12339W        W28148  15.450   8.267  13.672 -0.2289 -0.0418 -0.0133
12340W        W28149   9.179   1.082   1.755 -0.0413 -0.0775  0.2580
12341W        W28150   6.603   3.600  10.589 -0.2426  0.0122 -0.1202
12342W        W28151  17.334  15.918   3.865 -0.0063 -0.1323 -0.3883
12343W        W28152   7.768   7.952   1.716 -0.0265  0.0783  0.2852
12344W        W28153   8.923   0.867   5.392  0.3384 -0.0394  0.1030
12345W        W28154   1.218  16.072   9.375  0.1651 -0.2609  0.2524
12346W        W28155   3.694   9.726  14.421  0.1973 -0.0480  0.0216
12347W        W28156   9.830  16.315  15.110  0.3282 -0.2577 -0.1658
12348W        W28157   3.098  10.935  10.364  0.1077  0.0205  0.0805
12349W        W28158   4.132  12.363   2.862  0.0173  0.0673 -0.0911
12350W        W28159  17.775   7.448   2.607 -0.0518  0.0053  0.1009
12351W        W28160  17.400   9.010   5.254  0.1507 -0.4055 -0.3913
12352W        W28161   2.614  11.217   2.626 -0.2503 -0.1991 -0.0436
12353W        W28162   4.166   7.964  10.316  0.2577  0.1458 -0.1903
12354W        W28163  17.956   3.917   0.920  0.0034  0.1983 -0.1677
12355W        W28164   4.389  16.719  11.105 -0.1144 -0.1695  0.3265
12356W        W28165   9.702  15.272   0.914 -0.1670  0.1060  0.0178
12357W        W28166   1.614   8.466   2.974  0.2127 -0.1599 -0.1645
12358W        W28167  15.959   6.458   2.225  0.3194  0.1330  0.2669
12359W        W28168   7.584   0.097   1.167 -0.3887 -0.0375  0.4061
12360W        W28169   2.999  12.050  14.295 -0.0484  0.2880  0.1102
12361W        W28170   2.679  12.134   2.652  0.2921  0.1318  0.4552
12362W        W28171   3.162  17.282   0.044  0.4368  0.1975  0.3420
12363W        W28172  16.079   7.508   2.580 -0.0138  0.1989  0.2005
12364W        W28173  15.271  14.854  12.315 -0.0319 -0.1005  0.2601
12365W        W28174   6.093  12.144  12.156  0.0465 -0.0114 -0.1696
12366W        W28175   9.453  18.497  11.099 -0.0206  0.5815 -0.3819
12367W        W28176   8.336  13.357   4.370  0.1926 -0.1249 -0.0159
12368W        W28177   7.931   8.702   3.739 -0.2004 -0.0769  0.0905
12369W        W28178   7.896   1.595   5.944 -0.1980 -0.2953 -0.4604
12370W        W28179  11.509   0.380  14.063 -0.0084  0.1239  0.4343
12371W        W28180  11.991  13.227  14.631 -0.0212 -0.2718 -0.2879
12372W        W28181   3.672   9.699   0.414 -0.2023  0.0569 -0.3342
12373W        W28182   7.588   0.182   5.290  0.2894 -0.1884  0.1135
12374W        W28183  17.077   8.020   2.552  0.2107 -0.1745  0.1300
12375W        W28184   6.758  14.645   4.307  0.1112 -0.1151 -0.3736
12376W        W28185   3.768   5.725   3.463 -0.4756  0.2206 -0.0532
12377W        W28186  13.396   0.910  15.065 -0.3763  0.1803  0.2366
12378W        W28187  13.646   8.075  12.127  0.3638 -0.1332 -0.0817
12379W        W28188   5.573   3.784   9.451  0.1180 -0.0389 -0.0052
12380W        W28189   2.838  12.389  13.535 -0.1233 -0.1702  0.1196
12381W        W28190   1.098  18.127  12.878 -0.3576 -0.0465 -0.2608
12382W        W28191   5.776   7.301   9.869 -0.1696 -0.0041 -0.2456
12383W        W28192  17.090   2.954  14.107  0.1835  0.0729  0.3834
12384W        W28193   4.485   6.414   1.313  0.0589  0.2037  0.3559
12385W        W28194   8.752   4.269  12.058 -0.0750  0.1839  0.3085
12386W        W28195   0.301   4.245  14.112 -0.2143 -0.2168  0.2248
12387W        W28196  10.522   6.429   2.853 -0.2115  0.0103  0.0615
12388W        W28197  15.952  17.975   5.047  0.1853  0.1182  0.0308
12389W        W28198   4.527  14.167  12.466 -0.0050  0.1121  0.5671
12390W        W28199   1.486  15.898   1.123 -0.1793 -0.0679  0.2906
12391W        W28200   5.227  18.397  11.793  0.0197 -0.0462  0.0721
12392W        W28201  17.484   0.887  11.105 -0.2233 -0.2951  0.3274
12393W        W28202   2.815  13.458   3.609 -0.1949 -0.1443  0.1082
12394W        W28203   2.433   1.516   2.387  0.0840  0.0484  0.1247
12395W        W28204   7.011  18.491   0.350 -0.2304 -0.2224 -0.2600
12396W        W28205  18.916  10.252  12.174  0.1124 -0.0278  0.2525
12397W        W28206  18.140  12.979  14.830 -0.0362  0.1584 -0.0579
12398W        W28207   4.844  12.620  12.184 -0.0505 -0.2289 -0.0067
12399W        W28208   9.956   5.681   5.141 -0.3445 -0.0908 -0.0422
12400W        W28209  17.242   2.540   1.481  0.1530  0.0925 -0.1270
12401W        W28210   9.453   5.459   2.114  0.0960 -0.2345 -0.1495
12402W        W28211  10.560   9.173   2.536  0.2875  0.2562 -0.5393
12403W        W28212   8.345  10.873   5.886  0.3201 -0.0934  0.2057
12404W        W28213  18.371   9.819  13.418  0.0341  0.0740 -0.1874
12405W        W28214  19.040  16.176   0.726  0.4384 -0.0927  0.1730
12406W        W28215   6.115   4.444  14.108  0.4826 -0.1237 -0.3317
12407W        W28216  15.896   3.090   4.474 -0.2523 -0.0930  0.4149
12408W        W28217  16.219   1.612   5.174 -0.0665  0.0084 -0.0299
12409W        W28218   3.522  10.460   3.592  0.1985  0.2397  0.0996
12410W        W28219   2.090  12.355   0.556  0.1610  0.0899  0.0323
12411W        W28220   4.076   5.686   3.104 -0.2276 -0.3038  0.2616
12412W        W28221  18.759  10.706   1.280 -0.0567 -0.1693  0.0051
12413W        W28222   8.427   2.325   3.380  0.0187 -0.1635  0.0614
12414W        W28223   0.574  14.451   2.127 -0.0306  0.0348  0.1039
12415W        W28224  13.762  19.048   5.355 -0.1725  0.4093  0.1366
12416W        W28225   8.286  14.489  15.009 -0.1962 -0.1516  0.1656
12417W        W28226  16.894  10.509   5.804 -0.1587  0.0210 -0.3564
12418W        W28227  14.001  12.062   0.031  0.0504 -0.2667  0.0262
12419W        W28228   8.295  17.208  14.479 -0.0581 -0.0984 -0.1538
12420W        W28229   2.184  10.241  13.165  0.0831 -0.0208 -0.4387
12421W        W28230   8.607  12.610  14.069  0.0242  0.3375  0.0916
12422W        W28231   9.838   0.453   3.693  0.1333 -0.1475 -0.1482
12423W        W28232   4.493   6.391  10.050  0.0419  0.0548 -0.0751
12424W        W28233  16.685  15.435  13.228  0.0620  0.0658 -0.3615
12425W        W28234   4.247   2.378  11.032  0.2154  0.0726  0.1135
12426W        W28235   3.027   2.618   1.796 -0.0002  0.1270  0.0198
12427W        W28236  16.692   2.204  13.647 -0.0496 -0.3805  0.0123
12428W        W28237   0.704   6.570   2.653  0.1056 -0.1615  0.2936
12429W        W28238   8.072  17.129   1.497 -0.0701 -0.2659 -0.1303
12430W        W28239  10.999   9.312   4.292  0.1632 -0.4221 -0.0815
12431W        W28240  10.675  15.715   3.174  0.1759 -0.0153 -0.4112
12432W        W28241  14.326  16.741   2.723  0.1875 -0.3103  0.1010
12433W        W28242  17.311   6.610  11.848  0.0875  0.3177  0.2345
12434W        W28243  12.245  16.560   2.719  0.1170 -0.0423  0.4340
12435W        W28244  14.952  11.467  13.765 -0.0644  0.1463 -0.0829
12436W        W28245  11.508  13.396   2.275  0.2429 -0.4162  0.0102
12437W        W28246   4.504   9.265  13.282  0.0978 -0.1370 -0.2726
12438W        W28247  11.106  10.790  11.861 -0.1264  0.5602 -0.1163
12439W        W28248  11.078  16.278  10.950 -0.1155  0.3664 -0.1707
12440W        W28249  12.973  18.334   4.895 -0.1461  0.3203 -0.1491
12441W        W28250  15.891   2.640  13.481  0.0629  0.0674 -0.0955
12442W        W28251   1.181   4.449   1.552  0.0955 -0.2084 -0.2598
12443W        W28252   1.053   5.203   1.843 -0.0610  0.2811  0.2083
12444W        W28253   8.092  14.558   3.557  0.1820  0.0279 -0.0375
12445W        W28254  12.740   6.412   0.812 -0.1484  0.1148  0.0919
12446W        W28255   6.187  15.640   3.317 -0.1954  0.1144  0.0515
12447W        W28256   4.845  17.772   2.120  0.1739 -0.0769 -0.4183
12448W        W28257  14.733   3.269   1.288  0.0123 -0.1234 -0.0269
12449W        W28258   4.146   4.738   9.363 -0.0209 -0.3239 -0.1692
12450W        W28259   8.336   5.384   9.509  0.2041 -0.0670  0.2485
12451W        W28260   4.245  13.964  11.963  0.2632  0.1042  0.0691
12452W        W28261   9.063   3.540   0.410 -0.2994 -0.1829 -0.1305
12453W        W28262   5.949   8.924  10.973  0.1338 -0.1184  0.1575
12454W        W28263  15.397  10.201   5.246 -0.1201  0.1920  0.0817
12455W        W28264   7.318   7.460   3.341 -0.2154  0.0899  0.0038
12456W        W28265  10.293   7.687   2.688 -0.1261 -0.1739  0.4395
12457W        W28266  18.080   1.821   3.688 -0.1222  0.1424  0.0756
12458W        W28267   9.971  11.696   5.214  0.0573  0.0446  0.3202
12459W        W28268   6.617  18.700  13.931 -0.3913  0.2408  0.0425
12460W        W28269  13.997  13.481   2.258 -0.2072 -0.0204  0.0033
12461W        W28270  10.866   4.395   0.484  0.2677  0.0580  0.2179
12462W        W28271   7.233  14.375  15.090  0.0203  0.0529  0.2224
12463W        W28272   2.230   6.176   2.212 -0.0047  0.1407  0.2455
12464W        W28273  16.183   1.953  14.571 -0.1447 -0.1416 -0.0477
12465W        W28274   0.529   0.592   4.479 -0.0825  0.0352  0.1158
12466W        W28275  17.743  16.705  12.903  0.0626  0.0410  0.2940
12467W        W28276   2.678  12.443  14.344  0.1668  0.1348  0.7744
12468W        W28277   7.246  14.202   2.985  0.3128  0.3356  0.0938
12469W        W28278  18.296   7.048  10.748  0.3128 -0.0648 -0.2764
12470W        W28279   0.106  17.364   4.878  0.0160 -0.1836  0.0446
12471W        W28280   1.281   2.388  11.861 -0.3239 -0.0427 -0.1140
12472W        W28281  14.167  12.979   5.549  0.0097 -0.4776  0.1363
12473W        W28282   9.747   0.715  12.596 -0.3628 -0.1308  0.3953
12474W        W28283  17.590  13.317  13.428 -0.1384 -0.0740  0.2017
12475W        W28284   5.359  12.692   4.032  0.1739  0.2301 -0.0807
12476W        W28285   8.416  15.422   0.241  0.0797 -0.2422  0.0432
12477W        W28286   6.480  11.582   3.697 -0.0497 -0.1749  0.1261
12478W        W28287   9.390  15.576   9.680 -0.1343  0.0700  0.2050
12479W        W28288   7.975  12.316  12.658 -0.1359  0.1639 -0.2033
12480W        W28289   0.988   2.977   0.783  0.0469  0.1670 -0.2557
12481W        W28290   2.704  17.812   0.717  0.3390 -0.0996  0.3789
12482W        W28291  18.699   1.333  14.884 -0.1235  0.3128 -0.0376
12483W        W28292  14.757   6.267  13.872  0.1381  0.4276 -0.1830
12484W        W28293  11.297  17.248   3.998  0.1647 -0.1623  0.0684
12485W        W28294  12.790   4.393  13.090 -0.1422 -0.0430  0.0135
12486W        W28295   9.443  17.798   3.162  0.1469 -0.0725 -0.1255
12487W        W28296  10.136  13.129   5.449  0.1565  0.3083  0.0349
12488W        W28297   6.851  10.277  14.930  0.1749  0.1863 -0.1074
12489W        W28298   8.075   4.089   1.499  0.1332 -0.1275  0.1333
12490W        W28299  12.956   2.435   1.485 -0.0398 -0.1078 -0.3009
12491W        W28300   5.605  12.185  13.833  0.1929  0.0491 -0.0871
12492W        W28301   4.110  18.307   3.651 -0.1312 -0.3503  0.1534
12493W        W28302   8.842   6.730   9.290 -0.1182  0.0496  0.1197
12494W        W28303  11.834  19.085   2.438  0.1726  0.1257  0.0912
12495W        W28304   0.617   7.198   5.172 -0.1320 -0.0977  0.2168
12496W        W28305  14.024  14.165  14.288  0.0884 -0.2126 -0.1052
12497W        W28306   3.311  17.302  13.507 -0.1393 -0.0826 -0.1433
12498W        W28307  11.028   6.514   2.383  0.1314 -0.0708  0.0743
12499W        W28308  13.646   2.603  14.703 -0.0251 -0.1721  0.0524
12500W        W28309   8.977   5.762   3.930 -0.0293 -0.0801  0.0326
12501W        W28310  17.313  12.166   2.920  0.2261  0.1090  0.0848
12502W        W28311   9.960   5.190   0.518  0.2896  0.0892 -0.0718
12503W        W28312   1.904   6.959   1.154  0.2420  0.0466 -0.1832
12504W        W28313   7.513  14.881   1.597  0.0622 -0.2796  0.0865
12505W        W28314  18.330  11.292   4.528 -0.2140 -0.0933  0.2837
12506W        W28315  15.132   5.489   0.047 -0.2260 -0.3634  0.0760
12507W        W28316  13.856  14.911  13.610 -0.1616 -0.2835 -0.0383
12508W        W28317  14.183  12.945   1.072  0.0958 -0.2867  0.0027
12509W        W28318  18.611   4.247   1.285  0.0737 -0.0242  0.2170
12510W        W28319  16.305   5.297   4.507 -0.3190 -0.3166 -0.1294
12511W        W28320   5.238   4.865  14.726  0.2225  0.0169  0.0597
12512W        W28321  12.364   1.498   4.107  0.0046 -0.5419 -0.1288
12513W        W28322  10.628   2.769   2.784  0.3833  0.0199  0.0522
12514W        W28323   2.281  14.217   1.483  0.1619  0.0966 -0.1354
12515W        W28324  16.759   9.716   4.284 -0.0188  0.0498  0.0221
12516W        W28325   1.208   1.638   5.118 -0.4773  0.2034  0.1304
12517W        W28326  11.129   7.184   3.815 -0.1412  0.0286  0.0577
12518W        W28327   2.102   1.676   2.796  0.0521 -0.1077  0.0941
12519W        W28328   9.950  17.978  13.965  0.2729  0.0359  0.1491
12520W        W28329   0.475   9.405  14.147  0.0599 -0.0024  0.2062
12521W        W28330   7.477   9.621  15.041  0.2180 -0.1240 -0.1336
12522W        W28331  12.996   9.559   3.965  0.0820 -0.2268 -0.0795
12523W        W28332  18.189  17.718   3.117 -0.2292  0.3594  0.1745
12524W        W28333  15.418  10.558   4.254 -0.0655 -0.1356 -0.0045
12525W        W28334  10.890   9.971   0.205 -0.2085  0.1722 -0.0213
12526W        W28335  14.106  11.311  10.332 -0.1731  0.2940 -0.1462
12527W        W28336  18.396   3.538   3.682 -0.2335  0.0562  0.0174
12528W        W28337  13.479   1.848   4.550 -0.2557 -0.2112  0.1189
12529W        W28338   3.175  13.036  10.799  0.1581  0.1416  0.0464
12530W        W28339   5.746   5.137   3.462  0.2476 -0.1382 -0.1083
12531W        W28340   0.813  18.231   3.179  0.2543 -0.0767  0.3599
12532W        W28341  12.456   0.635  15.070 -0.2180  0.1298  0.1670
12533W        W28342  13.906  12.001  13.282  0.0500  0.2612  0.0447
12534W        W28343   6.834  12.302   5.007  0.1116  0.2280 -0.1057
12535W        W28344  10.171  16.783  13.823 -0.2706 -0.0665 -0.2415
12536W        W28345   1.877  13.355  10.660 -0.1653 -0.2197  0.3274
12537W        W28346  14.010   2.172   9.969  0.2778 -0.5953  0.1917
12538W        W28347  11.454   5.550   4.264  0.1536  0.1263  0.0212
12539W        W28348  15.944  11.188   3.745  0.4702  0.2154 -0.2036
12540W        W28349   5.958   3.963   1.356 -0.3875  0.1888  0.0183
12541W        W28350  19.129   6.310  10.619 -0.1923 -0.2719 -0.0619
12542W        W28351  16.227   1.491   0.798 -0.0276  0.3722  0.1110
12543W        W28352  13.986   6.603  10.011 -0.1204  0.2124  0.0687
12544W        W28353  11.672  17.251   2.704  0.1691 -0.0871 -0.1931
12545W        W28354  10.352   5.532   3.080  0.1345  0.2505 -0.2910
12546W        W28355  12.555   7.855  14.776 -0.0655  0.0474  0.0259
12547W        W28356   1.572   5.741  13.063 -0.2644  0.1977  0.1892
12548W        W28357  16.275  15.425  14.888 -0.0246  0.2889  0.0354
12549W        W28358   6.058  16.284   1.233 -0.1483 -0.1447 -0.1043
12550W        W28359   6.006  11.460  10.950 -0.0734 -0.0178 -0.0381
12551W        W28360   4.786   5.501  14.595  0.2827  0.0741 -0.1949
12552W        W28361  11.805   6.443   0.819 -0.2094 -0.1716 -0.0615
12553W        W28362  12.167   2.722   3.350 -0.2081  0.2129 -0.0959
12554W        W28363   8.795   8.784  12.792  0.2193 -0.1736 -0.0254
12555W        W28364  13.130   4.146  11.525  0.0203 -0.0387  0.1863
12556W        W28365  17.729   5.914   0.980  0.2364 -0.0936 -0.1492
12557W        W28366   6.735   8.875   2.378  0.3577 -0.0065 -0.0366
12558W        W28367  17.191  13.798   4.852 -0.1092  0.1011 -0.0561
12559W        W28368  19.141   1.643   4.864 -0.0530  0.0591 -0.3099
12560W        W28369  10.421   4.444   0.664 -0.0871 -0.1158  0.1326
12561W        W28370   8.139   1.340   1.125 -0.0239 -0.1768  0.2120
12562W        W28371   7.563  14.658   0.236  0.0147 -0.3301 -0.1501
12563W        W28372   7.349   4.220   0.226  0.0637 -0.0116 -0.1281
12564W        W28373  12.664   2.737  10.867  0.1578  0.3164 -0.0462
12565W        W28374   1.673  10.612   0.175  0.1477 -0.0356 -0.0525
12566W        W28375   5.085   8.140  13.659 -0.1819  0.0779  0.1240
12567W        W28376  18.229  13.647   3.931  0.1576  0.0803 -0.1261
12568W        W28377  10.438  14.650  12.927  0.0493  0.2644  0.2022
12569W        W28378  13.037   5.414  14.989  0.2903  0.3855  0.3394
12570W        W28379   5.261   9.625   0.940  0.2264 -0.2070  0.0828
12571W        W28380   4.372  18.995   0.939 -0.2227  0.1385  0.4641
12572W        W28381   0.447   9.348  10.655  0.1590  0.0477 -0.1659
12573W        W28382  18.976  12.880  12.561  0.1638 -0.0282 -0.0053
12574W        W28383  14.562  12.390   5.109  0.2963 -0.0469  0.0776
12575W        W28384   2.295  14.106   5.297 -0.0704  0.3777 -0.2093
12576W        W28385  13.343   9.768   9.069  0.2801  0.2487  0.1756
12577W        W28386   4.517   8.581   3.590 -0.0632 -0.3543 -0.2248
12578W        W28387  10.310   8.010   4.734 -0.0384 -0.1204  0.2888
12579W        W28388  13.851   4.461  14.871  0.2025 -0.3169 -0.0148
12580W        W28389   3.260  17.911   0.625 -0.3295 -0.0758 -0.0143
12581W        W28390   0.201   9.003  14.315 -0.0898  0.2911 -0.2590
12582W        W28391   3.803   9.327  12.859 -0.0263 -0.0780 -0.1802
12583W        W28392  13.912  14.964   1.961  0.1296 -0.0210 -0.1099
12584W        W28393  13.956   1.256   3.448 -0.3340  0.2045 -0.2719
12585W        W28394   7.589   4.847  13.876 -0.1030  0.1890 -0.6273
12586W        W28395   1.912  13.382   4.548 -0.0307  0.0453 -0.0796
12587W        W28396  16.407   2.175  10.667 -0.1759 -0.0398 -0.0254
12588W        W28397   7.316   1.676  13.309  0.3236 -0.1012  0.0428
12589W        W28398   2.517  12.054   2.174  0.1963  0.2113  0.6116
12590W        W28399   4.205  11.576  14.389  0.1877 -0.1258  0.3300
12591W        W28400   8.032  15.241   2.176  0.3632 -0.1159  0.0860
12592W        W28401  17.435   6.729  15.095  0.0240  0.0567  0.1501
12593W        W28402   2.591   9.620  11.972 -0.2100  0.3198  0.3060
12594W        W28403   7.077  18.653   5.417  0.0769 -0.1686  0.2735
12595W        W28404  17.240  10.930  13.994 -0.1017 -0.2130 -0.3340
12596W        W28405  17.308  17.389   4.181 -0.0205  0.2865 -0.1423
12597W        W28406   9.939  16.503  12.764  0.0075 -0.0311 -0.0791
12598W        W28407  19.004   0.364   1.258 -0.1359 -0.1226  0.1693
12599W        W28408   2.673   5.444   4.846  0.0844 -0.0494  0.0263
12600W        W28409   1.241  12.158  14.437 -0.1354 -0.1027 -0.3839
12601W        W28410   1.509   1.948  11.827 -0.1084  0.1226 -0.3294
12602W        W28411  12.578  13.452   4.363  0.1733  0.0204 -0.0530
12603W        W28412   6.314   9.024  10.624 -0.0956  0.0659  0.2292
12604W        W28413   1.911   2.705  11.049  0.1119 -0.0633 -0.2058
12605W        W28414   1.332   4.993  11.963  0.1288 -0.3990  0.3023
12606W        W28415  11.037  10.159   2.970 -0.2264 -0.0502  0.3105
12607W        W28416  16.050   9.024  13.625 -0.1958  0.2356  0.3005
12608W        W28417  11.588  17.971  12.326  0.1273 -0.0318  0.0380
12609W        W28418  11.655  18.015  15.195  0.2828 -0.2639  0.1020
12610W        W28419  17.253   8.046  12.320 -0.0229  0.0505  0.0880
12611W        W28420  13.938  14.899   0.469 -0.1716 -0.0821  0.0392
12612W        W28421  10.967   0.818   4.598  0.0456 -0.2141  0.0745
12613W        W28422   5.215   1.983  13.982  0.1919 -0.0143  0.1880
12614W        W28423   8.587  18.788   4.485  0.1663  0.1471  0.3042
12615W        W28424   2.889   9.669  12.775 -0.1053  0.0145 -0.1622
12616W        W28425   6.799   6.536   0.631  0.0345  0.1147  0.1594
12617W        W28426  18.084   7.339   1.758 -0.1226 -0.1537  0.2805
12618W        W28427   1.245  18.312   0.612 -0.1864 -0.1293  0.1300
12619W        W28428   1.149   5.275  10.066 -0.3773  0.1337  0.1672
12620W        W28429   1.784  13.310  12.114  0.0400 -0.1093  0.1353
12621W        W28430  11.519   6.711  10.868 -0.1008 -0.0745 -0.2041
12622W        W28431  12.040  16.604   6.120  0.2403 -0.1199  0.0789
12623W        W28432  11.231   2.386  10.569  0.1651  0.1954  0.0687
12624W        W28433   7.044   1.066   5.366  0.1081  0.2078 -0.0124
12625W        W28434  15.545   6.658  11.926  0.0245 -0.2225 -0.1124
12626W        W28435  10.939   8.853   2.113 -0.0992 -0.0244 -0.0254
12627W        W28436   9.447   9.531   5.618 -0.0321 -0.4074 -0.3834
12628W        W28437   1.277   9.125  12.667  0.0356  0.1081  0.3636
12629W        W28438  11.517   0.479   2.361  0.0718 -0.0119  0.4858
12630W        W28439  16.977   2.972  15.056 -0.1139  0.0898 -0.0099
12631W        W28440  14.872  16.171   4.252  0.1043 -0.1985 -0.1213
12632W        W28441  17.524   9.252   2.674 -0.0532  0.2700 -0.0937
12633W        W28442  13.741  11.943   3.253  0.2146 -0.1627  0.1098
12634W        W28443   4.110  15.576  13.440 -0.2346 -0.1654  0.2726
12635W        W28444   0.890   8.676  10.852 -0.0937 -0.3869 -0.3815
12636W        W28445   5.756   7.617  12.246  0.1765  0.3678  0.0473
12637W        W28446  18.457  18.486   0.970 -0.0539  0.0853 -0.1074
12638W        W28447  13.951  13.223  14.328  0.0803 -0.2717  0.2274
12639W        W28448   0.648   5.646  10.905 -0.0070  0.3622 -0.3102
12640W        W28449   0.152  17.999   2.213 -0.0267 -0.0174 -0.0148
12641W        W28450   4.781  12.747   4.973  0.1823  0.0668  0.1635
12642W        W28451  15.107   5.861  13.822 -0.0283  0.1112 -0.0294
12643W        W28452  10.869  17.437  10.013  0.0119 -0.1742 -0.1363
12644W        W28453  16.829   1.080   5.725  0.1696 -0.2904 -0.0464
12645W        W28454  10.916   6.791  11.900 -0.2984  0.0983 -0.2823
12646W        W28455  16.767  11.051  15.006  0.2075  0.2095  0.0304
12647W        W28456   1.802   9.924  13.052  0.1497 -0.0838  0.0430
12648W        W28457   4.015   1.850   3.964 -0.2262 -0.1875 -0.0162
12649W        W28458  10.374   8.127  13.706 -0.1815 -0.1817 -0.0534
12650W        W28459   3.673   6.812   4.265  0.3402  0.1571 -0.0376
12651W        W28460  17.185  17.670  11.860  0.1074  0.0186  0.2629
12652W        W28461  11.313   9.690   4.211  0.1590  0.1357  0.2912
12653W        W28462   6.361  17.613   5.259 -0.1686 -0.1984  0.1692
12654W        W28463   8.206  14.611   1.332 -0.3536  0.1370  0.1215
12655W        W28464   1.973  10.587  12.064  0.2712 -0.0030 -0.3030
12656W        W28465  14.442  12.683  13.062 -0.2050  0.0581 -0.1371
12657W        W28466   6.036  13.366  12.619  0.0836 -0.3206 -0.0317
12658W        W28467   0.644   8.006  13.306  0.0459 -0.1212 -0.1055
12659W        W28468  17.026   5.240   2.862  0.0357 -0.0291 -0.2312
12660W        W28469  17.491  11.279  13.693  0.0120 -0.1438 -0.2246
12661W        W28470   7.320   6.471  13.503 -0.1415 -0.0187  0.0697
12662W        W28471   6.014  10.503   1.066  0.0968 -0.0241  0.0853
12663W        W28472  10.775   8.452  12.873  0.0548 -0.2591 -0.6713
12664W        W28473  12.910  10.188   2.695  0.0429  0.2699 -0.0502
12665W        W28474   8.678  16.827   5.992  0.3383 -0.1166 -0.0178
12666W        W28475  10.755  12.276  13.169 -0.1299  0.0643  0.3936
12667W        W28476  12.037   2.652   1.868 -0.0911  0.2550 -0.3292
12668W        W28477   0.410   0.596   2.558 -0.4522 -0.1902 -0.2362
12669W        W28478   4.489  11.604   2.218 -0.1932 -0.0579  0.0347
12670W        W28479   1.586  15.256   5.068  0.0953 -0.0250 -0.1021
12671W        W28480  17.992   0.984   0.729 -0.0775 -0.1518 -0.3484
12672W        W28481   1.873  13.042  11.142  0.2930  0.0339  0.1197
12673W        W28482  14.874   8.090  13.134 -0.2015 -0.5051 -0.2974
12674W        W28483  12.724   3.871   0.116  0.3938 -0.1984  0.3668
12675W        W28484  11.504   2.652  14.670 -0.0739 -0.2241  0.1781
12676W        W28485  15.366   3.366  14.828 -0.0563 -0.4279  0.1040
12677W        W28486  14.629  13.044   1.503 -0.2631  0.1829 -0.2715
12678W        W28487   2.093   8.297  11.448 -0.3385 -0.1537  0.0273
12679W        W28488  12.867  11.730   3.571 -0.0347  0.3450  0.2208
12680W        W28489  13.227  15.483  13.564 -0.3328 -0.1457 -0.2083
12681W        W28490   3.804   3.151   4.636 -0.3527 -0.1243 -0.3554
12682W        W28491   8.128   7.804  13.801 -0.2296 -0.0175 -0.2635
12683W        W28492  12.626  17.271  12.659 -0.0315  0.0373  0.0135
12684W        W28493  17.199  11.401   3.200  0.1780 -0.0398 -0.1427
12685W        W28494  13.303  12.536   3.541 -0.1650 -0.0231  0.1661
12686W        W28495  10.903  14.899  10.030 -0.0489 -0.2453  0.1796
12687W        W28496  15.659   7.675   2.734  0.1784  0.0187 -0.0452
12688W        W28497   9.544  14.948   3.414 -0.3048 -0.0922 -0.0368
12689W        W28498  15.716  15.565   0.252  0.0835 -0.1276 -0.3036
12690W        W28499   0.030  18.451   3.719 -0.4382  0.0733  0.0580
12691W        W28500  13.977   0.187   4.668  0.0758  0.0780  0.4774
12692W        W28501   8.661  16.159  11.965  0.0901 -0.1881 -0.0606
12693W        W28502   3.118  10.483  10.604 -0.1943  0.1844 -0.2576
12694W        W28503  13.676   2.140  14.858  0.0481  0.2085  0.0503
12695W        W28504   8.075   1.905   1.003 -0.0329 -0.0363 -0.0292
12696W        W28505   0.348   5.555   0.819 -0.0634  0.0452 -0.1098
12697W        W28506  15.604  14.056  13.908  0.2485  0.1847 -0.4014
12698W        W28507  17.366   4.662   5.893 -0.0336 -0.0753 -0.1093
12699W        W28508  17.013  18.114   0.110  0.1683  0.1825  0.3263
12700W        W28509   5.303  15.101   2.614  0.2290 -0.3985 -0.0205
12701W        W28510   7.377  12.451   0.645  0.1382 -0.0979 -0.3146
12702W        W28511   3.563  11.731   2.533 -0.0433  0.2020 -0.2154
12703W        W28512   2.315   8.684   2.696  0.0192 -0.0025  0.1176
12704W        W28513   9.580  14.417   3.456  0.1562 -0.0819 -0.0126
12705W        W28514   0.657  11.863   2.351 -0.2305  0.0410  0.1545
12706W        W28515   2.550  13.113   2.914 -0.3571 -0.1613 -0.0404
12707W        W28516   3.267   0.424   3.127  0.1176  0.0560  0.1739
12708W        W28517   7.759   4.430  10.226  0.0537  0.0061 -0.1300
12709W        W28518   6.345   4.751   3.917 -0.2283 -0.3872 -0.1711
12710W        W28519   6.424   9.429  14.653  0.1212 -0.2910 -0.0388
12711W        W28520  14.643   0.524   4.742  0.2152  0.2539 -0.2558
12712W        W28521  15.184   5.681   3.416  0.2890  0.1577 -0.0796
12713W        W28522  13.590   2.468  14.026 -0.1084  0.1020 -0.3726
12714W        W28523  18.902   2.076  14.875 -0.0628 -0.0238  0.2083
12715W        W28524   0.026   4.346  10.891 -0.2277  0.1109  0.3319
12716W        W28525   5.037   6.432  13.518 -0.0214 -0.1387 -0.0405
12717W        W28526   8.340   7.537  14.875  0.1935  0.2193  0.0021
12718W        W28527   5.949  15.056   3.984  0.3264 -0.1888 -0.1358
12719W        W28528   4.844   7.956  12.203 -0.0624 -0.2536 -0.1206
12720W        W28529   7.990   8.479  11.711  0.0106  0.0337 -0.0121
12721W        W28530  15.931  14.994  11.673 -0.2411 -0.1244  0.1283
12722W        W28531  11.610   6.282   3.934  0.0264 -0.0867  0.1023
12723W        W28532  13.856   1.842  12.957  0.0578  0.1668 -0.2361
12724W        W28533   3.222   6.943   1.642 -0.1978 -0.1827  0.1285
12725W        W28534   2.183   5.278   4.041 -0.2429 -0.1122 -0.0995
12726W        W28535   4.488  18.269  13.482 -0.1089  0.0295  0.2453
12727W        W28536   4.086  16.146  11.897  0.1703  0.0895 -0.1189
12728W        W28537   3.614  16.276  13.810 -0.0359  0.0638 -0.0540
12729W        W28538   9.133  13.781  11.666  0.2749 -0.3959  0.3135
12730W        W28539   0.609  10.115  11.520  0.1026 -0.1008  0.3848
12731W        W28540   0.033  14.438   4.657 -0.2374 -0.0127 -0.1102
12732W        W28541   4.121  12.936   0.906 -0.1832 -0.1424  0.0762
12733W        W28542  15.691  13.435   4.930  0.0699  0.1727  0.3369
12734W        W28543   4.663  16.255  10.443  0.2277 -0.0880 -0.1674
12735W        W28544   2.223  11.667   4.558  0.1730 -0.0411  0.2487
12736W        W28545   2.389   3.435  10.779 -0.2224 -0.3039 -0.1720
12737W        W28546  12.551  18.502  14.097  0.0805  0.1721 -0.1258
12738W        W28547   4.720   6.129  14.413  0.0469 -0.0949 -0.1964
12739W        W28548  13.665   1.793  14.475  0.1766  0.0957 -0.0148
12740W        W28549  18.828   1.150   0.499 -0.0216  0.3019  0.2116
12741W        W28550  17.513  16.048   3.417 -0.0330  0.3714 -0.2349
12742W        W28551   7.216  16.475  13.343  0.1440 -0.1346 -0.2035
12743W        W28552   2.541  15.052  14.779  0.0428  0.3189 -0.0675
12744W        W28553  15.312   7.643   1.801  0.0458 -0.1119  0.0606
12745W        W28554   0.588   7.997  13.863 -0.0006  0.1535  0.3684
12746W        W28555   9.305   9.066  14.980 -0.4187 -0.0772 -0.0622
12747W        W28556   9.048   4.546  12.607 -0.0131  0.2819  0.0559
12748W        W28557  14.618   1.280  12.320 -0.0399  0.3049 -0.0561
12749W        W28558   4.857  10.962   5.112  0.0596  0.3741  0.3649
12750W        W28559  12.900  15.014   9.826  0.3852 -0.1882  0.0836
12751W        W28560   0.520  14.820  10.571  0.2098 -0.1632  0.3177
12752W        W28561  18.119   4.129   1.497  0.1523  0.1675  0.2938
12753W        W28562   5.623   8.745   4.674 -0.3713 -0.0316 -0.1632
12754W        W28563  17.970  18.775  14.778  0.1873 -0.0794  0.2562
12755W        W28564  10.754  11.213   1.895 -0.0558  0.2537  0.2155
12756W        W28565  18.506   9.463   9.773 -0.1981  0.1318 -0.1199
12757W        W28566   3.236  12.493   5.027 -0.0145  0.1313  0.0779
12758W        W28567  13.110   6.490  14.347  0.1589  0.1013 -0.0179
12759W        W28568  13.159  16.591  11.857  0.1408  0.0436 -0.2162
12760W        W28569   6.343   9.916  13.739 -0.0544 -0.0222  0.2999
12761W        W28570   3.417   0.590  12.840 -0.0570  0.2287  0.1543
12762W        W28571   2.119   9.674   3.818 -0.1176  0.0779 -0.3019
12763W        W28572  14.710   4.056   3.050  0.5261 -0.1037  0.3670
12764W        W28573   3.532  12.918   4.514  0.1113 -0.1164 -0.1350
12765W        W28574   8.291  15.406   4.075 -0.1923  0.2764 -0.1720
12766W        W28575  12.088   1.646   4.480  0.0202  0.2596 -0.1307
12767W        W28576  11.645  13.119   0.714  0.0031  0.0731  0.2546
12768W        W28577   4.977   0.192   4.634 -0.1603 -0.1119 -0.0428
12769W        W28578   3.071  16.241  12.141  0.5067  0.2953 -0.0014
12770W        W28579   1.345  13.966   1.248 -0.1169 -0.2968 -0.0767
12771W        W28580   2.145  15.163  13.752 -0.1324  0.4162  0.2032
12772W        W28581  18.769   6.325  14.042 -0.0100 -0.0793  0.1248
12773W        W28582   6.333  15.954   0.950  0.0160  0.0605 -0.1398
12774W        W28583   1.981   9.682   3.333  0.1860  0.0630 -0.0522
12775W        W28584   4.920   4.268   0.684  0.2747 -0.3465  0.0499
12776W        W28585   1.600   1.312  12.069 -0.1637 -0.1059 -0.0513
12777W        W28586   0.241   2.992  12.155 -0.0533  0.2128 -0.3174
12778W        W28587  12.223   8.055  11.999  0.4328 -0.0885 -0.4572
12779W        W28588  17.623  19.008  11.803  0.1709  0.1046 -0.2002
12780W        W28589   5.700  12.964  10.482 -0.1704  0.0787 -0.1926
12781W        W28590  18.339   3.616  10.970  0.4301  0.1839  0.0996
12782W        W28591   5.284  15.354  15.063  0.2901 -0.0475 -0.0826
12783W        W28592   8.577  12.992   5.216 -0.1971 -0.0037  0.0790
12784W        W28593   3.242  16.617   0.697  0.2147 -0.0512  0.0603
12785W        W28594   2.080   8.601  14.198  0.2021  0.1320  0.0922
12786W        W28595   9.140   7.698   1.554  0.1663  0.2186 -0.4148
12787W        W28596  15.378  10.320   2.221 -0.2724 -0.0286 -0.2019
12788W        W28597   9.314  11.239  14.808  0.2067  0.2068 -0.0505
12789W        W28598   3.547   2.615  14.583 -0.1031 -0.1512 -0.0934
12790W        W28599  14.143   7.365   3.734  0.0710 -0.6117 -0.0494
12791W        W28600  13.778   7.125   0.041  0.1629  0.1486 -0.3152
12792W        W28601  12.037  11.640   0.884 -0.1884 -0.0451  0.2510
12793W        W28602  10.085  18.674   3.840  0.0273 -0.1486 -0.0141
12794W        W28603   9.224   4.000   2.738  0.0002 -0.1002  0.1127
12795W        W28604   8.552   2.160   4.762 -0.1623 -0.4334  0.0742
12796W        W28605  10.276  15.130   3.896 -0.0876 -0.1510 -0.1313
12797W        W28606  16.479   3.091   0.115 -0.2520  0.0558 -0.1008
12798W        W28607   1.690  13.736  13.467  0.3848  0.0423 -0.1705
12799W        W28608   4.972   2.892  12.637  0.1836  0.1472  0.0122
12800W        W28609  10.701   8.573  11.880  0.3601  0.0252 -0.1431
12801W        W28610   9.207   0.906  15.056  0.2194  0.0834 -0.2753
12802W        W28611  13.339   8.242  10.552 -0.2778  0.0374 -0.0439
12803W        W28612   5.346   1.719   3.007  0.1135 -0.0486  0.1375
12804W        W28613  18.146  17.334  12.150 -0.2985  0.0511  0.1021
12805W        W28614  14.483   8.637  14.212 -0.1400  0.0696  0.2567
12806W        W28615  16.638   2.692  13.743  0.4764  0.3999  0.0599
12807W        W28616   6.007  12.281   0.498  0.1103  0.0353 -0.2617
12808W        W28617   2.803   5.629   0.254  0.3730  0.0618  0.0731
12809W        W28618   0.505   7.950  12.423 -0.2390  0.2247 -0.0428
12810W        W28619  11.221   7.118  11.053 -0.0226  0.0832 -0.0158
12811W        W28620  16.383   7.155   4.770 -0.1542  0.1923 -0.2880
12812W        W28621  11.871   8.178  13.485 -0.0789 -0.0826 -0.0657
12813W        W28622  17.873   7.830   0.045 -0.0617 -0.2071  0.2782
12814W        W28623  16.201   3.725   0.982 -0.0355 -0.1028 -0.1820
12815W        W28624   0.112   2.480  13.778  0.3542 -0.0181  0.0717
12816W        W28625   6.541  17.853   2.081 -0.0265 -0.1867 -0.2081
12817W        W28626  10.705  13.844  13.336  0.2736  0.1399 -0.3180
12818W        W28627  14.115  12.367   4.549 -0.4302  0.1598  0.1852
12819W        W28628  11.889   0.447   4.917  0.3255 -0.0440 -0.4499
12820W        W28629   8.842   0.427   4.994 -0.0600  0.2429 -0.0489
12821W        W28630  10.181  12.256   6.069 -0.1242 -0.0851  0.1394
12822W        W28631   0.026  15.393   5.611 -0.0337  0.0895  0.1116
12823W        W28632  11.507   1.259   9.967  0.2999  0.2437  0.1230
12824W        W28633  10.232   2.444   3.610 -0.0750  0.1063 -0.0635
12825W        W28634   4.664  18.057  11.703  0.1871 -0.3154 -0.1785
12826W        W28635   8.549   1.715   1.052 -0.2093 -0.0794  0.1394
12827W        W28636  15.463   7.472   3.167 -0.0417  0.3070 -0.0566
12828W        W28637  16.953   9.988   6.101 -0.0610  0.1195  0.2805
12829W        W28638   5.112  12.456   5.229  0.0682  0.0255  0.3477
12830W        W28639   7.954  12.850  14.591  0.1949 -0.0521 -0.1209
12831W        W28640   9.544   7.977  14.459 -0.3035  0.1555 -0.1272
12832W        W28641   1.904  10.170   4.661  0.0171  0.3057 -0.1144
12833W        W28642  10.963   7.215  14.333 -0.1403  0.0857  0.1878
12834W        W28643   9.489  16.432  12.481  0.1109 -0.0614  0.1448
12835W        W28644   2.643  15.285  13.955  0.2115  0.3330 -0.1064
12836W        W28645   1.361  13.177  11.161 -0.0255 -0.0170  0.2020
12837W        W28646  14.689   4.891   0.089  0.1026 -0.1762  0.0436
12838W        W28647   4.456  14.975  13.028 -0.0721  0.0910 -0.0824
12839W        W28648  10.949  10.706  13.500  0.4383 -0.2284  0.0249
12840W        W28649   5.565   7.917   2.328 -0.3048  0.2856  0.1830
12841W        W28650   2.954  13.862  11.211  0.1733  0.1666  0.1101
12842W        W28651  13.445   1.752  13.445 -0.0820  0.0594 -0.0340
12843W        W28652  17.147  18.160  11.660  0.0706 -0.0460  0.3626
12844W        W28653   6.740  16.614   2.572  0.3934 -0.2412 -0.1630
12845W        W28654   6.041   3.515   9.447  0.0755 -0.0940  0.0587
12846W        W28655   9.211  18.188   2.194 -0.3144 -0.2575  0.1085
12847W        W28656   4.784  17.496   3.431 -0.0966  0.3885 -0.2189
12848W        W28657   8.978  17.791   5.729 -0.2118  0.1626 -0.1551
12849W        W28658   0.129   1.634   4.384 -0.1231 -0.2271  0.1341
12850W        W28659  18.525  11.707  10.496  0.0832  0.0575 -0.1698
12851W        W28660   3.413  12.311  11.542 -0.0274 -0.2464 -0.0350
12852W        W28661  15.814   3.915   2.182 -0.3308  0.1659 -0.2173
12853W        W28662   3.951  17.599   3.295 -0.3101 -0.1272  0.1369
12854W        W28663  11.462   8.579  12.312  0.1685 -0.0769 -0.3982
12855W        W28664  18.110   9.188  12.556 -0.1158 -0.1100  0.4946
12856W        W28665   3.378   9.915   4.382 -0.3654  0.1817  0.3027
12857W        W28666   9.433   9.254   3.325  0.2043  0.1204 -0.3161
12858W        W28667  18.373   7.779  11.808  0.1079 -0.1337 -0.1905
12859W        W28668   3.077   2.416  14.760 -0.4058  0.0635  0.2091
12860W        W28669   2.984  13.924   3.335 -0.1528  0.1300 -0.1236
12861W        W28670  16.663   0.676  11.239 -0.0305 -0.1003  0.1285
12862W        W28671  18.250  10.429   1.139 -0.2621 -0.1734  0.1814
12863W        W28672   8.550  15.166   2.253  0.0972  0.1214  0.1144
12864W        W28673   3.142  10.668   3.242  0.1383  0.0426  0.2376
12865W        W28674   4.638   8.806  12.574  0.0277 -0.0194  0.0482
12866W        W28675   1.324   5.592   1.899  0.1079 -0.1461  0.0377
12867W        W28676   7.742   2.879   3.714  0.0396  0.1288  0.1613
12868W        W28677   1.355   7.514  12.256  0.0266  0.0706  0.0127
12869W        W28678   1.179  11.313  11.548  0.1463  0.3061  0.1969
12870W        W28679  13.066  11.915  12.283  0.3859 -0.1842 -0.2838
12871W        W28680   1.728  16.401  10.436 -0.1523  0.0217  0.0446
12872W        W28681  15.425   1.109  10.077 -0.2713 -0.0814 -0.3998
12873W        W28682  17.716  13.137   1.798  0.1419 -0.2055 -0.1997
12874W        W28683  12.884  14.434   4.029 -0.3382 -0.0061 -0.1032
12875W        W28684   1.719   5.243  10.908  0.2121  0.0161 -0.2482
12876W        W28685  10.199  12.055   1.716  0.3152 -0.0942 -0.1065
12877W        W28686  16.934  18.920   3.880  0.1686 -0.2239  0.0800
12878W        W28687  15.632  14.800  11.130  0.0624 -0.0192 -0.0219
12879W        W28688  17.172  18.194  13.498  0.0748  0.0974  0.1121
12880W        W28689  10.339   5.333   5.091  0.0586  0.1628 -0.0283
12881W        W28690  18.075  10.208   1.562  0.1061 -0.0851  0.1503
12882W        W28691   9.351   5.121  12.422  0.0716  0.5317  0.0536
12883W        W28692   5.306   7.394   3.820  0.0448  0.1125  0.2094
12884W        W28693  17.253   1.410  11.151 -0.2892  0.2366  0.2918
12885W        W28694  14.789  12.318   6.053 -0.0808 -0.0528 -0.0545
12886W        W28695   6.835  17.042  11.984 -0.4801  0.0078 -0.2208
12887W        W28696  15.680  11.975  13.905  0.3196  0.1493  0.0246
12888W        W28697  18.582  16.335   3.411 -0.1112  0.1078  0.1868
12889W        W28698  10.614  11.038  13.662  0.1657  0.1066  0.4024
12890W        W28699   3.499  16.733   4.658  0.0737 -0.2600 -0.1243
12891W        W28700  17.432  13.699   0.716 -0.0284  0.1264  0.0068
12892W        W28701  12.526   5.355  14.134 -0.1315 -0.2305 -0.1596
12893W        W28702  18.337  11.888  13.155 -0.0563  0.1494 -0.0390
12894W        W28703  12.123  10.318   0.450 -0.1590 -0.1975 -0.3105
12895W        W28704   9.988  14.950  11.592 -0.2625 -0.0825  0.0447
12896W        W28705   3.273   4.675   2.881 -0.4251  0.1445 -0.1149
12897W        W28706   0.471   6.969   1.288  0.1505  0.1548  0.3566
12898W        W28707   6.883   7.101   1.184  0.0076 -0.2184  0.2056
12899W        W28708  10.725   7.656  12.288  0.0613 -0.1038 -0.2340
12900W        W28709   0.148  12.370   3.451  0.2609 -0.1249 -0.0116
12901W        W28710  12.974   1.192   0.018 -0.1622 -0.0410  0.0151
12902W        W28711   4.635  15.735   0.072  0.2336  0.1589  0.4537
12903W        W28712  13.259   0.225   3.695  0.2187 -0.0726  0.0881
12904W        W28713  12.680   8.795  11.141  0.0187  0.2052  0.0052
12905W        W28714   6.215  13.233  11.122 -0.1166 -0.2289 -0.1338
12906W        W28715   7.225   5.180   3.114 -0.2444 -0.0043 -0.1133
12907W        W28716   5.397  15.408  11.433  0.0822  0.0450 -0.0105
12908W        W28717   4.435   2.099   2.495 -0.4128 -0.0134 -0.2195
12909W        W28718   0.301  10.281   3.652  0.1204 -0.3732  0.2134
12910W        W28719  16.631   3.603   3.473 -0.0042  0.1500 -0.3744
12911W        W28720   5.408  15.968  13.551  0.1904 -0.3427  0.2362
12912W        W28721   2.387   3.546  14.870 -0.2201 -0.0588  0.3087
12913W        W28722  15.906  18.657  12.773  0.0894 -0.1256 -0.0334
12914W        W28723   1.053  13.863  11.934 -0.0336 -0.0522  0.3389
12915W        W28724   1.048   4.149  10.871 -0.0688 -0.1943  0.0746
12916W        W28725  14.440  13.763  14.129  0.3526 -0.0196 -0.2173
12917W        W28726   9.469  12.640  11.428  0.0226  0.0326 -0.0241
12918W        W28727   4.784   7.211   0.894 -0.2391  0.3000 -0.2793
12919W        W28728   7.578   6.010   3.072 -0.2786  0.0366  0.0549
12920W        W28729   7.784  17.817   4.242  0.1279 -0.0286  0.3474
12921W        W28730  16.652   9.662   3.794 -0.0503  0.0301 -0.4089
12922W        W28731   6.506   0.628  10.834  0.0545  0.1292  0.0152
12923W        W28732  12.863  15.830   1.617 -0.1993  0.0488 -0.0545
12924W        W28733   8.225  11.230   4.981 -0.1077 -0.1312 -0.0001
12925W        W28734   7.334   2.085   0.466 -0.1840  0.1271 -0.0314
12926W        W28735   9.052  15.906  13.634  0.0799  0.0419 -0.1099
12927W        W28736  17.148  17.814   2.664 -0.2075  0.0373 -0.0946
12928W        W28737  17.714  16.620   4.872  0.4417 -0.3651 -0.2963
12929W        W28738  15.381   6.166   3.508 -0.1803  0.1882  0.0459
12930W        W28739   9.655  18.064  14.866 -0.2023 -0.1956 -0.2636
12931W        W28740   7.522   7.284   2.876 -0.0971 -0.0979 -0.4040
12932W        W28741  11.539  13.565   0.779 -0.0324 -0.1312  0.1188
12933W        W28742   1.130  12.276   1.634  0.0648  0.1676  0.0928
12934W        W28743  18.202  14.296  11.217  0.0560 -0.2228 -0.2210
12935W        W28744  17.101  14.138   0.105  0.0752 -0.1350  0.0507
12936W        W28745  18.210  14.361   0.033  0.0091  0.2211 -0.1812
12937W        W28746   8.190   3.315   1.507  0.2724  0.3487 -0.1309
12938W        W28747   9.385   9.657   5.146 -0.2138 -0.1959  0.3662
12939W        W28748  12.189   6.448  11.208 -0.1703  0.0393 -0.1403
12940W        W28749   7.120   9.595  11.750  0.0687 -0.1752 -0.2042
12941W        W28750  18.094  15.139  14.854 -0.1077 -0.2168  0.1097
12942W        W28751   9.147  13.723   4.725 -0.2476 -0.0090  0.2879
12943W        W28752   0.551  11.181  12.978  0.2141  0.3370  0.2194
12944W        W28753   7.426  18.533  11.840 -0.1497 -0.4162 -0.1195
12945W        W28754   4.985  11.955   0.015  0.1494 -0.0595  0.0925
12946W        W28755  14.332  16.387   1.432 -0.2332  0.2298  0.1971
12947W        W28756  18.418   3.374  12.685 -0.0104 -0.2484  0.0681
12948W        W28757  15.187  16.282  13.520 -0.3058  0.0882  0.4364
12949W        W28758  13.646  10.220  11.694 -0.2671  0.0553 -0.0080
12950W        W28759   4.286  18.745   3.994 -0.2997 -0.1286 -0.1817
12951W        W28760  17.906   1.684   5.336 -0.1424 -0.0640 -0.4624
12952W        W28761  13.354   7.178   2.795  0.3049 -0.0275 -0.3022
12953W        W28762   5.886   6.439  11.137 -0.0331 -0.2628  0.1146
12954W        W28763   1.188  18.679  12.686 -0.1609  0.1787 -0.3694
12955W        W28764  16.929  10.684   2.735 -0.0051  0.0399 -0.1878
12956W        W28765   5.218   8.946   3.193  0.0107  0.3412  0.0144
12957W        W28766   3.675  14.767   2.047  0.0386 -0.2033 -0.0654
12958W        W28767   6.400  10.998   5.050 -0.1632 -0.0040 -0.0150
12959W        W28768   2.211  15.444   0.030  0.0549 -0.1471 -0.0431
12960W        W28769   2.504  16.544   0.171 -0.1244  0.6462 -0.1118
12961W        W28770  17.785   5.478  11.283 -0.1918 -0.0924 -0.0306
12962W        W28771  12.605  15.864   4.523  0.0615 -0.2391 -0.3835
12963W        W28772   7.542  19.036  13.053  0.2123 -0.4279  0.1347
12964W        W28773  14.695   2.486   1.910 -0.0418 -0.0972  0.0601
12965W        W28774  11.610   7.635  10.391 -0.0040 -0.1066  0.1301
12966W        W28775   1.568  12.288  12.245  0.1379 -0.1844 -0.2524
12967W        W28776  17.035  15.833   1.345  0.1195  0.0001 -0.2183
12968W        W28777  14.837  13.044  11.482 -0.2947 -0.0324 -0.0948
12969W        W28778  18.427   1.527  12.908 -0.0213 -0.0571 -0.0697
12970W        W28779   2.787  10.588   1.171 -0.2681  0.0528 -0.0701
12971W        W28780   8.348  13.947  13.315  0.2053 -0.1303 -0.0270
12972W        W28781   3.033   3.283   3.526 -0.2568  0.1188 -0.0747
12973W        W28782  13.113  15.709   3.600 -0.0614  0.5065  0.0577
12974W        W28783   6.921  16.399  10.731  0.2678  0.4241  0.2043
12975W        W28784   5.484   6.557  10.908 -0.0227 -0.0339 -0.1709
12976W        W28785  11.959   3.957  13.237 -0.0021  0.2915  0.0369
12977W        W28786  16.931   9.708   5.146  0.0878  0.2235  0.2553
12978W        W28787  14.532  16.850  11.557  0.3154 -0.0769 -0.0227
12979W        W28788   3.590   2.380   4.517 -0.0560 -0.3333 -0.2402
12980W        W28789   6.064  12.637   4.816  0.1805  0.1265  0.2346
12981W        W28790  14.414   6.463   4.740 -0.2664 -0.0613  0.2622
12982W        W28791  17.654   6.065  14.554  0.2444 -0.1193  0.2340
12983W        W28792  11.841   6.571  11.740 -0.3452  0.6819  0.0980
12984W        W28793   0.761   4.634  15.119  0.3613  0.0727  0.0835
12985W        W28794   0.169   9.086   2.000 -0.0203 -0.1375 -0.0313
12986W        W28795  11.134  14.333  11.340  0.5013  0.0434 -0.0825
12987W        W28796  13.692  12.215   5.458  0.2156  0.1695 -0.1641
12988W        W28797  15.769   6.386   3.052 -0.1910  0.0333  0.1603
12989W        W28798  13.831  12.337   2.681 -0.1718  0.1407  0.1238
12990W        W28799  13.933  10.589   1.166 -0.2532  0.0610 -0.1947
12991W        W28800   6.573  17.009   0.035  0.4064  0.0917  0.0786
12992W        W28801   3.628   7.446   3.724  0.2794  0.0215  0.0043
12993W        W28802   2.426  16.260  14.734 -0.3246  0.0662  0.2516
12994W        W28803   3.241   1.408  14.823  0.0044  0.0037  0.2066
12995W        W28804   5.085  16.075   4.211 -0.1833 -0.0147  0.1381
12996W        W28805   1.942   0.731   3.955  0.1907  0.0738 -0.1018
12997W        W28806  16.066   5.439   4.906 -0.2489 -0.3106  0.1647
12998W        W28807   2.932  16.676  15.134 -0.0623 -0.2379 -0.1423
12999W        W28808   2.571   5.595  10.922 -0.0150  0.2571  0.0523
13000W        W28809  11.360  13.964  14.676 -0.0493 -0.3562  0.0186
13001W        W28810   0.356   4.678  10.720 -0.1517 -0.1690  0.3257
13002W        W28811  12.703  12.413   6.194  0.0766 -0.1393 -0.1072
13003W        W28812  10.794   5.398  13.248 -0.1784 -0.1418 -0.0381
13004W        W28813   8.221   2.610   2.464  0.4250  0.2538 -0.2899
13005W        W28814   9.022  14.043   0.975  0.0044 -0.1158  0.0471
13006W        W28815   5.725  11.967   3.836 -0.2768 -0.0122  0.2050
13007W        W28816   1.414  18.218  15.159 -0.1786 -0.0742  0.0098
13008W        W28817  16.621  17.765   0.261 -0.0457  0.2032 -0.1937
13009W        W28818   1.862   0.852   2.120 -0.0019 -0.2147  0.4414
13010W        W28819   6.322   9.554   1.229 -0.1175  0.0314  0.1902
13011W        W28820   6.146   3.316   0.699 -0.1463  0.0333  0.0511
13012W        W28821  12.738  17.694   5.323  0.0315 -0.1784 -0.0834
13013W        W28822   5.161  15.302  10.565  0.4815  0.1550  0.2156
13014W        W28823   5.270  13.790  11.564  0.1830 -0.4052  0.1108
13015W        W28824  16.906   8.367   1.905 -0.3161 -0.3648  0.1194
13016W        W28825  14.080  11.859  12.488  0.0300  0.1775 -0.0982
13017W        W28826  11.029  16.959   3.120 -0.1960 -0.2640 -0.1125
13018W        W28827  10.796   5.577   1.119 -0.0432  0.0958 -0.1736
13019W        W28828  10.235   2.904  14.826 -0.0746  0.0742 -0.1709
13020W        W28829   8.668  11.443   1.844 -0.0114 -0.0734  0.2538
13021W        W28830   6.741   4.849  11.669 -0.1170  0.0788  0.3738
13022W        W28831   6.446  17.951   4.872  0.1266 -0.0317 -0.0813
13023W        W28832  14.434   3.698  10.675  0.1665  0.2739  0.2228
13024W        W28833  11.303   7.521  10.826  0.0322 -0.0913  0.2175
13025W        W28834   3.364   6.855   3.778 -0.0851 -0.3221 -0.0267
13026W        W28835  12.348   6.660  11.661 -0.1255  0.2340  0.0281
13027W        W28836  18.146   1.399   2.755 -0.2531 -0.0055 -0.0829
13028W        W28837   7.658   9.168  14.947 -0.1691  0.2096  0.0009
13029W        W28838  10.692   4.060  11.496 -0.3958 -0.0493  0.2086
13030W        W28839   5.762   2.337   3.672 -0.1687  0.2323 -0.0714
13031W        W28840   6.754   2.914  14.780 -0.0336  0.4310  0.0598
13032W        W28841   1.612   2.384   3.009  0.0085 -0.1244  0.3295
13033W        W28842   4.464  17.703  10.062 -0.0047 -0.3648 -0.0424
13034W        W28843   9.585   3.519  11.927 -0.0139 -0.0024  0.5886
13035W        W28844  17.066   9.801  11.929 -0.0862 -0.1955  0.0226
13036W        W28845   4.448   8.457   4.226 -0.1712 -0.0610 -0.0415
13037W        W28846  17.111   3.158   3.314  0.0286  0.0511 -0.1389
13038W        W28847  10.246  10.290   3.159 -0.2403 -0.0017 -0.1039
13039W        W28848  11.964   4.525   3.991 -0.1089  0.1730  0.0138
13040W        W28849  11.595   0.865   1.061 -0.0592 -0.0869 -0.0882
13041W        W28850  17.120  17.615   0.579 -0.0273  0.1337 -0.0215
13042W        W28851   3.280  11.324   2.420  0.1602 -0.2246 -0.0082
13043W        W28852  18.823  17.787   3.794  0.2091 -0.0279  0.0009
13044W        W28853   2.339   0.056  12.018 -0.1912  0.3157  0.3278
13045W        W28854  14.273   8.029  12.925  0.1124 -0.1835 -0.0163
13046W        W28855  10.531  11.756  12.345 -0.0545 -0.0378  0.0537
13047W        W28856  10.064   1.890  13.381  0.1637 -0.1385  0.1667
13048W        W28857  16.439   9.325   1.069 -0.0338  0.0479  0.1283
13049W        W28858   7.916   7.754  13.292  0.1714 -0.3143 -0.0981
13050W        W28859  15.779  16.989  13.336 -0.1845  0.1765 -0.2067
13051W        W28860  13.273   7.823   3.324 -0.2135  0.0465 -0.1021
13052W        W28861  15.729  10.253  13.219  0.4797 -0.2207  0.2520
13053W        W28862   9.774   0.929   4.019  0.2935 -0.3448 -0.3108
13054W        W28863   6.932  15.303  15.071 -0.2426 -0.2522 -0.1184
13055W        W28864  12.268  14.487   4.875 -0.1454 -0.1717  0.1566
13056W        W28865   4.824  12.637  10.289  0.1367  0.1388  0.0226
13057W        W28866  17.211  12.930  13.272 -0.4583 -0.1059  0.2241
13058W        W28867  14.113   9.219   2.406  0.1102 -0.1984  0.0054
13059W        W28868   0.662   3.342   2.745  0.1901  0.2244 -0.1425
13060W        W28869  14.524  10.952  13.646 -0.1005  0.0130  0.1221
13061W        W28870   4.846   6.059  10.576  0.0100 -0.0342  0.0731
13062W        W28871  10.123   3.765   3.562 -0.0751 -0.0439  0.4799
13063W        W28872  17.205   7.060   4.457 -0.2657 -0.0007  0.3155
13064W        W28873  15.345  14.711   5.520 -0.0804  0.0342  0.3283
13065W        W28874   5.865  10.201  12.333  0.2353 -0.1084 -0.2147
13066W        W28875  15.843  15.519  12.811 -0.1376  0.0088  0.4580
13067W        W28876   9.174   2.100   0.320 -0.1406  0.1451  0.1304
13068W        W28877   8.065   0.150  11.245  0.0309  0.1896 -0.0621
13069W        W28878  18.667  16.108  12.847  0.0213 -0.0349 -0.3234
13070W        W28879   1.869   7.611  12.741 -0.0583 -0.0591  0.0939
13071W        W28880   6.004  16.235   4.375  0.2594  0.0273 -0.1070
13072W        W28881   5.539   1.331  14.731 -0.2076  0.1053  0.1995
13073W        W28882   7.338   5.426  15.172 -0.3762 -0.3032 -0.1187
13074W        W28883  10.061  11.527  15.114  0.0370  0.2391  0.0816
13075W        W28884   2.625   4.970  13.059  0.1605 -0.3157 -0.0436
13076W        W28885  15.868  12.712  13.060  0.1161  0.2439  0.1353
13077W        W28886  13.400   1.461   4.001 -0.0442 -0.1355  0.0961
13078W        W28887   5.615   9.438  13.434  0.0040  0.1635  0.2899
13079W        W28888   4.117   8.130  11.197  0.1719 -0.0362  0.2746
13080W        W28889   2.761   6.045  12.638  0.1180  0.3448 -0.1007
13081W        W28890  13.792   8.265   4.877 -0.4609 -0.0238 -0.0727
13082W        W28891  13.071  14.385   1.329 -0.1828  0.0418  0.1440
13083W        W28892   9.587   4.464  14.840  0.1594  0.3464 -0.2526
13084W        W28893  12.136   8.310   3.429  0.1670  0.2687  0.0302
13085W        W28894   8.943   1.158  11.547  0.1727 -0.0373 -0.0683
13086W        W28895   7.410  17.581   1.639  0.0251  0.1778 -0.1729
13087W        W28896   0.072  18.790   1.995 -0.2975  0.1079  0.0763
13088W        W28897   8.024   3.072   0.568 -0.0237  0.0094 -0.0532
13089W        W28898   7.615   8.136  11.611 -0.0500  0.0016  0.2680
13090W        W28899   5.427   1.841   0.712 -0.1697 -0.1653 -0.0754
13091W        W28900   6.351   3.688  11.064  0.0662 -0.3720 -0.0121
13092W        W28901  14.382   1.703   2.802  0.1797  0.2767 -0.1940
13093W        W28902   5.266   2.409   1.045 -0.0095 -0.1810 -0.0891
13094W        W28903   8.860   0.091  14.628 -0.0433 -0.2357  0.4011
13095W        W28904  15.118  17.602  13.955 -0.0460 -0.4039  0.1436
13096W        W28905  17.699  15.845  11.244  0.3347 -0.0545  0.1264
13097W        W28906   2.642  14.020   2.418  0.1687 -0.1932 -0.1545
13098W        W28907  13.280   5.107  12.015  0.3164 -0.2407 -0.0183
13099W        W28908  11.114  15.968  13.599 -0.0971  0.1155 -0.0588
13100W        W28909  18.686   5.500   1.851  0.1269 -0.3114  0.2737
13101W        W28910   1.341  13.741   2.195  0.0445  0.0446 -0.0336
13102W        W28911   9.165   1.051   1.256 -0.1738  0.2348 -0.1646
13103W        W28912   2.151   7.545   3.677  0.0815 -0.0840 -0.0119
13104W        W28913   5.389  10.647   2.447 -0.0032  0.0369  0.0670
13105W        W28914  14.734   3.326  13.771  0.0920 -0.0583  0.0784
13106W        W28915  10.737  17.235   2.695 -0.1586  0.0873 -0.3034
13107W        W28916  11.638  14.269   1.469 -0.2293  0.2544  0.0395
13108W        W28917   4.191   9.479  10.494  0.3889  0.2135  0.0788
13109W        W28918  12.718  13.690  14.134 -0.1554 -0.3100  0.0954
13110W        W28919  19.144  17.269  12.616  0.0221  0.0548  0.2944
13111W        W28920   9.391  15.169   5.136 -0.1323 -0.3016 -0.1768
13112W        W28921  12.538  16.076  13.899  0.2629  0.0486 -0.1950
13113W        W28922   9.232   6.259   3.203 -0.1608  0.0401  0.2938
13114W        W28923  10.913   3.363  11.605  0.2370 -0.2839 -0.1991
13115W        W28924   4.457   7.967  10.890  0.0915  0.1772  0.1068
13116W        W28925  14.856   6.164   0.132  0.2683 -0.1102  0.1650
13117W        W28926  18.810  17.918   0.811 -0.1492 -0.1184  0.1759
13118W        W28927  14.175   0.626  10.574 -0.0420  0.0514  0.3354
13119W        W28928  18.955  12.083   4.610  0.0404 -0.2592 -0.1953
13120W        W28929  11.285  10.583   1.640 -0.0523  0.1258 -0.2605
13121W        W28930  10.288  11.411   1.709  0.1829 -0.2816  0.0923
13122W        W28931  14.161  17.461   3.747  0.0803  0.1844  0.0281
13123W        W28932   0.123   8.922  11.851  0.2543 -0.1731 -0.0854
13124W        W28933  10.915   2.797  13.582  0.0333  0.4953 -0.2458
13125W        W28934   7.910  11.994   9.643 -0.1315  0.2277  0.1171
13126W        W28935  18.365   1.650  13.842 -0.2203  0.0855 -0.2773
13127W        W28936   6.844   9.705  14.021 -0.0429 -0.2803 -0.4049
13128W        W28937   3.042   2.737  11.974 -0.2433  0.1371 -0.0335
13129W        W28938   2.804  13.375   4.102 -0.0694  0.2189  0.3537
13130W        W28939  13.252   0.546   5.021 -0.0991 -0.2173  0.0271
13131W        W28940  16.367   8.501   3.141 -0.2565  0.2569  0.1747
13132W        W28941  15.325   5.967   0.285 -0.3081  0.1778  0.2177
13133W        W28942  13.236  11.292  13.780  0.1722  0.0967 -0.1601
13134W        W28943   9.956  10.403   4.043  0.0979  0.1598  0.0139
13135W        W28944  15.870  11.553   3.358  0.0048 -0.1816  0.1096
13136W        W28945   6.015   5.723  11.155  0.0533 -0.2957 -0.1381
13137W        W28946  10.257  10.909   3.430  0.0481 -0.3412  0.1763
13138W        W28947   8.624   3.001  10.987  0.1964  0.4268  0.1443
13139W        W28948   1.719  16.579  11.688  0.1313 -0.1597 -0.1179
13140W        W28949  16.886  14.787   5.696 -0.2233 -0.0384  0.1877
13141W        W28950  14.514  17.996   1.460  0.1469 -0.1651 -0.2256
13142W        W28951   2.345   7.447  11.064 -0.0674  0.1839 -0.0948
13143W        W28952  11.696   5.287   3.445 -0.0003 -0.2577  0.2725
13144W        W28953   9.595   7.697   1.905  0.8458  0.2851 -0.1814
13145W        W28954   0.053  14.166   2.209 -0.1888 -0.1410 -0.1801
13146W        W28955   7.328  11.875   4.747 -0.2412 -0.0100 -0.3277
13147W        W28956  14.159   0.808   5.013  0.0737  0.1054  0.0256
13148W        W28957   5.971  16.292  12.440  0.3363 -0.0147  0.1142
13149W        W28958   0.558   8.494  12.309 -0.1560  0.6791 -0.0681
13150W        W28959   7.042   5.338  13.926  0.0878 -0.4291 -0.0615
13151W        W28960   5.543   8.593   0.096 -0.1776  0.1298 -0.1502
13152W        W28961  15.971   8.541   4.403 -0.0237  0.4998 -0.2221
13153W        W28962  13.572   1.383  13.853 -0.0814  0.0291 -0.0079
13154W        W28963  13.812   2.908  13.793 -0.3759  0.1750  0.1907
13155W        W28964  10.324   4.430  10.438 -0.1068 -0.0669 -0.0725
13156W        W28965   0.227   5.459   1.764 -0.0176 -0.2225  0.0054
13157W        W28966   4.405  10.613   2.289 -0.0291  0.0427  0.1689
13158W        W28967  14.387  11.704  13.364 -0.1668  0.0472 -0.0117
13159W        W28968   2.393   4.387  10.338 -0.2814  0.0105  0.2935
13160W        W28969   5.369  10.751   5.316 -0.2628 -0.2081 -0.3047
13161W        W28970  10.379   4.606   2.314  0.1171 -0.1663 -0.2036
13162W        W28971   1.054  14.469   2.374 -0.1385 -0.1001 -0.3837
13163W        W28972   0.653   6.205   1.037 -0.1137  0.2999 -0.3116
13164W        W28973   4.236  12.576   5.684 -0.0117 -0.0759 -0.3410
13165W        W28974  16.298  12.997  11.462  0.0111 -0.1241 -0.4484
13166W        W28975  13.709  13.639  12.532  0.2817  0.1739 -0.1215
13167W        W28976   9.800   9.596  14.473 -0.0828  0.3291  0.0836
13168W        W28977   8.514  13.109   1.316  0.1325 -0.1210 -0.0237
13169W        W28978  17.731  13.360  11.295 -0.1074 -0.2238  0.4263
13170W        W28979   7.628   3.246  14.399  0.0402  0.2270  0.0302
13171W        W28980   2.357   0.554   3.715  0.1897 -0.1651  0.1996
13172W        W28981   8.678   4.405  14.543  0.2060 -0.2570  0.2235
13173W        W28982   8.650  11.054  10.242 -0.0955 -0.0213  0.0887
13174W        W28983  11.595   0.224  12.540  0.1815  0.1476 -0.2916
13175W        W28984  14.183  13.509  10.874 -0.0583 -0.1295  0.1472
13176W        W28985  19.096  11.610  10.524  0.0785 -0.0068 -0.0477
13177W        W28986   3.282   3.484   3.954  0.0125 -0.2126 -0.1796
13178W        W28987  16.905   2.076   4.134 -0.2627  0.0471 -0.0341
13179W        W28988   3.140  17.177  10.114  0.1082  0.0545  0.2459
13180W        W28989   2.203  16.669   2.903 -0.0043 -0.1241  0.2858
13181W        W28990   7.306   3.951   3.992 -0.1993  0.1798 -0.2965
13182W        W28991   4.027  15.395  10.689 -0.2442  0.0474 -0.1563
13183W        W28992  17.421   2.365  13.408  0.2294 -0.2569  0.0643
13184W        W28993  16.696  17.574   2.562 -0.2561  0.0138 -0.1558
13185W        W28994   7.733  10.511  10.968  0.0113  0.0756 -0.0569
13186W        W28995   5.887  16.240   9.729 -0.0237 -0.0084 -0.4634
13187W        W28996   0.271   7.393  13.910 -0.0304 -0.1344  0.1682
13188W        W28997  18.866   4.018  12.961  0.0690  0.7035 -0.0164
13189W        W28998  16.114  10.123   3.769  0.2093  0.4995 -0.1151
13190W        W28999   8.029   1.007   5.326 -0.2425 -0.1727  0.2418
13191W        W29000   1.721  15.318  12.048 -0.4386 -0.1554  0.0541
13192W        W29001   3.040   2.738   2.926 -0.4302  0.1582  0.0452
13193W        W29002  17.231  10.994  14.524  0.3778 -0.2447 -0.1054
13194W        W29003  10.266   2.729  12.422 -0.1408 -0.0882 -0.0272
13195W        W29004  11.505  15.863   3.622  0.4580 -0.0178  0.3610
13196W        W29005  17.620   2.140   5.480  0.3368  0.3291  0.1132
13197W        W29006  14.862  12.438   1.425  0.0003 -0.2907  0.0116
13198W        W29007   2.679   4.147  11.556 -0.0582 -0.3296 -0.3109
13199W        W29008  10.500  13.333  13.083  0.0579  0.0614  0.2991
13200W        W29009  17.526  10.025  10.653  0.2380 -0.1403  0.0007
13201W        W29010   6.214   6.154   0.132  0.2050 -0.1015  0.2511
13202W        W29011  15.697  13.898  14.543 -0.5838 -0.0667  0.1619
13203W        W29012  16.622  13.327   2.489  0.0625 -0.0163  0.0015
13204W        W29013   8.174   0.672   0.229  0.2027  0.0547 -0.3438
13205W        W29014  19.067  15.422  10.445  0.1897  0.0352  0.2296
13206W        W29015  18.125   3.056  11.748  0.2955 -0.4840 -0.1496
13207W        W29016   0.761   7.887   2.344  0.0480  0.0204  0.3375
13208W        W29017   4.969   7.263   3.438  0.0940  0.1630  0.1339
13209W        W29018   0.562  12.926  10.310 -0.1111  0.0402  0.2835
13210W        W29019   2.138   8.059   0.739 -0.3990 -0.1226  0.0066
13211W        W29020  14.401  11.544   2.241  0.0724  0.2860 -0.0862
13212W        W29021  13.002   3.942   1.495  0.0233 -0.4132  0.0040
13213W        W29022   1.848   8.385   4.081 -0.3397  0.0029  0.3144
13214W        W29023  10.602   0.983  13.162 -0.2745 -0.1300  0.0479
13215W        W29024  14.876   9.877  13.645  0.3652  0.2353 -0.4256
13216W        W29025   6.866  12.420  13.707 -0.0272 -0.1793  0.0633
13217W        W29026  18.847  14.853   2.055 -0.3056  0.1007 -0.2732
13218W        W29027  16.046   7.816  14.285  0.2256 -0.3566 -0.1321
13219W        W29028   4.205  12.210   4.582 -0.0656 -0.1500 -0.1493
13220W        W29029   4.164   4.438   1.270  0.0497 -0.1242 -0.1223
13221W        W29030   5.074  18.925  13.151 -0.1634 -0.1922  0.2321
13222W        W29031   9.887  15.508  13.062 -0.1209  0.2701  0.0769
13223W        W29032   4.556   4.622  10.954 -0.0483 -0.2731 -0.1187
13224W        W29033   2.744   4.619  10.057 -0.5391 -0.4522 -0.1817
13225W        W29034   5.433  16.058  13.073 -0.0160 -0.3885 -0.1779
13226W        W29035  12.366  13.068   5.949  0.1109  0.2783 -0.0252
13227W        W29036   7.461   5.570   2.841 -0.2308  0.1310 -0.0265
13228W        W29037  19.048  18.196  15.184  0.3808 -0.0001 -0.0525
13229W        W29038  16.283   7.269  14.642  0.2518  0.5108  0.0321
13230W        W29039   4.774   1.765  13.921 -0.1837  0.2562 -0.2448
13231W        W29040   5.943  13.496   5.043  0.4821 -0.0825 -0.0008
13232W        W29041  18.133  17.596   0.202 -0.5504 -0.1576 -0.2160
13233W        W29042   3.671  14.446  13.512 -0.0409 -0.1874  0.1332
13234W        W29043  18.504   8.910   4.511  0.4851 -0.1178 -0.1305
13235W        W29044   4.301  14.547   1.567  0.1786 -0.1583  0.1204
13236W        W29045  11.541  13.990   6.171 -0.1261  0.0019  0.0146
13237W        W29046  18.229  11.599  13.606 -0.0711  0.1167 -0.0519
13238W        W29047  18.462  13.547  11.206  0.0630 -0.1155  0.2242
13239W        W29048  18.773   7.850   1.113 -0.0503 -0.3126  0.0060
13240W        W29049  13.616  12.328  11.169 -0.1971 -0.0951  0.0706
13241W        W29050   7.498  15.272   4.107  0.0614  0.1747 -0.2391
13242W        W29051   5.294  12.597  11.457  0.0677 -0.0029 -0.2488
13243W        W29052   6.657  10.900   1.467 -0.0561  0.0462 -0.0728
13244W        W29053   4.281   9.184  13.866 -0.3008  0.2273 -0.2384
13245W        W29054   2.425  14.163  13.201 -0.1903 -0.0757  0.2399
13246W        W29055  17.557   4.072  10.744  0.0824 -0.2128 -0.0280
13247W        W29056  11.762   6.785  10.412  0.0492  0.0109  0.0027
13248W        W29057   5.185  11.902   1.132 -0.1038 -0.1324 -0.0546
13249W        W29058  18.100  14.613   3.512 -0.0476 -0.1394 -0.0343
13250W        W29059  14.666  17.415   0.418  0.4088 -0.1231 -0.1581
13251W        W29060   0.403   0.238   3.140 -0.1477 -0.2429 -0.2399
13252W        W29061  11.727  12.335  13.720  0.0850  0.0246  0.1298
13253W        W29062   8.429   5.832  12.917  0.2918 -0.2502  0.1403
13254W        W29063  15.708   2.303   0.566 -0.0019  0.4571 -0.0924
13255W        W29064  17.975  11.006  13.524  0.0335  0.0463  0.0867
13256W        W29065  16.873  10.536   4.227 -0.0397  0.0293 -0.3234
13257W        W29066  18.709  18.612  11.982  0.1765  0.2964  0.1159
13258W        W29067   8.283   7.915   0.100  0.1420 -0.0358 -0.2293
13259W        W29068   6.851  13.270   4.002 -0.2857 -0.0636  0.0654
13260W        W29069   2.687   7.455  12.495  0.0666 -0.3998 -0.4513
13261W        W29070   3.504   4.114  14.341 -0.3787  0.0020 -0.2868
13262W        W29071   7.128   1.853   2.473  0.0074  0.2085 -0.4108
13263W        W29072   0.066  17.788   3.055  0.0455  0.3740  0.2303
13264W        W29073  14.081  16.653   3.169 -0.0003  0.0428  0.1798
13265W        W29074   9.390   7.579  12.212 -0.2259 -0.1304  0.2017
13266W        W29075  13.761   7.925   1.377  0.0806 -0.2762 -0.1977
13267W        W29076   5.610   0.742  14.943 -0.3353  0.0037  0.0361
13268W        W29077   1.222   2.884  11.629 -0.1024  0.0037  0.0145
13269W        W29078  14.450   3.328   2.472  0.1155 -0.2253  0.1287
13270W        W29079  13.405  17.559  14.599  0.0759  0.0997 -0.1492
13271W        W29080  11.243  17.212  11.841  0.1215  0.3439  0.0663
13272W        W29081  15.981  16.829   4.411  0.1984  0.0423 -0.1332
13273W        W29082  13.105  12.398   1.899  0.2620 -0.0928 -0.2394
13274W        W29083   7.393   2.562  11.572 -0.0229 -0.3595  0.1167
13275W        W29084   3.615   6.044  14.251  0.1096 -0.2557 -0.2497
13276W        W29085   7.765  16.563  13.861 -0.1939  0.2081  0.2353
13277W        W29086   5.037   2.384  12.868 -0.4014  0.2517 -0.1614
13278W        W29087  14.002  11.267   5.218  0.3200  0.1793  0.4054
13279W        W29088  10.821  11.632   3.816 -0.1110  0.2184  0.1787
13280W        W29089   5.099   1.441  12.471 -0.3845 -0.0278 -0.2025
13281W        W29090  14.186  11.594  11.705  0.2210  0.0072  0.0892
13282W        W29091   3.088  18.955  10.751 -0.4258  0.1220 -0.1119
13283W        W29092   7.141  16.747  12.334  0.1006  0.3791  0.3617
13284W        W29093  11.287   2.886  10.475  0.1500  0.0281  0.0688
13285W        W29094  12.919   1.298  12.869 -0.3017 -0.1242  0.0468
13286W        W29095  10.689  16.318   3.011  0.0225  0.0232  0.1733
13287W        W29096  19.155  16.855  10.833 -0.0118 -0.0227  0.2397
13288W        W29097   8.890   3.702  13.232 -0.3201 -0.1208 -0.0686
13289W        W29098   6.175   7.958   1.945 -0.2992 -0.0425  0.0352
13290W        W29099  14.976   2.477   5.238 -0.2988  0.0738 -0.1015
13291W        W29100   0.875   5.365  11.620 -0.0616 -0.1533 -0.2359
13292W        W29101  17.152  11.991   1.909  0.0842 -0.1944 -0.1025
13293W        W29102   3.116   0.303  13.772  0.3854 -0.1683  0.0101
13294W        W29103   4.325   3.662   1.717 -0.1029  0.1832 -0.0148
13295W        W29104  14.944  10.414  14.487  0.0271 -0.1478 -0.1955
13296W        W29105   8.280   7.920  12.907 -0.0369  0.2310  0.1752
13297W        W29106   9.615   7.853  10.673  0.0186 -0.1005 -0.0786
13298W        W29107   5.515  15.383  13.485  0.2897 -0.0370  0.1802
13299W        W29108  13.562   0.014  14.127 -0.0321 -0.0062  0.0730
13300W        W29109   3.392   2.114  14.955  0.2540  0.0798  0.0389
13301W        W29110  15.890  12.020  12.424 -0.0827 -0.2262  0.1369
13302W        W29111  15.493   2.574   3.966 -0.0606 -0.1066  0.0200
13303W        W29112   4.558   7.057  13.493  0.2792 -0.1665 -0.2429
13304W        W29113   0.518   1.856  15.139 -0.0843 -0.0603 -0.1021
13305W        W29114  17.606   0.630   4.555 -0.1151  0.1661  0.0242
13306W        W29115  19.110  14.985   5.050  0.0175 -0.1424  0.1078
13307W        W29116  13.777  17.474  14.219 -0.1618 -0.2141 -0.0622
13308W        W29117  15.091   1.896  15.200  0.0665  0.2795 -0.3494
13309W        W29118   9.391   5.633  12.398  0.1697 -0.1415 -0.2159
13310W        W29119  14.872   2.596   2.467  0.0786 -0.1644 -0.1130
13311W        W29120  11.025   6.532   8.780 -0.0475  0.1608  0.2518
13312W        W29121   2.524  12.453  11.407 -0.3393  0.4018  0.0179
13313W        W29122   3.734  12.699   1.958 -0.2102 -0.0014 -0.1938
13314W        W29123  16.389   1.723   3.063  0.0598  0.0544  0.1195
13315W        W29124   1.500  14.117   2.809  0.0118 -0.0987  0.1069
13316W        W29125   4.636  15.758  11.254  0.0130  0.3543  0.0451
13317W        W29126   4.390   6.522   2.707  0.1222 -0.0752 -0.1374
13318W        W29127  11.786   8.656  12.642 -0.1045 -0.1963 -0.0757
13319W        W29128  15.186  18.670  12.057  0.0019 -0.2131  0.0929
13320W        W29129  18.162   9.503   1.542  0.0952 -0.0917 -0.0548
13321W        W29130  17.284  16.754   2.011  0.0028 -0.1723  0.1888
13322W        W29131   8.189  12.706   5.844  0.1060 -0.2555  0.1017
13323W        W29132  15.865  18.780   5.040  0.1375  0.0784 -0.0979
13324W        W29133   5.022   6.725   3.297  0.0837 -0.1221 -0.0053
13325W        W29134   4.196  14.886  10.844 -0.0329  0.2698 -0.2333
13326W        W29135   8.997   8.908   5.072 -0.1366 -0.2321 -0.2278
13327W        W29136  17.711  13.559   3.646 -0.3549 -0.0194  0.0499
13328W        W29137  13.576  13.135  15.052  0.2044 -0.1381 -0.0661
13329W        W29138   7.911   0.056  12.700  0.0681  0.1509  0.0803
13330W        W29139  13.069  15.566   2.092 -0.1613  0.1075  0.2860
13331W        W29140  11.877   1.772  13.666 -0.2072 -0.1120  0.1738
13332W        W29141   7.602  15.505  11.743 -0.1146  0.3035  0.2438
13333W        W29142  14.822   8.704  10.381  0.3534 -0.0316 -0.2679
13334W        W29143  17.355   7.551  13.508 -0.2331 -0.1880  0.2045
13335W        W29144   6.748  12.100   0.011 -0.1497  0.0011 -0.2790
13336W        W29145  15.316  16.570   0.020 -0.0172  0.3050 -0.1355
13337W        W29146   8.260   4.853  15.005 -0.0056 -0.1029 -0.1048
13338W        W29147   7.014   1.362   2.876  0.0146  0.2184  0.0503
13339W        W29148   9.384  13.393  11.420 -0.2157 -0.1022  0.1625
13340W        W29149   1.570   6.942   1.503 -0.1765  0.5443 -0.1555
13341W        W29150   9.321  13.039  13.627 -0.3830  0.0420 -0.1440
13342W        W29151  10.547  12.454   0.007 -0.1141  0.0511  0.0061
13343W        W29152   6.619  10.956  12.151  0.0887  0.1100  0.0697
13344W        W29153  12.552   2.947  12.135  0.0324  0.1176  0.0896
13345W        W29154  17.094  15.728   0.171 -0.3985  0.0119 -0.1661
13346W        W29155   6.854  15.477   4.055 -0.4639  0.2091 -0.0458
13347W        W29156  17.317   1.421   4.613 -0.3748  0.1656 -0.4916
13348W        W29157   5.610  12.341  14.528 -0.2103 -0.1330  0.0290
13349W        W29158  14.720   6.210  10.255  0.3246 -0.1024 -0.5186
13350W        W29159  18.721  17.752   1.672 -0.1224 -0.0734 -0.0047
13351W        W29160   2.005   1.354  14.375 -0.0592  0.2605  0.1771
13352W        W29161   1.187  12.700   2.541 -0.5552  0.1160 -0.1361
13353W        W29162  10.604  11.035   1.393  0.1165 -0.5085 -0.5759
13354W        W29163   7.522  12.649  14.916  0.2287 -0.1605 -0.1678
13355W        W29164  11.712   0.833   0.010 -0.3058 -0.1213  0.1511
13356W        W29165   7.257  13.389  13.427  0.2696  0.0737  0.1062
13357W        W29166   5.652  14.688   2.317 -0.1931 -0.4069  0.0690
13358W        W29167  15.834  16.525   4.844  0.0539 -0.1730  0.2438
13359W        W29168  10.746   4.836   0.803 -0.2060 -0.0779 -0.4015
13360W        W29169   8.655  17.859  13.421  0.1570  0.4120 -0.1914
13361W        W29170   4.123  10.978   2.492  0.0875 -0.0526 -0.3418
13362W        W29171   5.965   0.310  15.084 -0.1526  0.0046 -0.4998
13363W        W29172   6.332  17.925  12.902 -0.0853 -0.3702 -0.2253
13364W        W29173  14.820  12.832   5.046 -0.0822  0.0450  0.0983
13365W        W29174   3.661   1.127  14.969 -0.2661  0.1318 -0.3618
13366W        W29175   1.098   9.762  10.134  0.0947  0.0888 -0.0512
13367W        W29176  16.233  15.842  11.385 -0.1672 -0.3412 -0.0080
13368W        W29177  13.961  12.763   6.541  0.1144  0.2279 -0.2059
13369W        W29178  16.346   4.861  13.172  0.0983  0.0002  0.1996
13370W        W29179  12.950   7.246   0.530 -0.0934 -0.0861 -0.0970
13371W        W29180   0.133   9.439   2.814 -0.0800 -0.1057  0.0393
13372W        W29181   2.881   7.908   5.311  0.2085 -0.0337 -0.2452
13373W        W29182   4.454  18.244   4.018  0.0581 -0.2451 -0.3679
13374W        W29183  17.842   4.214   2.357  0.0836 -0.1742 -0.1776
13375W        W29184  14.857  11.843  10.802 -0.1971 -0.2374  0.2573
13376W        W29185  16.468   5.880  14.918  0.3415  0.2586  0.3378
13377W        W29186  11.784  18.555   5.691 -0.0937 -0.0513 -0.0291
13378W        W29187  14.523  17.098   3.886 -0.0223  0.2022 -0.0470
13379W        W29188  18.189   1.123  11.615  0.3354  0.2223 -0.3866
13380W        W29189  11.447  17.663   4.318  0.1357  0.0759  0.0756
13381W        W29190  17.636  10.821   0.169  0.2597 -0.0370  0.2569
13382W        W29191   1.865  15.445  11.564  0.0285  0.0057 -0.1337
13383W        W29192   8.722  18.823  13.118 -0.0328  0.1078 -0.1807
13384W        W29193   4.558  15.952  11.754 -0.1059 -0.0854 -0.1012
13385W        W29194  18.563  16.205   5.174 -0.2146  0.3639  0.0228
13386W        W29195   5.928  13.575   0.259  0.2435  0.2250 -0.3671
13387W        W29196  10.615   3.192  11.960  0.1405 -0.2481  0.0806
13388W        W29197  15.260  16.820   3.154 -0.1027  0.0636 -0.0566
13389W        W29198  17.104   6.076   2.086 -0.1541 -0.1503 -0.0645
13390W        W29199   6.501   4.580   9.990 -0.0999  0.0904 -0.6384
13391W        W29200  18.118  18.449   1.803  0.2709 -0.0602 -0.2133
13392W        W29201  12.010  16.405   5.025  0.1386 -0.1335  0.4456
13393W        W29202   8.824  15.627   3.801  0.0028 -0.0248 -0.2197
13394W        W29203  15.677   4.867  12.581  0.4225  0.0433 -0.0401
13395W        W29204   2.634   1.368   5.043 -0.2059  0.1349  0.0509
13396W        W29205  13.106  17.543   3.608 -0.2976  0.0335 -0.0452
13397W        W29206  17.325   1.411  14.594  0.0008  0.2644  0.2319
13398W        W29207   8.076   4.989   0.345  0.1320 -0.1567  0.0540
13399W        W29208   2.876  14.372  13.564 -0.2498 -0.2473 -0.0419
13400W        W29209   0.750  18.219  14.768 -0.2050 -0.0366  0.1676
13401W        W29210  15.047  15.360   0.155  0.1239 -0.3399 -0.1202
13402W        W29211  15.593  14.281  14.762  0.0324  0.0026  0.0399
13403W        W29212   4.857  13.916   3.685 -0.2156 -0.3342  0.1206
13404W        W29213  12.050  11.094  10.820  0.1005  0.0984 -0.1993
13405W        W29214  11.056  13.648   0.080  0.2713  0.0561  0.2059
13406W        W29215  16.694   9.697  14.603 -0.0096 -0.2923  0.0849
13407W        W29216   8.416  13.398  11.219  0.2747 -0.0278  0.1210
13408W        W29217   7.853  12.742   1.961 -0.1988  0.0768 -0.1061
13409W        W29218   2.716   6.152   1.663  0.0376 -0.1164  0.0286
13410W        W29219   1.889   0.405   3.576 -0.0456  0.1334  0.4317
13411W        W29220   5.011  17.578  12.597  0.2242 -0.1238  0.0535
13412W        W29221   3.557   3.636  10.526  0.1979 -0.0362 -0.1273
13413W        W29222  10.471  14.816   2.126  0.1357 -0.1616 -0.0345
13414W        W29223  10.306   1.782  11.934 -0.3279  0.1575 -0.0246
13415W        W29224   2.187  14.066  12.336  0.3907  0.1394 -0.1381
13416W        W29225  11.450  17.802  13.864  0.0902 -0.0223 -0.0586
13417W        W29226   3.632   6.821   3.371  0.0488  0.1157 -0.0756
13418W        W29227   3.687   9.981   2.683  0.1888  0.1209 -0.0165
13419W        W29228  11.934  19.106   0.254  0.3649  0.0015 -0.0658
13420W        W29229   3.908  14.671   0.230  0.3975 -0.2359  0.0925
13421W        W29230  17.968  11.237  11.815 -0.0250 -0.3461  0.0883
13422W        W29231  10.598   1.183  14.713 -0.0560  0.1977  0.0869
13423W        W29232   6.053   9.612  13.197  0.1839  0.0939  0.0689
13424W        W29233   8.165  14.420  13.096  0.1521 -0.0525 -0.2110
13425W        W29234  15.297   4.452  12.521  0.1112  0.1641  0.0238
13426W        W29235   7.746  15.889  14.148 -0.3675  0.0584 -0.2332
13427W        W29236   8.154   2.134  10.608 -0.1942 -0.1487  0.1280
13428W        W29237   8.928   8.626  15.023 -0.0388 -0.2028  0.0510
13429W        W29238  17.484   3.166   3.652  0.4106  0.1027  0.1558
13430W        W29239  16.468   6.994  10.489 -0.0658 -0.0862 -0.0597
13431W        W29240  11.108   0.315   4.702 -0.2510 -0.0519 -0.0715
13432W        W29241  17.318  18.283   0.570  0.0030 -0.0699  0.1363
13433W        W29242  15.350  15.568  14.563 -0.0580  0.0266 -0.1978
13434W        W29243  15.946  17.008   1.714  0.4021  0.0272 -0.1558
13435W        W29244   7.002   9.354   1.952 -0.4827  0.1694 -0.0706
13436W        W29245  14.254   7.938   5.024 -0.0455  0.2355  0.1186
13437W        W29246  10.769  12.147   3.746 -0.1319 -0.4232 -0.0530
13438W        W29247  12.613  12.056   4.555  0.0653  0.1859  0.1225
13439W        W29248   7.089  12.532  14.569  0.1781 -0.1081  0.3074
13440W        W29249   4.013   2.824  13.648 -0.0048 -0.2312  0.3112
13441W        W29250   5.097  11.622  10.649 -0.0342 -0.0392 -0.0492
13442W        W29251  18.203  17.186  13.309 -0.2879  0.1632 -0.0224
13443W        W29252  15.724   0.678   3.389 -0.2567 -0.3821  0.4963
13444W        W29253   3.775   3.613   1.801  0.1142 -0.0536 -0.2344
13445W        W29254  10.003   7.117  13.803 -0.1866 -0.1543 -0.2770
13446W        W29255  11.249   1.044   1.930  0.0407  0.1406  0.0153
13447W        W29256   5.334  18.112  12.504 -0.3336 -0.0819 -0.1563
13448W        W29257   5.960  11.870   4.896  0.2264  0.1448 -0.2088
13449W        W29258  13.015   9.266   1.203  0.1284  0.0705  0.3063
13450W        W29259   7.204  13.407  11.975 -0.2824 -0.0187 -0.0581
13451W        W29260  15.886   8.177  11.822  0.0199 -0.1570 -0.0704
13452W        W29261   2.520   2.241  13.304  0.1946 -0.0494  0.0788
13453W        W29262   3.895   8.407   3.358 -0.2258  0.1381  0.1100
13454W        W29263   2.590   6.153  14.860 -0.1069 -0.4955 -0.0298
13455W        W29264   7.314   6.796   2.574  0.1182  0.1824  0.0875
13456W        W29265  16.479   9.256  13.281  0.1886 -0.0707 -0.1574
13457W        W29266   8.177   2.047  15.033  0.1938 -0.0502  0.2269
13458W        W29267   5.446   3.990  13.632 -0.0954 -0.1775 -0.1214
13459W        W29268   0.394  17.480  14.722  0.0345  0.0914 -0.0476
13460W        W29269   2.211   5.345   9.904 -0.0749 -0.0416 -0.1366
13461W        W29270   5.851  10.752   5.179  0.2436 -0.2529 -0.0364
13462W        W29271  16.062  14.693  13.100 -0.0934 -0.1617  0.0130
13463W        W29272   8.833  16.764  11.160  0.2785 -0.2512  0.5216
13464W        W29273  17.912   2.597   5.354  0.0581  0.2879  0.0450
13465W        W29274  10.315   5.478   4.197 -0.2198  0.2820 -0.0372
13466W        W29275   1.676   4.519  11.798  0.1775 -0.0345  0.0629
13467W        W29276  10.235  11.917  13.975 -0.1117 -0.2202  0.1957
13468W        W29277   5.439   8.609  13.664 -0.1344 -0.0509 -0.1217
13469W        W29278  14.819  18.228  13.829  0.0240  0.1233  0.1723
13470W        W29279   9.082  18.269   1.600  0.0895  0.2340  0.0391
13471W        W29280   0.809  13.448  13.192 -0.0552 -0.0094  0.0662
13472W        W29281  10.571  14.915  14.112 -0.0410 -0.2483 -0.0181
13473W        W29282  13.450  16.548   2.994  0.0151 -0.4342 -0.0870
13474W        W29283   0.466   0.895   2.957  0.3215 -0.1192 -0.5158
13475W        W29284   5.383  12.784   5.528  0.3769  0.0334  0.1227
13476W        W29285  13.697   0.840   0.328  0.1426  0.3313  0.4146
13477W        W29286   5.490   2.375  14.614 -0.1011 -0.0731 -0.0727
13478W        W29287  12.599   6.722  12.714  0.1870 -0.0504 -0.3475
13479W        W29288   8.141  16.002  15.067 -0.1906  0.1933 -0.0112
13480W        W29289   9.745   0.371  13.347  0.1056  0.3587  0.2793
13481W        W29290  17.078  18.626  12.526  0.2032 -0.2185 -0.1303
13482W        W29291  13.857  15.165   4.831 -0.0050  0.2046  0.0149
13483W        W29292  13.753   0.600   4.808  0.2147  0.0800  0.1971
13484W        W29293  11.824  18.020  12.907 -0.0656 -0.2515 -0.0377
13485W        W29294  14.811   7.911   4.903 -0.0972 -0.4146  0.3018
13486W        W29295   6.437   7.176  11.545 -0.0970 -0.0077  0.1749
13487W        W29296   8.146   2.833   5.407  0.3151  0.0363 -0.3887
13488W        W29297   7.094  15.525   0.784 -0.1678  0.1104  0.0857
13489W        W29298  12.076  18.839   4.996  0.1242 -0.1191 -0.1097
13490W        W29299   9.838   1.200  10.503 -0.1393  0.0356  0.2170
13491W        W29300  17.462   7.903  13.994  0.0622 -0.2454  0.1322
13492W        W29301  17.941  15.896  14.308  0.0811  0.0891  0.4106
13493W        W29302  15.280  17.683  14.865 -0.3290 -0.1683 -0.0053
13494W        W29303  16.922  15.357  13.672 -0.2187 -0.1437  0.0901
13495W        W29304   2.674  18.666  13.045  0.2527  0.3754  0.0611
13496W        W29305  16.779   6.276  13.633 -0.1028  0.1654  0.0409
13497W        W29306   9.229  15.958   9.990 -0.0791 -0.0743 -0.0647
13498W        W29307   6.424  11.755  14.071 -0.0874 -0.1053 -0.0601
13499W        W29308   9.292  18.536   1.191 -0.1281 -0.0826 -0.0283
13500W        W29309   0.358  17.276  12.930 -0.0711 -0.3971 -0.2327
13501W        W29310   0.265   5.425   4.903 -0.1520 -0.2544  0.1929
13502W        W29311   1.389   9.221   3.327  0.1241 -0.0820  0.0247
13503W        W29312  15.790   7.767  10.112  0.4159  0.0742  0.2453
13504W        W29313  11.557   3.693  14.197  0.2894 -0.0496  0.3981
13505W        W29314   1.924  11.266   0.650  0.0909  0.0966 -0.1869
13506W        W29315  13.617  15.216   4.314 -0.1590 -0.1404  0.0557
13507W        W29316   4.859  18.575   2.143  0.0220  0.0111  0.2405
13508W        W29317   5.004  15.072  13.180  0.1285  0.0667 -0.3618
13509W        W29318   3.972  14.297  11.122 -0.0103 -0.1811 -0.1622
13510W        W29319   4.465   7.650  10.022 -0.2554  0.0384 -0.2495
13511W        W29320   8.954   2.653  11.082  0.4515  0.1246  0.1807
13512W        W29321  12.000  11.090  12.035 -0.1814 -0.2344 -0.1847
13513W        W29322   4.726  11.224  10.812  0.1714 -0.1182  0.0148
13514W        W29323  11.412   9.377  11.235  0.4366 -0.0879  0.0750
13515W        W29324   1.764   4.861   1.870  0.2926 -0.1621 -0.1786
13516W        W29325   6.295   0.311   0.887  0.1516  0.4326 -0.0365
13517W        W29326   7.107  11.669  12.092  0.2855  0.1455  0.1657
13518W        W29327  12.682   5.503  11.406 -0.2127  0.0678  0.2643
13519W        W29328   9.861   8.316   0.826 -0.2931 -0.2491 -0.0970
13520W        W29329   4.105  11.558  14.858  0.3921  0.0767  0.3450
13521W        W29330  18.655   0.212  10.569 -0.0041 -0.0638 -0.3560
13522W        W29331  18.543  16.316  10.022 -0.1885 -0.0484 -0.5441
13523W        W29332  12.740  10.608   2.947 -0.0440  0.3125 -0.0482
13524W        W29333  11.168   5.878   0.932  0.1196  0.1372 -0.2942
13525W        W29334   0.958  13.652   1.128 -0.3219 -0.3993 -0.0174
13526W        W29335   7.012   0.755  11.553 -0.1060  0.0337 -0.1068
13527W        W29336   4.822  18.255  14.975 -0.2709  0.1445 -0.0562
13528W        W29337   4.363   5.091   1.201 -0.1360  0.0714 -0.1003
13529W        W29338   3.783   5.328   1.871  0.2479 -0.0341  0.0942
13530W        W29339  17.154  10.940  11.353 -0.0855 -0.2944 -0.4134
13531W        W29340  16.647  14.461   4.170  0.1692  0.0980  0.1984
13532W        W29341  16.545   9.363   3.432 -0.0866 -0.0040  0.3161
13533W        W29342   4.061   7.178   5.004  0.1155 -0.0824 -0.0996
13534W        W29343   9.913  10.593  13.497 -0.1238 -0.1651  0.3224
13535W        W29344  10.633  13.698   4.301  0.5291  0.1772  0.1996
13536W        W29345   7.442   8.117  11.163 -0.0688  0.0506  0.0422
13537W        W29346   1.929   0.453  11.237 -0.1055  0.3165 -0.0625
13538W        W29347   6.908   8.818  14.427 -0.0142 -0.1807 -0.2704
13539W        W29348   8.025  15.247   0.964 -0.2513 -0.2328 -0.2232
13540W        W29349   8.517   5.994   3.772 -0.0536  0.2234  0.0699
13541W        W29350   1.972   9.048  10.806  0.2113 -0.0226 -0.1154
13542W        W29351  15.507  13.015   2.091  0.1278  0.2015  0.3063
13543W        W29352   2.035  10.118   3.055  0.1934  0.1274 -0.0538
13544W        W29353   5.128  17.661   4.439  0.2244  0.1410  0.0367
13545W        W29354  10.734  16.168   4.167 -0.3325 -0.1194  0.0459
13546W        W29355   6.474   8.521  14.165 -0.2720  0.0898 -0.2769
13547W        W29356   7.267   5.641  14.359  0.1415  0.0224 -0.1693
13548W        W29357   6.005  17.626   0.462  0.0767 -0.2104  0.0944
13549W        W29358  12.886   1.268   4.868  0.1204 -0.0588  0.3210
13550W        W29359  17.473  15.321   0.015  0.0329 -0.0396 -0.5120
13551W        W29360  18.513   7.716   4.077  0.0489  0.2354 -0.1639
13552W        W29361   1.102   9.545  13.768  0.2773 -0.0382  0.0642
13553W        W29362  18.719   4.732   2.053 -0.2801 -0.0858 -0.0185
13554W        W29363   3.487  16.013   2.323  0.1236  0.1558  0.1179
13555W        W29364  14.372   9.615  10.622  0.0210 -0.0957 -0.3521
13556W        W29365  11.553   5.551  11.112 -0.0459  0.2099  0.2675
13557W        W29366   9.808   8.646   4.559 -0.0486  0.2206  0.2630
13558W        W29367  15.054   1.189  12.057  0.0346  0.2654  0.1151
13559W        W29368  19.157  15.311   0.722  0.0462  0.5199  0.0557
13560W        W29369  10.053   4.252  13.952  0.0714 -0.0932 -0.1050
13561W        W29370   5.505   9.731   0.509 -0.4059  0.2930 -0.2168
13562W        W29371  14.879   7.249   4.012 -0.3772  0.2779 -0.0280
13563W        W29372   6.839   1.659  13.113  0.2629 -0.3542  0.1177
13564W        W29373   0.018   9.530   3.813 -0.1837 -0.1821  0.2338
13565W        W29374   6.161  19.026  12.043  0.2326  0.0342  0.1934
13566W        W29375   0.104  12.853   2.815  0.4538  0.2778 -0.2586
13567W        W29376   0.460  16.149  15.144 -0.1465 -0.0782 -0.3614
13568W        W29377  16.947  10.131   0.188  0.3434 -0.2482  0.0461
13569W        W29378  10.600  12.728   0.415 -0.2214 -0.0463 -0.0968
13570W        W29379  10.835   1.638   0.215  0.3294 -0.0514  0.0526
13571W        W29380  10.524  16.217  13.969  0.0803  0.1891 -0.2328
13572W        W29381  12.130  16.095   4.215 -0.0003 -0.0563  0.2522
13573W        W29382   7.540  17.053  13.791 -0.1776  0.2413  0.1491
13574W        W29383  19.050  12.228  13.675 -0.0865 -0.1645 -0.1507
13575W        W29384  12.332  15.374  13.534  0.0393  0.2123  0.1934
13576W        W29385  18.756  13.955   2.114 -0.0453  0.0966 -0.0342
13577W        W29386   6.958  15.789  14.732  0.0787 -0.5518  0.1946
13578W        W29387  15.264   4.967  13.667 -0.1547 -0.0147 -0.2199
13579W        W29388  12.673  11.226   4.223  0.0811  0.0805  0.4889
13580W        W29389   1.728   5.294   2.080 -0.1626 -0.2959  0.3118
13581W        W29390  10.376  10.808   0.346 -0.0626  0.0852  0.1165
13582W        W29391   5.643   5.607  13.481  0.0991 -0.0814  0.0516
13583W        W29392   2.014  16.671   1.570  0.0454  0.0966  0.1949
13584W        W29393  18.003  16.914  11.581  0.0478 -0.1696 -0.1583
13585W        W29394  18.922   7.921   0.605  0.2199 -0.1373  0.0936
13586W        W29395  18.203   9.362  14.550  0.1273 -0.1969 -0.4687
13587W        W29396   0.307  16.679   3.014  0.1014  0.0731  0.2007
13588W        W29397   7.777   6.493  10.809 -0.1438 -0.0564  0.1167
13589W        W29398   4.491   3.870   1.333 -0.3284  0.1722  0.2263
13590W        W29399   9.393  10.261  10.365 -0.2261  0.0788 -0.2108
13591W        W29400  12.127   0.837   5.062 -0.2499  0.1107 -0.0538
13592W        W29401   5.582   3.072   2.897 -0.2982  0.1681  0.1725
13593W        W29402  18.813   3.955  11.488 -0.4544  0.0720 -0.0990
13594W        W29403   4.647   9.779   1.844  0.5015 -0.1499  0.2486
13595W        W29404   9.706  14.507  11.643  0.0322 -0.2434 -0.1871
13596W        W29405  10.262  14.978   2.518  0.0283  0.2116  0.2547
13597W        W29406   7.497   2.064  11.416  0.0845 -0.0437 -0.0796
13598W        W29407  14.444  18.350   3.807 -0.0413 -0.0605 -0.1599
13599W        W29408  13.671   9.305  13.612 -0.3250  0.0739 -0.0232
13600W        W29409  13.519  12.828   0.244  0.1658 -0.0670 -0.0861
13601W        W29410   3.871  13.089   2.363  0.0659 -0.3795  0.3093
13602W        W29411   1.173  10.189   3.234  0.2007  0.3650  0.1732
13603W        W29412  14.040   5.827  11.220 -0.3895 -0.2526  0.2906
13604W        W29413   2.933  17.934   4.871 -0.2032 -0.2950  0.0709
13605W        W29414   9.930  18.587  15.151  0.0335  0.2725  0.2551
13606W        W29415   9.464  12.422   2.835  0.1260 -0.2195  0.2048
13607W        W29416   7.153   9.380   3.352  0.4431 -0.1339 -0.1123
13608W        W29417   6.144   1.552   3.244 -0.2603  0.1624  0.0492
13609W        W29418  13.944   8.889   3.559 -0.3916 -0.1071 -0.2561
13610W        W29419  11.363   6.496  14.765  0.0148  0.0268 -0.0570
13611W        W29420  16.115   0.614   1.790 -0.1709 -0.0413  0.0549
13612W        W29421  14.749   9.924  14.610  0.3211  0.0276  0.0424
13613W        W29422   2.905  12.265  12.672 -0.2540 -0.0870  0.0829
13614W        W29423   6.164   9.052   2.737 -0.0526  0.0261 -0.0469
13615W        W29424   0.463  16.746  10.795 -0.1185 -0.5351  0.0048
13616W        W29425   6.982   7.165   3.717 -0.0957  0.0917  0.0368
13617W        W29426  10.444  16.737   1.103  0.2789 -0.4203  0.1154
13618W        W29427   4.372   6.442   3.986  0.0867 -0.1716  0.4028
13619W        W29428   0.081  15.821  11.498  0.1169 -0.2039 -0.0822
13620W        W29429  11.636  18.682   2.167  0.0475 -0.2035 -0.1935
13621W        W29430   8.666  12.087   0.633 -0.1301  0.0535 -0.1219
13622W        W29431  15.580   6.725  13.591  0.0823  0.0781  0.1798
13623W        W29432  13.358   7.971  11.007 -0.0488 -0.2920  0.2052
13624W        W29433  17.882  16.377   0.771  0.1906 -0.0028  0.2671
13625W        W29434   9.305  12.164   2.420  0.1617  0.2930  0.0855
13626W        W29435  18.000  10.105   4.501  0.0506  0.2315  0.0542
13627W        W29436  15.450   7.023  10.235 -0.0187  0.0033  0.3317
13628W        W29437   7.653   9.629  11.929  0.1708 -0.2762  0.2102
13629W        W29438   2.846   8.162   4.376  0.1125 -0.1457 -0.0135
13630W        W29439   0.764  19.060   3.120 -0.0257 -0.3398  0.0234
13631W        W29440  18.314   3.172   1.797  0.0922 -0.0884  0.2050
13632W        W29441  11.507   7.066  13.353  0.0836 -0.0961  0.2175
13633W        W29442   6.229  14.262  12.344 -0.0396 -0.0298 -0.0365
13634W        W29443  12.374  11.577  11.154  0.1084 -0.0949 -0.0280
13635W        W29444   2.639  17.487   3.101 -0.1475  0.2670  0.4450
13636W        W29445  13.701  15.151   2.658  0.2482  0.0975  0.3300
13637W        W29446  17.768  13.371  10.750  0.0483 -0.1074 -0.2645
13638W        W29447   3.526  10.392   3.095  0.0239  0.0176  0.1864
13639W        W29448   6.770   1.903  14.973  0.3223 -0.0711  0.2898
13640W        W29449  18.206   5.789   4.265  0.1742 -0.3945 -0.0183
13641W        W29450   1.429   8.670  14.758  0.1941  0.1444 -0.0740
13642W        W29451  13.429  14.861  14.175 -0.0456 -0.0338  0.0744
13643W        W29452  18.526  16.583   2.268 -0.0731  0.0531  0.0653
13644W        W29453   0.473   2.218   0.912 -0.0236  0.1398  0.0314
13645W        W29454   7.666  10.260   5.484 -0.0938  0.3921 -0.3171
13646W        W29455   6.209  11.808   2.786  0.1353 -0.3128  0.0232
13647W        W29456  18.741  16.462  12.516 -0.0308 -0.0349 -0.0478
13648W        W29457  11.448  18.689  13.609 -0.1642 -0.0120 -0.4438
13649W        W29458  17.118   4.803  12.535 -0.2387  0.0341 -0.0590
13650W        W29459   1.009   1.810   4.203  0.0877  0.1329  0.2603
13651W        W29460   3.477  16.281  13.276 -0.0285  0.0974 -0.0762
13652W        W29461  13.305   4.107  10.573 -0.2477  0.0545 -0.1324
13653W        W29462   7.914   5.035  14.122  0.0396  0.2472 -0.2034
13654W        W29463   9.948   8.683   2.573 -0.1449 -0.3962  0.0819
13655W        W29464   5.687  15.230  10.679 -0.0266 -0.1923 -0.0273
13656W        W29465   2.737   9.353  14.441 -0.1333 -0.1461  0.0871
13657W        W29466   8.513   5.477  14.882  0.0373 -0.0075  0.2483
13658W        W29467   7.801   3.668   1.553  0.0138  0.0887 -0.0398
13659W        W29468  19.007  15.930  13.384 -0.1775  0.3400  0.3138
13660W        W29469   4.846   7.617   4.419 -0.1420 -0.3097 -0.0746
13661W        W29470  10.202   1.406  15.000 -0.1602  0.0650 -0.1732
13662W        W29471  11.408   5.939  14.621 -0.1336 -0.2183 -0.0287
13663W        W29472  14.741   6.901   3.110  0.0219  0.1131 -0.0414
13664W        W29473   8.697  18.683   2.408 -0.0707  0.1348 -0.0219
13665W        W29474   9.329  19.141   0.338 -0.0668  0.1601 -0.0256
13666W        W29475   3.523   5.478  14.094 -0.2494  0.0003 -0.2348
13667W        W29476   0.712  11.207  12.439 -0.0754  0.0212 -0.0622
13668W        W29477   8.325  18.799   4.007 -0.0109 -0.1331 -0.1038
13669W        W29478  18.081   9.949  12.249  0.3945  0.5334 -0.2537
13670W        W29479   7.603  11.412  12.969 -0.2354 -0.4349 -0.0820
13671W        W29480   2.877   4.632  15.189 -0.0130 -0.1125  0.1834
13672W        W29481   5.701   8.132  14.922 -0.5281 -0.1650  0.1096
13673W        W29482   2.596  10.097   1.299  0.2768 -0.1734  0.0742
13674W        W29483  14.683  13.169   4.499 -0.1508 -0.2186  0.1986
13675W        W29484  12.614  17.835   3.000 -0.1967  0.2434 -0.0253
13676W        W29485   0.306   4.766  11.199  0.1034  0.3919 -0.0511
13677W        W29486   4.130   0.045   2.151 -0.0618  0.1151 -0.0362
13678W        W29487   1.570  13.734   4.432 -0.1811 -0.1657  0.1323
13679W        W29488   6.501  16.678  14.706 -0.0653 -0.0930 -0.3150
13680W        W29489   5.413   5.081  15.155  0.3376  0.1148 -0.2448
13681W        W29490   9.262  16.755  13.967 -0.1641  0.0092  0.1724
13682W        W29491  17.718   2.215   2.307  0.2357 -0.2706 -0.2853
13683W        W29492  12.981   0.706  15.093  0.1523  0.0653  0.1257
13684W        W29493  16.576   7.219   1.242 -0.0301  0.0803 -0.0386
13685W        W29494   7.684  15.305   3.317 -0.2900 -0.1035  0.0157
13686W        W29495  15.612   2.158  14.358  0.1095  0.1540 -0.2178
13687W        W29496   2.973  15.929   2.327  0.1840  0.2474 -0.3401
13688W        W29497   5.487  17.366  14.912  0.0688  0.2161  0.5166
13689W        W29498   4.607  10.903  12.868 -0.3896  0.1733 -0.1878
13690W        W29499  19.045  12.055   1.021  0.3526 -0.0816  0.1776
13691W        W29500   9.784  10.224  11.906  0.0030 -0.0993  0.1060
13692W        W29501   1.300  18.794   2.119  0.1361  0.1849 -0.2045
13693W        W29502  11.068   1.864  12.662  0.1168 -0.0141 -0.0568
13694W        W29503  18.010  14.004   1.427 -0.2235  0.0090  0.1914
13695W        W29504  14.789  10.741  11.792 -0.0512 -0.0385  0.4503
13696W        W29505   1.425  12.912  11.749 -0.1741  0.0277 -0.1934
13697W        W29506   5.339  15.278   1.534  0.4162  0.3204  0.0758
13698W        W29507  18.843  17.330   2.940 -0.1597 -0.0138  0.1100
13699W        W29508   5.191  14.263   3.891 -0.0266 -0.1729  0.0032
13700W        W29509  10.153  16.240  14.694 -0.0818 -0.3777 -0.2160
13701W        W29510  12.497   9.869   2.351  0.0671 -0.1992  0.1773
13702W        W29511  11.659   7.082  14.254  0.1733  0.2859 -0.1916
13703W        W29512   0.632  10.573  11.695 -0.1599  0.3947  0.0724
13704W        W29513   3.798   9.860  14.954 -0.1479 -0.0588  0.1495
13705W        W29514   2.040   6.434  10.790 -0.1955  0.2774  0.1591
13706W        W29515  11.609   2.722  10.156 -0.4846 -0.1618 -0.2624
13707W        W29516   7.018   6.792  13.789  0.2159 -0.0754 -0.3863
13708W        W29517   9.420  16.147  14.151 -0.2241  0.0353  0.1527
13709W        W29518  18.137   5.831   4.972 -0.1347 -0.0709  0.3101
13710W        W29519  14.190  16.805   4.236 -0.0231  0.0033  0.4171
13711W        W29520   4.882   5.110   9.807  0.1318  0.2437  0.1548
13712W        W29521   2.054  18.957   3.077  0.0507 -0.2951 -0.0970
13713W        W29522   9.439   9.721   1.878  0.1647 -0.1748  0.0153
13714W        W29523  10.251   6.152  12.129 -0.2242  0.1452 -0.2793
13715W        W29524  11.712  18.440   3.622 -0.2330 -0.0040  0.1901
13716W        W29525  17.474   6.394   2.191  0.0632 -0.3410 -0.0925
13717W        W29526  11.371   0.983  13.199 -0.1261 -0.0598 -0.5089
13718W        W29527   2.748  10.003   9.888  0.5131 -0.0685  0.1926
13719W        W29528  10.942   5.415  10.577  0.2263 -0.3620  0.0172
13720W        W29529  12.500   9.924   3.765 -0.0759  0.1427  0.1470
13721W        W29530   4.523  10.752  10.778  0.3500  0.0083 -0.0315
13722W        W29531  13.046   1.482  14.306  0.2332  0.3675 -0.3479
13723W        W29532   7.243   1.029   0.676 -0.0217 -0.3321  0.1713
13724W        W29533  13.252  13.559   3.959 -0.1728 -0.1484 -0.2029
13725W        W29534   9.482   9.714  10.485 -0.2194 -0.0291  0.1065
13726W        W29535  16.246  11.042   4.171 -0.0940 -0.0532  0.4551
13727W        W29536   8.305  18.560  14.415 -0.0746  0.1799 -0.2491
13728W        W29537  12.953   2.355   4.748 -0.0503  0.3429 -0.1060
13729W        W29538  11.310   2.964   4.861  0.3347  0.1615  0.0618
13730W        W29539  19.060   3.402   2.090 -0.1666  0.0452 -0.3021
13731W        W29540   7.866   7.199  11.414 -0.0672  0.0595 -0.1256
13732W        W29541  18.044  18.973   0.539  0.1002 -0.0731 -0.1510
13733W        W29542  15.849  10.465  10.874 -0.0959  0.0162  0.2934
13734W        W29543  18.323  15.596  14.558 -0.0307 -0.0710  0.0262
13735W        W29544  15.477  16.125  11.646 -0.2566  0.2089 -0.0475
13736W        W29545   8.623   8.054   3.160 -0.0637 -0.1240 -0.2318
13737W        W29546  11.430   2.570   5.639  0.0433  0.2892  0.0245
13738W        W29547  14.728  11.905  11.374 -0.1392 -0.5093 -0.1294
13739W        W29548   1.007  14.559   3.383 -0.0219  0.2608 -0.2048
13740W        W29549   6.073  17.162   0.275 -0.0094  0.0958  0.1068
13741W        W29550  16.114   0.063   0.447 -0.2264 -0.0950 -0.0225
13742W        W29551   5.329   0.083  11.375 -0.1376  0.1152 -0.2204
13743W        W29552  18.802  13.669  12.206 -0.2748 -0.0249  0.0657
13744W        W29553   6.862  14.058  15.120 -0.2087  0.2517 -0.0323
13745W        W29554   2.465  13.788  12.702 -0.3461 -0.2777  0.0889
13746W        W29555   5.768  17.888   9.817  0.0780 -0.1352 -0.0742
13747W        W29556   5.276   3.793   0.244 -0.1424 -0.3256 -0.0605
13748W        W29557   4.675   7.652  11.237 -0.0792 -0.0338 -0.1551
13749W        W29558   5.193   9.255  14.695  0.1115  0.1965 -0.1951
13750W        W29559  18.955   5.706  11.953  0.2623 -0.4900  0.0452
13751W        W29560  17.952  14.998   2.584 -0.0884  0.1796 -0.1068
13752W        W29561  15.100   3.297  13.133 -0.0098 -0.1069 -0.5120
13753W        W29562  13.084  13.971   6.389  0.1493  0.1116 -0.1467
13754W        W29563  11.678   2.340  15.207  0.2772  0.1887  0.2403
13755W        W29564  16.708  11.270  10.868  0.0611 -0.3971  0.2215
13756W        W29565   3.442  12.846  14.109  0.3847  0.0978  0.2053
13757W        W29566  14.633   3.080  12.214  0.0494  0.2342  0.0440
13758W        W29567   3.059  18.785   0.954 -0.0604 -0.1170  0.1149
13759W        W29568   5.445  10.240  13.827 -0.0210  0.0968 -0.0236
13760W        W29569   5.629   3.600   3.409  0.0421  0.0091  0.2294
13761W        W29570   0.089  15.845  14.933  0.0669 -0.0667 -0.0055
13762W        W29571  15.094   5.410   1.137  0.0345  0.0736 -0.0844
13763W        W29572  16.308  18.358  11.359 -0.3501 -0.3690  0.3056
13764W        W29573  16.205   3.294  11.381 -0.0213  0.0529  0.1156
13765W        W29574  15.672   3.078   4.000 -0.0066 -0.1228 -0.1803
13766W        W29575  12.441   1.540  12.884  0.0512  0.0030  0.2602
13767W        W29576   3.980  13.527  11.934 -0.1413 -0.1610  0.1317
13768W        W29577   1.148   5.372   0.108 -0.3094  0.1738  0.3221
13769W        W29578  17.548  14.747  12.611  0.2680  0.0763  0.0423
13770W        W29579   1.068   3.392  12.156 -0.3363 -0.0728 -0.1540
13771W        W29580   5.209   8.007   0.221 -0.2955 -0.0315  0.0242
13772W        W29581  16.290   6.941  11.099  0.0805  0.0416  0.0541
13773W        W29582  16.100  12.469  11.804 -0.0925  0.0309 -0.1112
13774W        W29583  15.356  10.497   1.686 -0.0089  0.1509 -0.0795
13775W        W29584   9.242   0.573   1.311  0.4055 -0.2886 -0.1142
13776W        W29585  17.605  12.507   2.072 -0.2469  0.0813 -0.1249
13777W        W29586   8.068  17.867   3.345  0.0293 -0.2457 -0.2412
13778W        W29587  18.518   5.822   4.665 -0.1766 -0.0507 -0.2070
13779W        W29588  15.263   6.393   1.728  0.0799 -0.0971 -0.4315
13780W        W29589   0.690   1.553   2.217  0.2408  0.1154  0.2823
13781W        W29590   8.891  17.288   1.746  0.1383 -0.6168 -0.0720
13782W        W29591   2.727  17.637  11.099  0.1982 -0.0678 -0.3637
13783W        W29592   2.911  17.355  10.649  0.2281  0.1030 -0.5084
13784W        W29593   1.924   8.421  12.282 -0.1425  0.1351 -0.0201
13785W        W29594  11.944   1.884   0.988 -0.1427 -0.4327  0.3952
13786W        W29595   4.885   9.754   0.388  0.2412  0.0778 -0.1331
13787W        W29596   3.892  10.645  13.453 -0.2997  0.1162 -0.0758
13788W        W29597   4.734   4.723   9.464  0.0386 -0.1029  0.0564
13789W        W29598  15.403   4.621  13.076 -0.1377 -0.3035 -0.0990
13790W        W29599   4.025  11.146   3.124  0.0806 -0.2254  0.2924
13791W        W29600   4.089   2.712   1.724 -0.0683 -0.3757  0.3645
13792W        W29601   6.070  13.087  11.751 -0.1292  0.3435 -0.0522
13793W        W29602   1.494  13.631  12.511 -0.1362  0.0903 -0.2442
13794W        W29603  13.406  12.848  11.475  0.0059 -0.2932  0.0264
13795W        W29604  13.081  15.349   4.330  0.1688 -0.1189  0.3191
13796W        W29605   0.907  17.585   0.119 -0.1370  0.1008  0.1595
13797W        W29606   1.368   1.362  12.719  0.0527  0.1405 -0.0475
13798W        W29607  18.111   3.133   5.384 -0.0323 -0.5599  0.0830
13799W        W29608   9.166  16.597   0.664 -0.0035 -0.3841 -0.0593
13800W        W29609   6.083  10.187   4.066 -0.0405  0.3630 -0.0279
13801W        W29610  17.257   5.061  13.840 -0.1138 -0.2973  0.1439
13802W        W29611   3.280   1.414   0.886 -0.4253 -0.0957 -0.2243
13803W        W29612   8.864   6.400  11.076 -0.1351 -0.0501 -0.0857
13804W        W29613   7.481   7.230   3.822 -0.1209  0.0662 -0.0310
13805W        W29614   6.653   9.098  11.745 -0.2870  0.0920 -0.1239
13806W        W29615  17.646   1.252  11.522  0.3413  0.1030 -0.1545
13807W        W29616  12.358   2.872   4.344 -0.1311 -0.1001 -0.0839
13808W        W29617  13.931  10.678   2.259 -0.2281 -0.0877  0.2706
13809W        W29618   2.478  18.066   5.073 -0.1885 -0.1481 -0.0609
13810W        W29619  13.278  13.185   5.937  0.1513  0.0006  0.0829
13811W        W29620  16.015   9.278  11.430  0.1170 -0.0736 -0.1178
13812W        W29621   8.415   0.392  12.510 -0.0888 -0.1366 -0.4987
13813W        W29622   3.636   7.457  11.358  0.1122 -0.0304 -0.4240
13814W        W29623   6.837  14.777   4.834 -0.2897 -0.1410  0.1068
13815W        W29624  18.215  15.019   0.677  0.0333  0.0565 -0.2795
13816W        W29625   0.331  16.358   3.492  0.1166  0.0224  0.1124
13817W        W29626  11.298  10.437   0.805 -0.0061 -0.1927 -0.2743
13818W        W29627   5.394   9.717   2.620  0.2437 -0.0335 -0.0841
13819W        W29628   3.868   8.433   0.305 -0.3102  0.0452  0.0746
13820W        W29629   9.808   8.590  11.908  0.2559  0.1249  0.0755
13821W        W29630   8.029  11.812   4.726 -0.2580 -0.0748  0.1131
13822W        W29631   5.301  12.502  11.935 -0.1002  0.1588 -0.2719
13823W        W29632   2.001   4.662   4.102 -0.1733 -0.2170  0.1492
13824W        W29633  11.846   8.521  10.311  0.0733  0.2246  0.1313
13825W        W29634  11.945   8.764   0.969  0.0643  0.1674 -0.0886
13826W        W29635  14.224   1.896   1.745 -0.0335 -0.3981  0.1704
13827W        W29636   0.197  14.464   4.184 -0.1164  0.0591 -0.1553
13828W        W29637   9.703  11.182  14.394  0.2105 -0.0415 -0.0110
13829W        W29638   4.837  13.314  13.403 -0.0869 -0.2786 -0.0944
13830W        W29639  11.221   3.548   3.828  0.0571  0.0670 -0.0765
13831W        W29640   3.033   4.109   3.010 -0.1709  0.0354  0.0205
13832W        W29641   2.058   6.978   4.985  0.0615  0.2199  0.1516
13833W        W29642   2.130   5.018   0.509  0.0700 -0.0064  0.1245
13834W        W29643   0.798  16.887   5.158 -0.0253  0.0359  0.2080
13835W        W29644  10.197  14.476  12.537  0.1358 -0.1206  0.0006
13836W        W29645   7.821  15.763   3.127 -0.0359  0.0550  0.2141
13837W        W29646   6.215   5.544  13.283  0.3280 -0.0456 -0.0683
13838W        W29647   0.118  15.405  12.364  0.2160 -0.0648  0.1837
13839W        W29648  11.662  12.995  11.694 -0.2514 -0.0569  0.0054
13840W        W29649   3.475  17.940   9.591  0.5287 -0.0152  0.2012
13841W        W29650   7.175   9.670  11.038  0.3820  0.0729 -0.0170
13842W        W29651  15.338   0.309   1.241 -0.2072 -0.1132  0.2702
13843W        W29652  12.963  13.494  11.369  0.0170 -0.3037  0.0989
13844W        W29653  11.252  17.368   2.979 -0.1533  0.5561  0.0734
13845W        W29654   4.417   5.843  12.245 -0.0654 -0.1075  0.3195
13846W        W29655   8.570  12.546  10.024 -0.2545  0.1213  0.0088
13847W        W29656   0.778  12.490   4.943  0.1874  0.0791 -0.0106
13848W        W29657  11.940   5.302   1.377 -0.0303  0.0578 -0.2260
13849W        W29658   4.166  12.609  11.850  0.0816 -0.1311 -0.0946
13850W        W29659   3.563  16.037   4.247 -0.0762  0.3826 -0.2363
13851W        W29660  12.022   4.598  14.793 -0.1396 -0.0556  0.0438
13852W        W29661  12.950  15.421   5.683 -0.1198 -0.0234 -0.2192
13853W        W29662   8.115  16.266   0.384  0.1031 -0.0975 -0.0897
13854W        W29663   8.997  11.513   4.848 -0.3137  0.1520  0.0074
13855W        W29664  16.983  13.560  13.866 -0.1660  0.0267 -0.0223
13856W        W29665  11.152   7.818   0.992  0.0939  0.1144  0.1121
13857W        W29666   9.844  12.965   0.748  0.1964 -0.0854  0.2102
13858W        W29667   9.053  18.178  12.595 -0.1139  0.0908  0.1350
13859W        W29668   1.949  12.939   0.575  0.0608  0.1609  0.0816
13860W        W29669   6.295  13.623  13.411  0.1353  0.0042 -0.0649
13861W        W29670   0.594   1.247   2.589  0.2238 -0.0086  0.0341
13862W        W29671  12.321   8.857   3.950 -0.1663  0.1726 -0.1522
13863W        W29672   8.829   2.187  13.021 -0.1467 -0.2404 -0.2047
13864W        W29673   9.312   6.048  14.025  0.1167 -0.0074 -0.1466
13865W        W29674  14.475   3.494  11.999  0.2331 -0.1547  0.5604
13866W        W29675   3.728   8.019   0.754 -0.0940  0.0310 -0.4389
13867W        W29676   7.928   7.774  12.305 -0.2986  0.1146 -0.2057
13868W        W29677  16.316  14.485  12.749 -0.4199  0.1327 -0.0710
13869W        W29678  16.685   1.522  13.946 -0.0756 -0.0865  0.3378
13870W        W29679   5.191   1.430   1.526  0.1608 -0.2807  0.1286
13871W        W29680   3.596  10.925   1.702  0.3206 -0.2682  0.0480
13872W        W29681   7.491   2.107  13.921  0.0927 -0.1040  0.0701
13873W        W29682   6.991   6.672  14.695  0.2140  0.0393  0.0554
13874W        W29683   3.573   6.264  12.866 -0.1891 -0.1229  0.0383
13875W        W29684  10.122  12.926   0.279 -0.0820 -0.0684  0.0250
13876W        W29685  12.531   7.416   4.028 -0.0167 -0.2187  0.0046
13877W        W29686   2.107  12.156   2.561  0.1443 -0.0404 -0.0028
13878W        W29687  12.371   8.959   1.219 -0.1875  0.1490 -0.3080
13879W        W29688   5.152   3.915   2.790 -0.3049 -0.1658 -0.1815
13880W        W29689  15.480   3.624  10.062 -0.1490  0.0046 -0.2249
13881W        W29690   9.412   6.519  10.189 -0.3196 -0.3283  0.4505
13882W        W29691  18.377   1.873  11.505  0.0161  0.0400 -0.2346
13883W        W29692  16.909   1.329  14.982 -0.1828 -0.1673 -0.1858
13884W        W29693  16.701  11.137   0.700  0.2526  0.1479 -0.1087
13885W        W29694   0.701   3.883   0.934  0.0267 -0.3297 -0.2409
13886W        W29695  10.583   4.366  14.830  0.1126  0.0920 -0.0639
13887W        W29696  16.714  16.869  13.020  0.3176 -0.0360  0.3506
13888W        W29697   6.244  16.937   2.946 -0.2269  0.0127 -0.0762
13889W        W29698  11.325   7.092   2.336 -0.3233  0.2659  0.0259
13890W        W29699   2.921  18.069   3.581 -0.0396  0.0003 -0.0594
13891W        W29700  16.245  16.203  13.592  0.2815 -0.0805 -0.1040
13892W        W29701  18.202  17.301   1.861  0.0616 -0.0411  0.0904
13893W        W29702   0.637   2.370  13.495 -0.0619  0.1365 -0.1363
13894W        W29703   1.559   0.788   3.635 -0.1675 -0.0221 -0.2329
13895W        W29704   5.913   2.006   0.444  0.1215 -0.1573 -0.2610
13896W        W29705  12.749   0.083   2.935  0.0518  0.1439 -0.0111
13897W        W29706  16.249   6.686  12.560  0.1305 -0.4656 -0.0371
13898W        W29707   9.236   9.742   1.363  0.2191  0.1246 -0.1256
13899W        W29708   7.058  12.693   4.249  0.2435 -0.0762 -0.0803
13900W        W29709  15.966   9.237  14.096  0.0302  0.0342  0.0674
13901W        W29710  12.986   7.837   1.956 -0.2158 -0.1179 -0.1657
13902W        W29711   5.111  10.234  10.595  0.2603 -0.1300  0.2155
13903W        W29712   9.213  11.404  13.279  0.1050  0.0820 -0.0514
13904W        W29713  12.831   0.599  12.583  0.1441 -0.4739 -0.1899
13905W        W29714  16.231   9.179  15.096  0.1286  0.1710 -0.0920
13906W        W29715  19.113   5.797   2.693 -0.1130  0.1292  0.3304
13907W        W29716  13.954   1.370  14.491  0.2583 -0.0386 -0.2908
13908W        W29717   9.460   0.008  11.407  0.2090  0.2358  0.0872
13909W        W29718   9.689  11.937  13.940  0.2104  0.0308 -0.0806
13910W        W29719   5.878  17.364  14.464 -0.0917 -0.2184 -0.0821
13911W        W29720   5.270  12.334  12.410  0.1248  0.1258 -0.0428
13912W        W29721   3.481   3.071  11.838 -0.2757 -0.0183 -0.0947
13913W        W29722   2.243  12.019  13.281 -0.2355  0.3375 -0.1232
13914W        W29723   8.729   1.258   1.875  0.1936 -0.1542 -0.0767
13915W        W29724   8.712   9.833  10.355 -0.1728 -0.1752 -0.0467
13916W        W29725   0.540  15.331   3.158  0.0625  0.0633 -0.3258
13917W        W29726  13.985   9.725  12.819  0.0732  0.1246  0.1788
13918W        W29727   5.076  13.159   1.675  0.0651  0.0617 -0.0747
13919W        W29728  13.938  14.854   5.623 -0.0555  0.2385  0.3250
13920W        W29729  13.093   7.813   0.060  0.1042 -0.1050  0.1868
13921W        W29730  11.943  10.486   9.695 -0.3518  0.3905  0.1819
13922W        W29731  18.142  14.071   4.419 -0.2955  0.0521  0.2240
13923W        W29732   0.906   8.797  11.368 -0.1764  0.0562  0.0521
13924W        W29733  18.176   5.337   4.487  0.0205 -0.1295  0.0492
13925W        W29734   8.441  15.796  12.231  0.0557 -0.1229 -0.1594
13926W        W29735   1.360   5.235  14.137  0.0571  0.0244 -0.2883
13927W        W29736   2.971  16.738  12.063  0.0612  0.3104 -0.4773
13928W        W29737   2.589   0.297   1.154  0.1670  0.0096 -0.1658
13929W        W29738  18.452   1.263  10.282 -0.0917  0.1003 -0.2326
13930W        W29739  11.972  12.444   2.592 -0.3182 -0.3083  0.0954
13931W        W29740  17.258   0.186  11.809  0.1193  0.1286  0.1829
13932W        W29741   0.685  16.324  13.475 -0.1404 -0.1582  0.0884
13933W        W29742  16.726   8.381  12.099  0.1260 -0.1183 -0.3465
13934W        W29743   5.227  18.923   1.935 -0.1506  0.1638 -0.2310
13935W        W29744  18.634   6.113   1.646  0.0156 -0.1452 -0.0921
13936W        W29745  16.582   5.024   1.905 -0.1636  0.2568 -0.1019
13937W        W29746   4.938   1.066  12.788  0.0528  0.3804  0.0724
13938W        W29747   2.125   8.498   3.249 -0.0784  0.2130  0.3318
13939W        W29748   3.457  16.293   3.008  0.3147  0.2178 -0.0914
13940W        W29749  10.420  10.061   1.537 -0.0750 -0.0150 -0.2711
13941W        W29750  14.359   8.125   0.825  0.0106 -0.0365 -0.0687
13942W        W29751   8.576  11.604   0.420 -0.2663 -0.2866 -0.0013
13943W        W29752   5.037   7.832   4.021  0.2701 -0.1065  0.1491
13944W        W29753  14.137  13.307   4.460  0.0072  0.2177  0.3218
13945W        W29754  12.197  16.332   0.431 -0.4385  0.4191  0.1741
13946W        W29755  11.649  16.349  14.373 -0.0213 -0.3307 -0.0061
13947W        W29756   9.944  13.202  12.153 -0.0825 -0.4103 -0.1013
13948W        W29757   7.544   0.752  12.494 -0.2849  0.0147  0.1838
13949W        W29758  17.935   0.825  13.593 -0.2398 -0.2300  0.0061
13950W        W29759  17.151   3.853  14.016  0.0439 -0.2578 -0.0066
13951W        W29760  17.696   7.535   1.334  0.5112 -0.0922 -0.0525
13952W        W29761  17.154  14.519   4.276 -0.3859 -0.2831  0.3564
13953W        W29762   3.571   9.185  10.771 -0.3440  0.3054  0.1548
13954W        W29763   5.969  17.209  13.998 -0.2130  0.0774  0.5283
13955W        W29764   5.928   9.507  13.845  0.0383 -0.0337  0.0072
13956W        W29765   4.258   4.742   2.020 -0.0971  0.2348 -0.2742
13957W        W29766  14.420  12.234  11.606  0.0073 -0.3802  0.0451
13958W        W29767  15.932   5.503   0.739  0.1800 -0.1794 -0.2637
13959W        W29768  16.872   3.516  10.404 -0.0180  0.4050  0.1338
13960W        W29769   8.467  14.058   9.993 -0.0287  0.2376  0.0397
13961W        W29770  11.892  13.785   1.305  0.1699  0.0678  0.1469
13962W        W29771  15.198  18.271   2.286 -0.1389  0.0099  0.3886
13963W        W29772  15.797   1.607   2.294  0.0366  0.1758  0.0374
13964W        W29773   3.199   9.382   5.372  0.0957 -0.2755 -0.1475
13965W        W29774   3.411   1.675  11.283  0.0963 -0.2089 -0.1732
13966W        W29775  12.150   0.711  14.620 -0.1181  0.3920  0.0961
13967W        W29776  18.607  15.103  15.138  0.2886 -0.1268 -0.3303
13968W        W29777  17.346  14.196  12.742 -0.0623  0.3059 -0.2173
13969W        W29778   2.159   2.013  15.061 -0.0442  0.3151 -0.0792
13970W        W29779   6.701  14.613   3.817 -0.1561 -0.1349  0.1315
13971W        W29780   4.941   5.245   3.278  0.0241  0.1339  0.1385
13972W        W29781  15.640   9.320  12.498  0.4180 -0.1463 -0.1610
13973W        W29782  15.774  13.808   0.368  0.0760 -0.1025  0.1456
13974W        W29783  15.315   9.551  14.899 -0.0799 -0.0469 -0.2580
13975W        W29784   3.213   3.676   3.305  0.1137  0.0109 -0.4045
13976W        W29785   4.611  12.270   4.750 -0.2636  0.1079 -0.2868
13977W        W29786   7.872   6.467  12.718 -0.0250 -0.1745  0.1220
13978W        W29787   7.611  18.005   0.737 -0.1629  0.0043 -0.3742
13979W        W29788  18.575  18.052   4.848 -0.2728  0.0090  0.0377
13980W        W29789   9.246   0.575   1.857  0.1788 -0.0967 -0.1858
13981W        W29790   7.667   5.878  14.621 -0.4124 -0.2130 -0.0666
13982W        W29791   7.961  17.726   4.669  0.1526  0.3354 -0.0928
13983W        W29792   4.760   1.373  13.617 -0.2489 -0.2133  0.0322
13984W        W29793   2.644  10.383  10.163  0.3485  0.0424 -0.0677
13985W        W29794  18.067   4.549  14.878  0.0397  0.0277 -0.0005
13986W        W29795  18.513  14.562   2.847 -0.0315 -0.1802 -0.1364
13987W        W29796   8.342   9.421   4.255 -0.1454  0.1224 -0.0567
13988W        W29797   8.125   1.470  11.808  0.0666 -0.0233  0.1159
13989W        W29798  15.893   0.515  10.859  0.2213  0.1010  0.0170
13990W        W29799  16.231   0.011  15.137 -0.0334  0.3703 -0.1947
13991W        W29800  15.033   3.235  11.128 -0.1050  0.0401  0.0581
13992W        W29801  16.711  11.021  14.406 -0.0530 -0.1118  0.0687
13993W        W29802  14.061   4.217  12.543  0.1570  0.1924 -0.4232
13994W        W29803   3.946   4.209   4.687 -0.1900  0.0475 -0.0600
13995W        W29804  17.743  13.861  12.592  0.1599 -0.0127 -0.0851
13996W        W29805   5.104  14.464   1.432 -0.1213  0.0128  0.1334
13997W        W29806  10.916  18.697   4.003 -0.0241  0.0412 -0.0574
13998W        W29807   8.587   1.971   0.204 -0.1098 -0.0906 -0.0837
13999W        W29808  18.563  18.383   4.471 -0.0127 -0.0124  0.2772
14000W        W29809  16.546   0.109  14.611  0.0496  0.1682  0.0264
14001W        W29810  11.985   2.596  11.381  0.1806  0.1974  0.4831
14002W        W29811  16.651  10.123   1.099 -0.3680  0.0013  0.1753
14003W        W29812   9.379   5.765   3.153  0.0738  0.1562  0.2593
14004W        W29813  10.668   8.425  14.011  0.0974  0.0250  0.0029
14005W        W29814  12.078  12.834  13.898  0.1422  0.0715 -0.3588
14006W        W29815  15.358   1.109  10.988 -0.0019  0.3052 -0.0569
14007W        W29816   4.872   8.185   3.441  0.4254 -0.0315  0.2277
14008W        W29817   1.918  10.035   0.744  0.0043 -0.1090 -0.1844
14009W        W29818   5.097   2.061   0.012 -0.0620 -0.0019 -0.0728
14010W        W29819   9.101   8.018  10.783 -0.1152 -0.1969  0.2012
14011W        W29820  12.180   7.474   3.716  0.1235  0.0976  0.0112
14012W        W29821  18.512   5.095   0.931 -0.0313  0.1016  0.0761
14013W        W29822  18.559  14.042   2.664 -0.0905 -0.1714  0.2217
14014W        W29823  14.946  14.313   2.496  0.0377  0.2000 -0.0341
14015W        W29824  14.540  13.466   0.523  0.0914 -0.0639 -0.0848
14016W        W29825  15.978  14.573   4.362  0.1319 -0.0956  0.0502
14017W        W29826   9.003  16.252  13.294  0.0353 -0.1562 -0.0968
14018W        W29827   0.057   0.423   4.371  0.0619  0.0594  0.0051
14019W        W29828   3.164   0.919   0.970  0.0907 -0.1811 -0.1099
14020W        W29829   8.760   6.652   2.552 -0.1368 -0.1104  0.2883
14021W        W29830   4.979   7.020   0.488 -0.0568  0.3425 -0.3243
14022W        W29831   6.409   2.893   4.676  0.0412 -0.1810  0.1342
14023W        W29832   7.748   9.534  14.584 -0.2431  0.0907  0.3330
14024W        W29833   8.094   5.561  12.040  0.2454 -0.0785  0.0284
14025W        W29834   0.952  12.465   9.652 -0.1819  0.2862  0.1349
14026W        W29835  17.746  13.671  14.568 -0.1375  0.0962 -0.1414
14027W        W29836   5.011  11.449  15.077 -0.5410 -0.1229  0.1369
14028W        W29837  17.365   5.737  15.167 -0.1364  0.1810  0.2100
14029W        W29838  13.203   1.668   0.973  0.1501  0.0272 -0.0750
14030W        W29839  12.847  18.647   0.237 -0.3112 -0.1006  0.2816
14031W        W29840   7.670  13.122   5.248 -0.0329  0.1027  0.1006
14032W        W29841  16.017   1.948  14.072 -0.1558  0.1371 -0.1422
14033W        W29842  16.184   2.902  13.920 -0.4507 -0.1476  0.0893
14034W        W29843   8.370   4.836   5.008  0.0099 -0.1524 -0.0181
14035W        W29844   9.776   3.908   5.034 -0.2226 -0.0169 -0.1562
14036W        W29845   3.498   9.971   3.397  0.0072 -0.2265 -0.0776
14037W        W29846  12.228   3.490  12.840  0.1955  0.0400 -0.0902
14038W        W29847   5.506   1.381  13.623  0.0088 -0.0916  0.1159
14039W        W29848   0.118  18.332  11.760  0.0040 -0.3702  0.2041
14040W        W29849  18.399   5.271  11.342  0.3162  0.2696 -0.1542
14041W        W29850   5.147   7.929   0.747  0.0480 -0.0035  0.3089
14042W        W29851   3.833  18.270  13.665  0.0832 -0.1569  0.0826
14043W        W29852  10.401  17.424  15.179  0.2250 -0.4571 -0.0517
14044W        W29853   0.449  10.599   4.019 -0.2090 -0.3181  0.0802
14045W        W29854   3.990  14.889  13.185  0.1932 -0.2761 -0.1067
14046W        W29855  16.809   5.361   6.107 -0.1623  0.2485  0.1003
14047W        W29856   9.939  17.305  14.948  0.1423 -0.1842 -0.2318
14048W        W29857   9.989   7.894   3.082 -0.0485 -0.2613  0.2818
14049W        W29858   1.425   3.017  13.685  0.1912  0.2031 -0.1801
14050W        W29859  11.363  15.164   1.124  0.1343  0.1768 -0.0899
14051W        W29860  11.140  18.073  11.614 -0.0084 -0.1105  0.0831
14052W        W29861   5.029   3.247  11.116 -0.0065  0.3554  0.1220
14053W        W29862  13.663   4.151  13.561 -0.2834  0.0631  0.1277
14054W        W29863   4.444   9.010  11.226  0.1189 -0.1072  0.1334
14055W        W29864  18.595   0.041   1.372 -0.0923 -0.1469  0.1326
14056W        W29865  16.858   5.267  11.310  0.4229 -0.2131 -0.1037
14057W        W29866  11.904  11.760   6.309  0.3142 -0.0012 -0.4474
14058W        W29867   7.484  13.066  13.870  0.0704  0.2610  0.2351
14059W        W29868   4.449   7.477   4.152 -0.4317  0.0635 -0.0221
14060W        W29869   6.113   5.721  10.180 -0.2624  0.0111  0.1621
14061W        W29870  15.156   0.012  11.188  0.2591 -0.1020  0.0873
14062W        W29871  14.215   6.199  13.947 -0.1132  0.2557 -0.0689
14063W        W29872  12.782   7.686  10.169 -0.2723  0.2099 -0.1523
14064W        W29873  16.079  12.149   3.453 -0.2657  0.1324 -0.1310
14065W        W29874  13.183  15.230  11.632  0.0685  0.2651  0.0010
14066W        W29875   1.776   6.301  14.383  0.1708  0.0563 -0.1849
14067W        W29876  13.022   4.776   3.929 -0.1020  0.2617 -0.2179
14068W        W29877  18.028  12.874   2.269  0.1179 -0.0548  0.0471
14069W        W29878   3.942   5.582  11.722 -0.1826  0.2355  0.0874
14070W        W29879   0.379  18.095   4.209  0.0953 -0.1246 -0.1865
14071W        W29880  13.071  14.497  15.154 -0.1342 -0.1888 -0.0170
14072W        W29881  16.294   4.378  12.191  0.1371  0.0332 -0.2161
14073W        W29882   4.779  17.242   4.497 -0.2948 -0.3310  0.1171
14074W        W29883  16.220   5.442   2.032  0.2255 -0.0683  0.2039
14075W        W29884  14.741   0.753   2.635  0.3046 -0.2705 -0.1772
14076W        W29885   0.693  17.458   2.650 -0.0378 -0.0182  0.0238
14077W        W29886  18.404  14.678  14.884  0.1611 -0.2031  0.2026
14078W        W29887  11.174   2.901   3.414 -0.2428 -0.1941  0.0651
14079W        W29888  18.369   0.610  11.492 -0.0780 -0.0123  0.3327
14080W        W29889   5.143  13.439   2.813  0.1019 -0.1132 -0.0281
14081W        W29890   4.639  14.290  13.185  0.1408 -0.1029 -0.2675
14082W        W29891  19.127   9.267  10.620 -0.0047 -0.0918 -0.1504
14083W        W29892  12.604   0.823   1.297 -0.3692 -0.3148 -0.1257
14084W        W29893   0.010   2.009   1.796 -0.0110  0.1674 -0.1411
14085W        W29894   6.091   1.939   4.392  0.0757  0.0815 -0.2109
14086W        W29895  13.604   6.948  10.175 -0.0593  0.5689 -0.0526
14087W        W29896   4.489  11.405  12.146 -0.1473  0.1119  0.2232
14088W        W29897  11.276  10.801   3.898  0.1435 -0.2292 -0.1516
14089W        W29898   4.938  12.328  13.914  0.1164  0.3053 -0.0493
14090W        W29899  13.768   7.350   1.513 -0.1024  0.0567  0.0429
14091W        W29900   3.354  17.266   3.750 -0.4315  0.2334  0.1189
14092W        W29901  10.438   7.868   1.495  0.0689  0.3476  0.1785
14093W        W29902   7.302   9.765  14.303 -0.0008  0.0480  0.2745
14094W        W29903   8.834   9.044  11.854 -0.1524 -0.0184  0.1279
14095W        W29904  15.908   0.506   4.413 -0.2150 -0.3026 -0.0461
14096W        W29905   6.417   6.028  14.182 -0.0842 -0.0813 -0.4823
14097W        W29906   4.399   1.751   1.666 -0.4267  0.1292 -0.0358
14098W        W29907  13.595  10.389  15.026  0.3431 -0.0151  0.1044
14099W        W29908   5.309   4.849   5.310 -0.2164  0.1253  0.4429
14100W        W29909   5.759  12.260  11.653 -0.1782  0.0679  0.3088
14101W        W29910   7.193   1.144   0.168  0.0225 -0.1669 -0.4814
14102W        W29911  13.067  14.625   0.425  0.0506  0.0060 -0.2161
14103W        W29912   9.789  15.926   4.180 -0.0859 -0.0532 -0.1220
14104W        W29913  16.245   3.355  13.751  0.0695 -0.0530  0.2110
14105W        W29914   9.514  14.795  11.197 -0.0942 -0.1583  0.2419
14106W        W29915  10.586  16.725  11.347 -0.2747 -0.0083  0.1676
14107W        W29916   8.293  12.226  10.354  0.0534  0.0472  0.0722
14108W        W29917   6.728   7.403   1.620 -0.0833 -0.1860  0.1897
14109W        W29918  11.230   8.426   1.843 -0.1329  0.1805 -0.0140
14110W        W29919  13.330  17.918   0.742  0.1760 -0.3128  0.1281
14111W        W29920   4.954  13.633  11.951 -0.1486 -0.1251 -0.2938
14112W        W29921   6.731   4.811  13.510  0.2461 -0.2241 -0.0088
14113W        W29922  13.322  17.422  12.376 -0.0459 -0.1877  0.1362
14114W        W29923   1.011  16.500   1.716 -0.0753 -0.1164 -0.2152
14115W        W29924   4.035  11.012   5.176 -0.1581 -0.2054  0.0509
14116W        W29925  14.757  15.423   4.838 -0.1241  0.0675 -0.1525
14117W        W29926   2.308   3.581   3.441  0.2989  0.1520 -0.2907
14118W        W29927   9.539  18.994  10.905  0.2371 -0.1500  0.1022
14119W        W29928   1.039   4.057  13.507  0.0411  0.0953  0.1352
14120W        W29929   5.422  15.092   3.130 -0.1256  0.0112  0.1901
14121W        W29930  17.262  15.257  13.277  0.2539  0.1209 -0.0451
14122W        W29931  16.099  13.558  11.414  0.0856 -0.0593 -0.1918
14123W        W29932   5.811   0.903   4.766 -0.0624  0.0272  0.1640
14124W        W29933   1.544  12.372   1.187  0.2819  0.3531 -0.1425
14125W        W29934  14.853   3.936   0.245 -0.2280  0.2803 -0.2487
14126W        W29935  11.906  12.366   1.984 -0.0137 -0.0053 -0.0088
14127W        W29936  18.760   6.670   2.582 -0.4141  0.1120  0.0488
14128W        W29937  16.072  13.177  11.073  0.1799  0.0714 -0.0931
14129W        W29938  10.351   2.624   5.017 -0.5238 -0.3480  0.1690
14130W        W29939   1.311  16.122   1.896 -0.0777 -0.0180  0.2029
14131W        W29940   1.527   3.563  10.351  0.2863 -0.0083 -0.0483
14132W        W29941  16.332  18.369   2.914 -0.2159 -0.0339  0.2705
14133W        W29942   7.838  10.941   4.737 -0.1154 -0.0541  0.0426
14134W        W29943  12.291   5.978  11.539 -0.1953 -0.0641 -0.3752
14135W        W29944  12.966  10.310  12.733  0.2120 -0.1880 -0.4657
14136W        W29945  15.494  13.756   5.356 -0.2033 -0.3137  0.2364
14137W        W29946   5.547  10.628   4.746 -0.0429 -0.2715 -0.0250
14138W        W29947   7.114   5.666  11.830 -0.0892 -0.1550 -0.2110
14139W        W29948  17.506  14.615  13.549 -0.0238 -0.0578  0.0105
14140W        W29949   0.125  15.819   3.862 -0.1941  0.3251 -0.0140
14141W        W29950  16.443   3.788  11.677  0.1298 -0.3082  0.1224
14142W        W29951  16.277  18.316  12.573  0.1750  0.4048  0.0657
14143W        W29952  14.303   4.138   5.141 -0.2882 -0.3185 -0.2547
14144W        W29953   8.350  18.386   4.697  0.0521  0.0222 -0.1355
14145W        W29954  14.840   5.336  12.910 -0.3367  0.0376  0.0508
14146W        W29955  13.273  13.690   1.309  0.1020 -0.1763 -0.0212
14147W        W29956  10.436  12.278   4.779 -0.2322  0.0335  0.0752
14148W        W29957   7.587  11.513   0.636 -0.0025 -0.3745 -0.0655
14149W        W29958   4.485   2.915   0.149  0.0530 -0.1504  0.0769
14150W        W29959   7.776  12.213   2.717  0.1637  0.0831  0.0567
14151W        W29960   9.011   2.709   1.695  0.0023  0.1170  0.0855
14152W        W29961   2.117   5.860   3.353 -0.0816 -0.2761 -0.0415
14153W        W29962  15.542   7.298  13.204 -0.1487  0.1629 -0.0344
14154W        W29963   2.429   6.747   9.636 -0.1822 -0.0704  0.1444
14155W        W29964  12.320   2.605  13.302  0.1044 -0.1033  0.2136
14156W        W29965   7.575  12.064   3.373  0.0437  0.0935  0.0324
14157W        W29966  17.911   6.834  13.016  0.2053  0.0819  0.2241
14158W        W29967   8.107  12.983   5.423  0.1147 -0.0951  0.1571
14159W        W29968   1.518   0.699   1.713  0.2314 -0.4349 -0.4523
14160W        W29969  14.762   0.567   4.220 -0.0255  0.0118 -0.0123
14161W        W29970   8.769  10.179  14.774 -0.0024 -0.4082  0.0499
14162W        W29971   4.893   5.872  12.863 -0.1516 -0.0736 -0.3409
14163W        W29972   1.248   6.692   2.032 -0.3634  0.4035  0.0640
14164W        W29973   2.104   4.059   3.366  0.1161  0.3958 -0.2875
14165W        W29974   0.383  16.241  14.304  0.2623 -0.0627  0.0072
14166W        W29975   2.818   0.121  11.843 -0.3452  0.1106  0.3195
14167W        W29976  14.548  15.891  14.771 -0.1418 -0.1315  0.1621
14168W        W29977  15.262  12.397   0.416  0.1085 -0.0219  0.0285
14169W        W29978   0.248  11.126  14.850  0.0349 -0.1131  0.2412
14170W        W29979  18.318   7.039  13.354  0.1772 -0.1565 -0.0905
14171W        W29980   1.037  12.210   1.115 -0.1773 -0.1962  0.1288
14172W        W29981   0.351  13.455  13.354  0.0848  0.0008 -0.2109
14173W        W29982   2.309  13.776   0.536 -0.0078  0.1441  0.0606
14174W        W29983   8.206   7.820  11.068 -0.1699 -0.0405 -0.0656
14175W        W29984  16.821   7.225  11.170  0.2396  0.0608 -0.0423
14176W        W29985  18.283  10.445   4.267 -0.3420  0.3747  0.0240
14177W        W29986   9.101   1.983   1.720 -0.2456  0.0097  0.1729
14178W        W29987  10.758  15.625  11.426 -0.2920 -0.1319  0.0394
14179W        W29988  12.308   5.814  14.331  0.3230  0.1857 -0.2308
14180W        W29989  10.971  12.819   4.211 -0.2045  0.1733  0.0340
14181W        W29990   3.205   0.947   0.486 -0.2393 -0.2128  0.2822
14182W        W29991   8.814   5.158   3.292  0.0824  0.0794  0.1782
14183W        W29992  15.816  14.161   0.708  0.0426  0.4508 -0.2898
14184W        W29993  11.274   4.232   0.311 -0.0888  0.0150  0.0286
14185W        W29994   9.559   7.665   3.219  0.0097  0.0851 -0.2640
14186W        W29995  18.606  11.779   0.990  0.1102 -0.2617 -0.1221
14187W        W29996   7.149   0.408   3.470 -0.0889 -0.2268  0.2009
14188W        W29997  14.604   8.993   3.250 -0.0803 -0.1395  0.0315
14189W        W29998   7.184   8.413   0.837 -0.0052 -0.1640  0.0213
14190W        W29999  13.369   7.573  11.369 -0.1787 -0.4167  0.0681
14191W        W30000   5.870  16.077  13.307  0.1003  0.0953  0.0161
14192W        W30001   5.729  18.040  10.715 -0.4727  0.2254  0.0720
14193W        W30002   4.798   0.953  11.206  0.1057 -0.2135 -0.0636
14194W        W30003  10.435  17.265   2.129 -0.2901  0.2208 -0.0798
14195W        W30004  15.158   1.902  11.494  0.2285  0.3103  0.3724
14196W        W30005   7.385   4.813   5.006 -0.2031  0.0150  0.1137
14197W        W30006   1.497   0.147  10.699  0.1554 -0.2913 -0.5371
14198W        W30007   7.447   3.632   2.589  0.0329 -0.0684  0.1484
14199W        W30008   1.329  18.591  13.692  0.0940 -0.1449 -0.0726
14200W        W30009  10.136  18.580   0.633 -0.3996 -0.1815  0.0095
14201W        W30010  18.029  13.315  12.724 -0.1431 -0.1810 -0.0363
14202W        W30011  10.081  12.544   1.619  0.0699 -0.2190  0.2479
14203W        W30012   8.229  11.174   3.441 -0.0216 -0.0263  0.0980
14204W        W30013  13.700  12.155   4.334 -0.0935 -0.3702  0.1756
14205W        W30014   8.142   0.254  12.070  0.0359 -0.0330  0.0549
14206W        W30015   4.190   4.199   2.715 -0.0201 -0.1824  0.0729
14207W        W30016  18.480  16.853   1.816 -0.0781 -0.1135  0.0137
14208W        W30017  14.288  18.797   4.588  0.1631  0.0597  0.1995
14209W        W30018  11.409   6.201   4.491 -0.2661  0.3615  0.2340
14210W        W30019  11.311   0.628  11.760  0.2125 -0.3398  0.1139
14211W        W30020   0.927   1.201   9.583 -0.3806 -0.0426  0.1476
14212W        W30021  16.986   5.220   5.660 -0.0329 -0.2902 -0.1180
14213W        W30022  18.414  18.603  15.183  0.0366  0.0657 -0.0718
14214W        W30023   4.711   5.208  11.452 -0.1427 -0.1507 -0.0785
14215W        W30024   1.897  16.439   3.757 -0.0945  0.1427 -0.5308
14216W        W30025  10.225   8.205  14.829 -0.3475  0.1541  0.0691
14217W        W30026  18.303   9.460   1.081 -0.0222  0.0066 -0.1367
14218W        W30027   4.035   3.321  11.319 -0.1652  0.1150  0.2023
14219W        W30028   2.899   5.445  12.763  0.0118  0.0126  0.0726
14220W        W30029  13.002   6.713   2.785 -0.0220  0.2409 -0.4012
14221W        W30030  17.861  15.108  12.401  0.1849 -0.2818 -0.1583
14222W        W30031  18.600   5.634   0.810 -0.2253  0.1149  0.1337
14223W        W30032   6.153  15.794   2.030  0.1222  0.3925 -0.1965
14224W        W30033  10.505  10.493  10.102 -0.1415  0.0179 -0.2071
14225W        W30034  17.822   5.822  10.950 -0.0736 -0.0972  0.2754
14226W        W30035   4.225  18.005  11.502 -0.2006  0.1044  0.2619
14227W        W30036   9.918  12.645  13.337 -0.0118 -0.2567 -0.1567
14228W        W30037  10.086   3.122  12.107  0.1180  0.1853 -0.2635
14229W        W30038   2.836  12.866  13.540 -0.1939  0.3179 -0.1012
14230W        W30039   9.973   7.456  10.557  0.1796  0.1931  0.0269
14231W        W30040  17.796  14.141  10.172 -0.2808  0.1937  0.2275
14232W        W30041   3.694  17.257   0.989 -0.2745  0.0020  0.0325
14233W        W30042   4.225  14.048   2.867  0.1566  0.0406  0.0054
14234W        W30043   0.804   2.504  10.614  0.5947 -0.0384 -0.0056
14235W        W30044   5.704   0.039  14.163  0.0696 -0.0546 -0.1412
14236W        W30045  15.186   4.936  15.147  0.1625  0.4242  0.0315
14237W        W30046  13.028  12.655  14.092 -0.0301  0.1035  0.0084
14238W        W30047   2.816  10.600   1.984 -0.0999  0.0516 -0.0950
14239W        W30048   4.139  18.599   2.756 -0.1109  0.2893  0.0752
14240W        W30049   4.171   9.819   1.938  0.0965 -0.1127  0.1544
14241W        W30050  12.914   0.533   3.573  0.0789 -0.1727  0.3223
14242W        W30051  10.590  11.246   5.503 -0.1498 -0.0005  0.3184
14243W        W30052  12.594  11.154  10.838 -0.0260 -0.1325 -0.1159
14244W        W30053  13.046  10.778   1.042  0.0203  0.4976 -0.1737
14245W        W30054  10.922   1.536  11.874 -0.0954  0.0490  0.0072
14246W        W30055  10.580  14.290   3.345 -0.0722 -0.0214  0.3135
14247W        W30056   4.383  15.919   3.553 -0.2515  0.2930  0.1398
14248W        W30057  15.950  16.421  13.213  0.1363  0.4421 -0.0584
14249W        W30058  18.183   7.269   5.379 -0.0808  0.0773  0.3575
14250W        W30059   0.870  14.979   2.280  0.0426  0.2042  0.1264
14251W        W30060   9.466  14.501  12.187  0.1956  0.0058  0.1258
14252W        W30061  13.607   7.457   3.984 -0.3385 -0.3290  0.3107
14253W        W30062  15.426   2.859  13.377 -0.0801 -0.0977  0.1328
14254W        W30063  17.607  10.903  12.651  0.0085  0.3142  0.1751
14255W        W30064  12.257  14.141   2.732  0.2482  0.3825  0.0936
14256W        W30065   5.975  11.546  14.263 -0.2862  0.1851 -0.1660
14257W        W30066  14.114   8.044  11.909 -0.3539 -0.0900 -0.0239
14258W        W30067   3.456   6.626  11.222 -0.0973  0.0699  0.3325
14259W        W30068   0.681  19.159  14.125  0.0017  0.3123  0.3068
14260W        W30069  14.903   0.614  15.196 -0.2315  0.1757  0.0728
14261W        W30070  15.211  17.369  11.349 -0.2491  0.0027  0.1129
14262W        W30071  11.573   8.787   4.565  0.2220 -0.1556  0.1178
14263W        W30072  17.022   5.521   5.041  0.1822 -0.1997  0.2383
14264W        W30073   7.449  18.680   3.393  0.0678 -0.1417 -0.3830
14265W        W30074   2.808   9.195  10.562  0.0914  0.0460 -0.5142
14266W        W30075  17.978   7.515  12.006  0.1385  0.1295 -0.0286
14267W        W30076  15.424   8.332  10.757  0.0230  0.1946 -0.0705
14268W        W30077   1.582   0.136  14.127  0.1322 -0.0290 -0.1209
14269W        W30078   9.543  14.442  13.109 -0.0313  0.2580 -0.1388
14270W        W30079   5.883   1.451   4.172  0.0103 -0.2330  0.1141
14271W        W30080  18.322  13.651  13.499 -0.0934 -0.1352 -0.0093
14272W        W30081  19.142   9.834  13.207  0.1833 -0.0864 -0.2678
14273W        W30082   5.026   6.750   4.611 -0.1316  0.0553  0.0628
14274W        W30083   2.393   4.700  14.107  0.1625  0.1120 -0.1358
14275W        W30084  13.439  13.692   4.959  0.2897 -0.0680 -0.1414
14276W        W30085  16.449  16.534  13.254  0.2313  0.3289  0.3979
14277W        W30086   6.096  12.933  14.178  0.2759 -0.1688  0.3032
14278W        W30087  18.395   6.946   0.149 -0.2225 -0.0558  0.2741
14279W        W30088   6.315  19.070   5.043 -0.2757  0.1054 -0.0190
14280W        W30089   6.913   4.929   0.457  0.4329  0.0237 -0.2989
14281W        W30090   6.033   1.112   3.549 -0.2820 -0.1576  0.0104
14282W        W30091  10.325  17.741  12.300 -0.1949  0.3153 -0.0243
14283W        W30092  19.008  17.343  13.171 -0.0021 -0.3898 -0.2405
14284W        W30093  13.041   8.342  11.235 -0.0243 -0.0280 -0.2954
14285W        W30094  19.081  10.717   4.888  0.0119 -0.2327 -0.0403
14286W        W30095  13.146  15.855   5.527  0.3562  0.6684  0.0113
14287W        W30096   8.317   4.498  13.226 -0.0850 -0.4054 -0.2537
14288W        W30097   7.331  12.251  10.534  0.2407  0.5631  0.0891
14289W        W30098  18.330   5.982   2.016 -0.2294  0.1210  0.0788
14290W        W30099   6.694  14.731  14.471  0.2767  0.1186 -0.2686
14291W        W30100  15.278   6.854   4.093  0.0757 -0.1915  0.0090
14292W        W30101   0.131   1.059  12.582  0.5263  0.0573  0.3961
14293W        W30102  16.755  11.968   0.834  0.1263  0.0508 -0.0457
14294W        W30103   2.135   0.501   1.162  0.0624 -0.1956 -0.1645
14295W        W30104  10.337  10.465  14.327  0.0779 -0.3057  0.3941
14296W        W30105   2.599   3.804   0.529 -0.1778  0.2521  0.1654
14297W        W30106  17.118   3.430  12.140 -0.1181 -0.0343  0.0653
14298W        W30107   3.676   1.205   2.669 -0.1053  0.2384 -0.0798
14299W        W30108   1.411   8.462   0.030 -0.0967  0.1551 -0.1310
14300W        W30109  12.970  18.045   2.403 -0.0842 -0.1683  0.0349
14301W        W30110   2.550   1.291  10.945  0.1676 -0.0479 -0.3988
14302W        W30111  15.060   3.555   3.114  0.2035  0.1598 -0.2260
14303W        W30112  13.586   4.337   0.590  0.1069  0.0270  0.0120
14304W        W30113   8.690   3.769   3.538 -0.0906 -0.3288  0.0561
14305W        W30114  18.315  17.543  14.885 -0.2231 -0.3329 -0.1803
14306W        W30115  18.015   4.910  11.167 -0.3441 -0.1855 -0.0536
14307W        W30116   0.017   4.684   0.112  0.2689  0.0742  0.4731
14308W        W30117   3.840   9.469   4.614 -0.2005 -0.1082  0.0525
14309W        W30118   7.134   1.870   5.178  0.3161  0.1440  0.4409
14310W        W30119   4.670  13.842   5.016 -0.1314  0.3103 -0.0290
14311W        W30120   7.806   2.629   2.880 -0.0228  0.3359  0.0152
14312W        W30121  15.415   7.431  11.476  0.2553  0.4050  0.1828
14313W        W30122   3.753   0.169  12.723  0.2443  0.0163  0.0874
14314W        W30123  14.050   2.647   5.369  0.0151 -0.0319  0.0857
14315W        W30124   2.150  10.091  14.656 -0.0791  0.1256 -0.0917
14316W        W30125   3.456  12.124   0.089  0.0693  0.0961  0.0830
14317W        W30126  10.636   1.218  12.687  0.2313 -0.0946 -0.1361
14318W        W30127   7.746   5.333   5.038 -0.3296 -0.2184 -0.2130
14319W        W30128   0.924   2.389   0.035  0.1911  0.0461  0.0394
14320W        W30129  16.971  13.059   1.502 -0.4835  0.1196  0.0727
14321W        W30130   2.428   6.400   0.064 -0.1982 -0.0169  0.2928
14322W        W30131  12.018  11.849  11.449  0.1638  0.0744 -0.0892
14323W        W30132  14.746   6.319   1.612 -0.0140  0.0767 -0.1678
14324W        W30133   6.947   7.862   2.521  0.0010 -0.4436 -0.5705
14325W        W30134  16.042  13.867  13.235 -0.2117 -0.1349 -0.4009
14326W        W30135   7.621   6.362  13.132  0.4846  0.1415  0.1507
14327W        W30136  11.725  15.077   9.915  0.0718 -0.2594  0.0672
14328W        W30137   4.120  13.522   0.608 -0.0527  0.3700  0.1905
14329W        W30138   1.506  11.059   3.136  0.1087  0.2109  0.1765
14330W        W30139   0.333   8.091  12.926  0.1782  0.0826 -0.2125
14331W        W30140  15.812   3.574  12.223 -0.0895 -0.1542  0.3249
14332W        W30141  17.422  17.287   3.223  0.2064 -0.2820  0.1900
14333W        W30142  12.786   6.320  14.045  0.1518  0.0141  0.1157
14334W        W30143  14.116  12.284  11.224  0.5553 -0.0783  0.1690
14335W        W30144  19.055   0.941   0.172 -0.0432 -0.1145  0.1761
14336W        W30145   8.259  16.633   1.734  0.0370 -0.1548  0.1861
14337W        W30146  17.998   1.804   3.149  0.0599 -0.0770 -0.2492
14338W        W30147   8.097   6.712  10.538 -0.1021 -0.0174 -0.2171
14339W        W30148   2.114  17.322   4.897 -0.3156 -0.3370  0.1061
14340W        W30149  15.408   7.383  12.710  0.0102  0.1455  0.4317
14341W        W30150  12.136   7.765  13.503 -0.0334 -0.1270 -0.0884
14342W        W30151  12.091  13.573   4.630  0.0488  0.1649 -0.0160
14343W        W30152   4.995   9.580  12.280  0.0494 -0.1809  0.0972
14344W        W30153   3.247   0.589   4.005 -0.1964  0.0625 -0.1561
14345W        W30154   1.685  17.028   4.936 -0.1322 -0.1748 -0.0816
14346W        W30155  14.110   5.969   9.162  0.1613  0.1624  0.1368
14347W        W30156   3.585   2.561  10.597  0.2863  0.1070  0.1440
14348W        W30157  10.419   3.428   3.343  0.0385 -0.5283 -0.2565
14349W        W30158   2.245  11.122  12.871 -0.1869  0.1151  0.1275
14350W        W30159   8.365   1.015  12.633  0.2203  0.1253  0.1058
14351W        W30160  10.075  15.151   3.347 -0.1012 -0.1201 -0.1648
14352W        W30161   0.248   8.621   0.575  0.0157 -0.1530 -0.0407
14353W        W30162   8.846   6.443  12.121 -0.0766 -0.0754 -0.0532
14354W        W30163  18.706  14.428   2.342  0.2019 -0.1589  0.0111
14355W        W30164  19.121   5.885   0.056  0.1298  0.4781  0.2704
14356W        W30165   6.953  10.219   0.484  0.0228  0.2814  0.0878
14357W        W30166  15.429  12.478  12.524  0.2911 -0.0619 -0.1340
14358W        W30167  11.617   1.705  11.253 -0.3287 -0.1064 -0.3618
14359W        W30168   8.540   0.128  13.836 -0.0284 -0.2770 -0.1575
14360W        W30169  14.596  13.409  12.454  0.0142 -0.0858 -0.2134
14361W        W30170   2.269  17.584  11.467 -0.4320 -0.0825 -0.0685
14362W        W30171  13.245   8.580  12.950 -0.1923  0.0083  0.0770
14363W        W30172  13.436   8.088  13.587 -0.2207  0.0878  0.1147
14364W        W30173  10.528   3.318  14.753 -0.0205  0.0006  0.4420
14365W        W30174   5.817  13.685  12.109 -0.1416  0.2674  0.1377
14366W        W30175  10.915   6.367  12.290  0.1179  0.1698 -0.1397
14367W        W30176   9.797   3.348   4.957  0.0654 -0.0901  0.0102
14368W        W30177   3.254   4.113  10.591 -0.2834  0.0956 -0.1576
14369W        W30178  18.249   4.430  11.037  0.0179 -0.2124  0.0417
14370W        W30179  11.652   6.874  12.852  0.4853  0.3254  0.1548
14371W        W30180  10.844  17.479  14.362 -0.0569  0.2211  0.0188
14372W        W30181  15.017   3.966  12.409  0.1172  0.2275  0.1436
14373W        W30182   0.375   3.244   0.940  0.1407 -0.0338 -0.2273
14374W        W30183   4.279  17.879   3.479  0.1914 -0.0176 -0.2946
14375W        W30184  17.965   9.557   4.266 -0.1325  0.0884  0.1837
14376W        W30185   5.716  13.197   0.354 -0.0457  0.1051  0.2330
14377W        W30186   5.030   6.916  13.403 -0.1591  0.0485 -0.1866
14378W        W30187   8.070   9.348   3.391  0.0738 -0.0838  0.0354
14379W        W30188   1.308  11.433   3.844  0.1735  0.0450  0.1158
14380W        W30189   1.865   3.524  12.591 -0.3330 -0.2852 -0.1925
14381W        W30190   9.734  14.149   0.298  0.1000 -0.1874  0.1182
14382W        W30191   5.537   7.863   3.794 -0.0030 -0.0921 -0.1339
14383W        W30192  17.149   2.505  15.018 -0.0696  0.2468 -0.0625
14384W        W30193   8.744   2.344   1.864  0.0122  0.0311 -0.2215
14385W        W30194  12.330  18.893  14.729 -0.0833  0.0187  0.3256
14386W        W30195  14.285   9.446  13.160 -0.0825  0.2046 -0.1994
14387W        W30196   7.966   9.066   1.923 -0.0903 -0.0626  0.2547
14388W        W30197   6.419  12.063   4.857  0.1257  0.1306 -0.1251
14389W        W30198  17.713   1.023   4.211  0.0035  0.2464  0.0225
14390W        W30199   5.567   8.385   2.590 -0.1299  0.3841 -0.0731
14391W        W30200   1.330   0.460   0.432 -0.1790  0.2362  0.0694
14392W        W30201   0.331   0.719   3.956 -0.1929  0.0239  0.2332
14393W        W30202  12.812   5.203  11.016  0.5161  0.1790  0.0101
14394W        W30203   4.598   8.874  14.142 -0.4023 -0.1681  0.1102
14395W        W30204  12.027  12.254  14.945  0.0340  0.0525  0.0139
14396W        W30205  12.947   1.075   3.698  0.0014  0.1784  0.0399
14397W        W30206  12.816   4.568   2.314  0.0894  0.0527  0.1528
14398W        W30207   1.311  10.096  13.090 -0.0582 -0.3261 -0.1133
14399W        W30208   6.759   3.714  12.985  0.2524 -0.0897 -0.2723
14400W        W30209  15.835   0.006   0.827  0.1134 -0.1630 -0.4162
14401W        W30210  19.035   6.622  14.599 -0.0174 -0.0188 -0.0686
14402W        W30211  14.802  16.556  13.725  0.0408 -0.2367 -0.3154
14403W        W30212   3.544  11.182   4.413 -0.1094 -0.0147  0.1575
14404W        W30213  13.232  15.649   0.439 -0.2813 -0.0020  0.0137
14405W        W30214   4.293   9.960   1.150  0.0061 -0.0085  0.0534
14406W        W30215  10.999   1.257  10.911  0.2135  0.2020 -0.0855
14407W        W30216   5.879   2.942  11.906  0.3023 -0.0981 -0.2398
14408W        W30217  12.381  10.288   5.376 -0.5222  0.2133  0.1227
14409W        W30218   8.070   1.534   3.644 -0.1735  0.0300  0.0698
14410W        W30219   4.825  16.983  12.750  0.1356  0.1917 -0.0810
14411W        W30220   2.699  12.548   3.573 -0.3584 -0.1447  0.1549
14412W        W30221   8.179   7.793  10.490 -0.0271 -0.2792  0.3257
14413W        W30222   4.043   1.708   3.510 -0.1135  0.3442  0.0188
14414W        W30223   8.023   0.120   9.461  0.2461 -0.0277 -0.2392
14415W        W30224  17.742  13.962  11.970 -0.0264  0.0720  0.0581
14416W        W30225   0.122   7.852   2.086  0.1606 -0.0035 -0.0052
14417W        W30226  16.159  17.069   3.913 -0.1416 -0.0804 -0.0064
14418W        W30227   1.285  13.689  13.852 -0.0553  0.0968 -0.0463
14419W        W30228  18.116  16.503   1.654  0.0609  0.1146 -0.3374
14420W        W30229  16.788  16.039   2.667  0.1233 -0.3127  0.2327
14421W        W30230  16.714  15.442  15.134  0.1531 -0.0155 -0.5082
14422W        W30231  11.366  10.280   2.068 -0.0440 -0.2896 -0.2160
14423W        W30232  17.456  15.840   1.827  0.0031 -0.2535  0.3487
14424W        W30233   1.954  12.748   1.951  0.0218 -0.0755 -0.1858
14425W        W30234   2.459   5.882  13.534  0.1982 -0.0983  0.0799
14426W        W30235   2.916   0.875   4.874  0.0876 -0.0612  0.0585
14427W        W30236   8.171  18.097  14.388  0.0554  0.1731  0.0432
14428W        W30237  10.305   8.452  13.147  0.3736  0.3099 -0.3197
14429W        W30238   0.448  11.860  13.631 -0.1263 -0.0701 -0.3765
14430W        W30239  18.564  14.265  10.614 -0.1529  0.1669  0.1907
14431W        W30240   9.419   8.601  11.302 -0.2042  0.2873  0.0018
14432W        W30241  16.169  13.774   0.683  0.1571 -0.0539 -0.0035
14433W        W30242  11.684   0.362   0.186  0.0849 -0.2687  0.0428
14434W        W30243   4.426   8.178   1.063 -0.0056  0.1435  0.1988
14435W        W30244  17.699   9.113  10.387  0.1607 -0.0431 -0.0040
14436W        W30245  16.448   2.312   2.486  0.0231 -0.0903  0.0598
14437W        W30246  10.021   5.533  10.314  0.0660  0.2674  0.1041
14438W        W30247  17.984  14.518  14.068 -0.1766 -0.0798  0.3385
14439W        W30248  16.912   6.492   2.445  0.3819 -0.1106  0.2667
14440W        W30249  15.801   8.733  14.532  0.2657  0.1528  0.0222
14441W        W30250  10.948   4.212   2.967 -0.2376 -0.1210  0.1777
14442W        W30251   3.504   4.704   1.725  0.2052  0.2750  0.0928
14443W        W30252   9.333   2.674   4.452 -0.1380 -0.1640  0.2542
14444W        W30253   0.472   5.950   0.547  0.0339 -0.3509 -0.2170
14445W        W30254  13.737   3.977   2.804 -0.2483 -0.0427  0.1055
14446W        W30255   5.480   0.967   1.493  0.3252 -0.1132  0.0620
14447W        W30256   9.138   6.807   3.452 -0.0060  0.1379  0.0848
14448W        W30257  18.568   5.447  11.932  0.0332 -0.0803  0.0692
14449W        W30258  15.836   5.469   4.072 -0.0562 -0.0927 -0.1606
14450W        W30259  17.608  14.350  14.424 -0.0691  0.0856 -0.0788
14451W        W30260   0.907   4.792   3.596  0.2653  0.0226  0.0635
14452W        W30261   5.187   7.227   1.242  0.1367  0.0661 -0.0065
14453W        W30262  12.021  14.550   1.803  0.1044  0.1168 -0.3014
14454W        W30263   7.247   9.562   0.903  0.0408  0.0024 -0.0902
14455W        W30264   0.855   8.730   3.212 -0.0317 -0.2962  0.0111
14456W        W30265  13.051   2.141   1.136  0.0327  0.0522  0.2739
14457W        W30266  15.335   3.518   4.354  0.1541 -0.0665 -0.1324
14458W        W30267   5.352   8.074  14.106 -0.0556  0.1491 -0.0369
14459W        W30268  13.375   8.502  11.830 -0.4235  0.4311  0.4180
14460W        W30269   8.576  14.349   1.619  0.0987 -0.2594 -0.0488
14461W        W30270  14.904  10.528   1.326  0.2204  0.0680 -0.0489
14462W        W30271   6.934   8.741   1.208  0.1548 -0.2876 -0.0200
14463W        W30272   5.507  16.964  10.392  0.0150 -0.1299 -0.1121
14464W        W30273  14.990   3.036   2.765 -0.0434 -0.1188 -0.1858
14465W        W30274  12.184   6.565   9.859  0.3319  0.0362 -0.0218
14466W        W30275  17.534   1.856  11.242 -0.0207  0.1052 -0.2462
14467W        W30276  12.761  15.402  13.194 -0.0024  0.2176  0.0100
14468W        W30277  14.737   4.322   4.057 -0.1713  0.1676 -0.0797
14469W        W30278   8.364   6.508  11.886 -0.2688 -0.3083  0.0584
14470W        W30279  14.787  11.959   5.103  0.1010  0.0177  0.1892
14471W        W30280   4.573   2.841   2.944 -0.1621 -0.0071 -0.2257
14472W        W30281  13.798  10.502   4.312 -0.0021 -0.0938 -0.1451
14473W        W30282  17.143  13.981  11.657 -0.0872 -0.0206  0.1417
14474W        W30283   8.870   4.745   4.963 -0.1233  0.3827 -0.1266
14475W        W30284  18.465   9.370   4.398  0.0055 -0.2130  0.0268
14476W        W30285   3.525  16.132  14.706  0.4129 -0.0473  0.0805
14477W        W30286  10.655  10.502  10.923  0.3963 -0.1923  0.2049
14478W        W30287   8.075   4.563   2.416  0.3643  0.0846 -0.1328
14479W        W30288   0.450  12.417  14.538  0.2455 -0.0808 -0.1241
14480W        W30289   5.177  15.186  11.811  0.1664  0.2538  0.0623
14481W        W30290   9.374  12.974   2.020 -0.2211 -0.1291  0.0868
14482W        W30291   0.971  12.919  15.054  0.0027  0.0728  0.0547
14483W        W30292   9.470   9.957  10.962 -0.1707 -0.2255 -0.1450
14484W        W30293  11.982  14.979  11.655 -0.2537  0.0329  0.1102
14485W        W30294  18.584   3.582   4.267 -0.0111 -0.0174 -0.0031
14486W        W30295   7.806  17.830  14.044 -0.0653  0.1357  0.1132
14487W        W30296  16.094  12.641   5.886  0.0899 -0.2125  0.1512
14488W        W30297   7.979   4.503   1.896 -0.0095 -0.0222  0.2702
14489W        W30298  16.385  12.566   4.432  0.1960 -0.0112  0.0323
14490W        W30299   4.786  12.743   1.771  0.0979 -0.4071  0.1524
14491W        W30300   0.683  11.156   4.975  0.2003  0.0937 -0.0090
14492W        W30301  11.495   6.350  14.240 -0.1223  0.0228  0.3118
14493W        W30302  13.089   7.796   2.751 -0.2488  0.0551  0.0267
14494W        W30303  10.545  18.006  13.248 -0.1608  0.0775  0.1407
14495W        W30304   3.466  13.332  13.265 -0.2652  0.0123  0.0401
14496W        W30305  10.511   7.260  10.435  0.1074  0.3773 -0.0395
14497W        W30306   7.117  16.734   1.589  0.1876  0.1023  0.2745
14498W        W30307   5.733   4.174  11.403 -0.1685  0.0257 -0.6083
14499W        W30308   1.598   9.246   2.372 -0.2176  0.3092  0.0643
14500W        W30309  11.779  17.902   3.427 -0.0041 -0.0711  0.2044
14501W        W30310   0.303  15.352   1.250  0.3519 -0.0525  0.0954
14502W        W30311  17.180   1.758  14.943  0.1531  0.4533  0.0022
14503W        W30312   0.759   4.431   4.065 -0.0790 -0.0034 -0.0281
14504W        W30313  17.736  17.609   2.935 -0.0683 -0.2931  0.0370
14505W        W30314   3.138   4.922  11.806 -0.0442 -0.3083  0.1692
14506W        W30315   2.387  10.719  14.789  0.4900  0.0701 -0.0223
14507W        W30316   5.191   8.507  11.001  0.1892  0.4429  0.0177
14508W        W30317  14.129  10.624   2.760 -0.1277  0.6215 -0.0435
14509W        W30318   8.865  14.716   1.468 -0.0050 -0.2188 -0.0673
14510W        W30319  11.304   1.147   4.732  0.1717 -0.4215 -0.0101
14511W        W30320  12.884   5.852  12.282 -0.3080 -0.2711 -0.2421
14512W        W30321  16.625   1.016  14.118 -0.0137 -0.2704 -0.0316
14513W        W30322   0.910   9.880  12.046  0.1537 -0.1306  0.0857
14514W        W30323   6.254   5.306   9.949  0.0920  0.1424  0.2584
14515W        W30324  15.339   9.122  15.208 -0.1628 -0.0337  0.2673
14516W        W30325   1.238  16.118   0.496 -0.0244 -0.0246  0.0632
14517W        W30326   1.121  18.722  10.256 -0.1053 -0.0843  0.3790
14518W        W30327   1.435  17.471   2.923  0.3151 -0.2021 -0.2309
14519W        W30328   3.824  18.231   9.947  0.0951 -0.3098  0.0813
14520W        W30329   5.331  11.871  12.566 -0.1078  0.2504 -0.0542
14521W        W30330   5.362   5.236   3.044  0.1352  0.0464 -0.0268
14522W        W30331  10.931   7.166   1.842  0.3126 -0.4221  0.5107
14523W        W30332   9.844  14.001  12.713 -0.0751 -0.1023 -0.1363
14524W        W30333   4.314  17.991  10.907  0.2146  0.0312  0.1427
14525W        W30334   9.135  11.707  14.722  0.0015  0.4571 -0.1981
14526W        W30335   9.539   6.000   1.383 -0.1115  0.0587 -0.4134
14527W        W30336  14.441   1.725  12.149 -0.1845 -0.1846  0.1460
14528W        W30337   0.001  15.522  11.912 -0.0847 -0.1580 -0.1156
14529W        W30338  11.398  13.586   5.586 -0.2008  0.0327  0.2495
14530W        W30339   8.605   6.233   1.615  0.0193  0.1980 -0.0712
14531W        W30340  15.650   1.431  10.356 -0.4068  0.4356 -0.2188
14532W        W30341  15.796   1.776   0.863  0.2558 -0.2122 -0.0700
14533W        W30342   4.042   9.703   3.699 -0.0987  0.1823 -0.3548
14534W        W30343  17.212   1.047   4.178  0.0700  0.4359  0.1882
14535W        W30344   2.485  15.153   1.432  0.1463  0.1710  0.1088
14536W        W30345  19.002   9.794   0.479 -0.1053  0.0854  0.1629
14537W        W30346   5.500   3.890   1.099 -0.0022  0.1757 -0.0563
14538W        W30347  12.645   6.687   0.379 -0.0117  0.0303  0.2126
14539W        W30348   5.815   2.994   9.373  0.0698 -0.0330 -0.1211
14540W        W30349  18.935  14.780   3.723 -0.0476 -0.2221  0.0284
14541W        W30350   3.009   9.507  12.293 -0.3961  0.3051  0.4347
14542W        W30351   8.669  13.869  14.405 -0.0843 -0.0232  0.0937
14543W        W30352   5.750   7.982  12.558  0.3423 -0.2755 -0.1405
14544W        W30353   6.423   3.353   4.479  0.1545 -0.1228  0.0934
14545W        W30354  16.275  14.996  10.444  0.0684  0.2597  0.2987
14546W        W30355   5.598  10.614   1.942  0.2464  0.0735  0.0775
14547W        W30356  11.006   3.543  13.219 -0.4071 -0.1712  0.1128
14548W        W30357   2.867  11.094  12.968  0.0304 -0.0359  0.2269
14549W        W30358   3.431   4.910  13.230  0.1555  0.0713  0.2092
14550W        W30359   4.610  10.930  11.870 -0.0044  0.1234 -0.0133
14551W        W30360  13.910   8.277   3.526 -0.1566  0.1213 -0.0181
14552W        W30361   0.811  17.161   2.197 -0.3395  0.2187  0.4150
14553W        W30362  15.287  12.413   5.866 -0.3462  0.0956  0.1805
14554W        W30363  12.342   3.568   1.629 -0.2403  0.3418  0.2078
14555W        W30364   2.788  16.705   2.193  0.1536 -0.2830  0.1276
14556W        W30365   6.666   5.952   9.935 -0.4085 -0.0685 -0.0875
14557W        W30366   0.261   9.393  13.213 -0.1573 -0.0866 -0.0497
14558W        W30367  11.791   6.739  14.620 -0.1077  0.2288  0.0000
14559W        W30368   1.606   2.737  12.929  0.2543  0.0256 -0.1442
14560W        W30369  10.766   2.788   0.818  0.0918 -0.0998 -0.1929
14561W        W30370   4.780   9.220  13.689  0.0572 -0.0729  0.0072
14562W        W30371  14.802  14.606  13.657  0.1177 -0.1214 -0.1537
14563W        W30372  15.584  16.926  14.962  0.0767 -0.3421 -0.0648
14564W        W30373   2.488  14.614   4.056  0.0935 -0.1188  0.1033
14565W        W30374  12.966  15.062  14.897  0.2291 -0.0226 -0.1115
14566W        W30375  15.885   6.018  13.513  0.4378 -0.0501 -0.1002
14567W        W30376  19.062   8.808  10.937  0.0195  0.2153  0.1236
14568W        W30377   1.514   1.615  10.464  0.0853 -0.1724 -0.0546
14569W        W30378   2.804  17.495  11.542  0.3091 -0.0125 -0.2332
14570W        W30379  10.019   2.199  12.435 -0.2118 -0.1643  0.0969
14571W        W30380   5.253   2.437  11.456 -0.0644 -0.1017  0.1577
14572W        W30381  17.159  11.033  13.303 -0.0292 -0.1383  0.2494
14573W        W30382  11.644  15.016   1.852  0.3376 -0.4172 -0.1349
14574W        W30383   1.766  17.250   3.405 -0.0738 -0.0747  0.0495
14575W        W30384   6.709  17.310  11.004 -0.0730 -0.2122 -0.0916
14576W        W30385  16.200  14.034  12.633  0.2534  0.1155 -0.0399
14577W        W30386  10.463  14.238   2.870 -0.4304 -0.0226  0.1600
14578W        W30387   8.241   8.748   1.050 -0.2590 -0.3596  0.4425
14579W        W30388   4.565   6.480   3.223  0.3622 -0.2616  0.1108
14580W        W30389   3.904  12.720   3.201 -0.2000 -0.1665  0.1597
14581W        W30390   8.646   9.440  12.106  0.2974 -0.1207  0.0005
14582W        W30391   6.354  16.696   0.894  0.0964 -0.0780 -0.1466
14583W        W30392  10.870   1.318   2.129  0.2006  0.0124  0.0316
14584W        W30393   4.161  13.316   1.330 -0.3096  0.0298 -0.0009
14585W        W30394  17.781   5.530  12.546  0.0700  0.4448 -0.0232
14586W        W30395   0.959   9.921  13.445  0.2432  0.1384 -0.0233
14587W        W30396  17.352  14.605  13.078 -0.3548  0.3258  0.0539
14588W        W30397  13.534   2.951   3.585 -0.1254  0.1780 -0.2814
14589W        W30398  13.168   1.230   2.127  0.1170  0.1314  0.1367
14590W        W30399  14.761   6.722  12.890 -0.0367  0.0124  0.3263
14591W        W30400   1.610   1.807   9.901 -0.1304 -0.1188 -0.1892
14592W        W30401  14.311   1.429  14.862  0.1137 -0.0791 -0.1666
14593W        W30402  18.761   0.062  15.108 -0.0463 -0.0158 -0.0739
14594W        W30403   6.050   5.900   5.048 -0.0976 -0.3568  0.1121
14595W        W30404   4.033  12.055  12.047 -0.1336  0.0839  0.0456
14596W        W30405  11.462  13.885  15.126 -0.3797 -0.0863 -0.3752
14597W        W30406  15.179  16.261   1.736 -0.2227  0.3255  0.0099
14598W        W30407  17.367   8.832  12.907  0.2506 -0.2908 -0.2418
14599W        W30408  11.625   8.423  11.257 -0.0210 -0.0210  0.1889
14600W        W30409   6.487  10.362  14.430  0.1044  0.0976 -0.4441
14601W        W30410  17.034  10.768   1.880 -0.2365 -0.1217 -0.2809
14602W        W30411  17.490   2.181  12.827 -0.0289  0.0147  0.0521
14603W        W30412  10.841  11.602   4.370 -0.2056  0.1721  0.1030
14604W        W30413   7.816   7.446  14.078  0.3667  0.0413  0.1180
14605W        W30414  18.097  17.926  10.759  0.1842  0.1793  0.1513
14606W        W30415   0.951   6.671   1.249 -0.2544  0.1073 -0.1071
14607W        W30416   5.916   3.302   1.601 -0.2485  0.3105 -0.0708
14608W        W30417  12.167   1.214  13.772  0.2337  0.2425 -0.1446
14609W        W30418   0.000  14.696  10.004 -0.2016 -0.4051  0.2315
14610W        W30419  12.256   6.467   4.683 -0.0205 -0.1476  0.2430
14611W        W30420   0.798   3.393  12.696 -0.3405  0.2684 -0.2962
14612W        W30421   6.363   6.374   4.132 -0.3940 -0.4862 -0.1879
14613W        W30422  11.267  16.971  14.197  0.1971  0.1123  0.0962
14614W        W30423  15.303  10.103   1.188  0.1650  0.0441  0.0003
14615W        W30424  11.683   2.229   0.650  0.0921 -0.1435 -0.1043
14616W        W30425   5.447   9.671  10.443  0.3530 -0.2747 -0.0528
14617W        W30426   4.209   9.405   5.727 -0.0311  0.1274  0.0862
14618W        W30427  18.882   2.250   9.609 -0.0175  0.1490  0.3515
14619W        W30428  16.315   2.716   1.800  0.2148 -0.0344  0.4732
14620W        W30429  18.809   5.914   4.157 -0.1137 -0.0613  0.1023
14621W        W30430   4.750   1.938   1.202  0.0343  0.1542  0.0143
14622W        W30431   3.678   4.442   1.339  0.1229 -0.0773  0.2647
14623W        W30432  12.283   4.230   4.298 -0.1725  0.1427  0.5051
14624W        W30433  18.193  11.885   2.022  0.2415 -0.4754  0.0578
14625W        W30434   7.014  13.063  10.541 -0.3088 -0.1920 -0.0500
14626W        W30435  10.915   1.355   4.458  0.0589 -0.4284  0.0079
14627W        W30436   5.178  14.906  13.687 -0.0685  0.3430  0.0070
14628W        W30437   1.349   7.580  13.662 -0.3135 -0.4391 -0.0539
14629W        W30438  11.020  13.338   5.071  0.1175  0.0021  0.2279
14630W        W30439  12.719   6.278   4.850 -0.1300 -0.3140 -0.0397
14631W        W30440  11.024   2.504  11.412  0.4216  0.0905 -0.2132
14632W        W30441   4.161   8.465   0.744 -0.0336  0.0442 -0.0283
14633W        W30442  11.943  14.883   2.780 -0.2315  0.0237 -0.1694
14634W        W30443   4.053   2.320   4.057 -0.3843 -0.1420 -0.0501
14635W        W30444  13.516   9.524  15.073 -0.0685  0.4479 -0.0356
14636W        W30445  13.673   9.474  12.202  0.0940  0.0479 -0.3172
14637W        W30446   5.030   7.334  11.709  0.1647  0.2774  0.0506
14638W        W30447   8.601  15.862  10.673  0.0883 -0.0036  0.0168
14639W        W30448  12.635  13.530   1.876  0.1243  0.2758  0.1296
14640W        W30449   5.913  13.159   4.042  0.0641  0.2060  0.2613
14641W        W30450  14.376  12.451   2.287 -0.1275  0.0773 -0.0268
14642W        W30451   2.979  12.237  11.185 -0.0190 -0.0336 -0.3423
14643W        W30452  18.542   1.079  12.998  0.3884  0.3763  0.1960
14644W        W30453   7.896   4.241  11.321 -0.1973 -0.0647 -0.1327
14645W        W30454  14.835   2.558   0.701 -0.1359 -0.0712  0.0851
14646W        W30455  11.720   9.549  14.463 -0.0191 -0.1945  0.3084
14647W        W30456   1.789  16.037  11.649 -0.1061  0.3434  0.3625
14648W        W30457  12.891   8.105  13.623 -0.0647 -0.0347  0.2514
14649W        W30458   3.629   1.275   0.391  0.0864 -0.0137  0.2340
14650W        W30459  12.923  12.299   3.708  0.0476 -0.2613 -0.1911
14651W        W30460   2.055  17.886  13.742  0.3843 -0.1757  0.1981
14652W        W30461  15.923  14.118   3.059  0.1296 -0.1519  0.0400
14653W        W30462   5.538  10.869  12.736  0.1686  0.0811  0.2645
14654W        W30463   5.012  18.791  13.826 -0.3014  0.0506 -0.1389
14655W        W30464  14.503  10.141  15.069  0.0956 -0.3238  0.1579
14656W        W30465   9.190  11.256  11.218  0.2412 -0.0508  0.0686
14657W        W30466   4.297  16.354  14.990  0.0878  0.1397  0.2546
14658W        W30467   6.343   1.747  11.919  0.0919  0.3511 -0.0293
14659W        W30468   6.466   2.864   5.803  0.1397 -0.2089  0.1183
14660W        W30469   3.507  11.892  11.848  0.2519 -0.2158 -0.0367
14661W        W30470   1.253  12.295   3.268 -0.2276  0.3052 -0.0529
14662W        W30471  16.183  11.233   4.727 -0.5004 -0.1676  0.2854
14663W        W30472   9.808   5.980   3.049 -0.0389 -0.0495 -0.2826
14664W        W30473  13.419   9.699  13.503  0.1842  0.0267 -0.0651
14665W        W30474  14.618   9.210   1.786  0.0015 -0.0316 -0.3393
14666W        W30475   3.200   6.106  11.172  0.1333 -0.0451 -0.0417
14667W        W30476  15.732   6.891  14.077 -0.0163 -0.3866  0.3735
14668W        W30477  10.823  14.841   3.096  0.0545 -0.0407  0.2401
14669W        W30478  16.018  12.514  12.641  0.2414 -0.2816  0.1581
14670W        W30479  11.389   1.712  13.578  0.1497 -0.1848 -0.1443
14671W        W30480  17.866   0.706  11.494 -0.0292 -0.0141 -0.1094
14672W        W30481   9.280  15.733   5.354 -0.1650 -0.4671 -0.0096
14673W        W30482   1.242  15.734   4.570  0.1350 -0.2725 -0.0151
14674W        W30483  12.094   2.190   1.925 -0.4295  0.2484 -0.1960
14675W        W30484  13.261   1.291  13.417 -0.1539  0.0142  0.1594
14676W        W30485  12.452  15.388  11.396  0.3410  0.0167  0.1401
14677W        W30486   4.633  17.803   0.840  0.0733  0.1191  0.0154
14678W        W30487   7.999  11.438   4.028 -0.1296  0.0913  0.1994
14679W        W30488   4.365   4.905  13.859 -0.0635 -0.2978  0.2009
14680W        W30489   2.841   0.971   1.765  0.0746 -0.1062  0.1337
14681W        W30490   2.186   9.825  11.660 -0.2104 -0.2344 -0.4505
14682W        W30491   7.168  10.289   5.166 -0.0095 -0.2508  0.1029
14683W        W30492  14.853  12.451  15.192  0.3405 -0.3172 -0.1967
14684W        W30493  14.763   9.478   4.589  0.1043 -0.0080 -0.3859
14685W        W30494   0.274   7.446  12.173 -0.1290  0.3306 -0.2199
14686W        W30495  18.533   2.314   4.233  0.0736  0.1632 -0.0356
14687W        W30496  12.532  13.022   5.207 -0.0200  0.0263  0.0876
14688W        W30497  14.248  17.677  14.218  0.3995  0.1227  0.2314
14689W        W30498  11.073   1.942   5.076 -0.3477  0.0133  0.1516
14690W        W30499  18.193   4.868   5.289 -0.0879  0.2562 -0.1002
14691W        W30500  17.308   4.347   4.527  0.2697 -0.3012 -0.0500
14692W        W30501  12.188  10.164  13.074 -0.2234  0.1657 -0.0301
14693W        W30502  14.467   3.331   1.826 -0.1647 -0.5296  0.4498
14694W        W30503  16.547   5.654   4.828  0.2349  0.1087 -0.1548
14695W        W30504   8.061  15.309  11.743  0.1917 -0.2048  0.2125
14696W        W30505   2.148  15.303   3.118  0.1508 -0.2424  0.0285
14697W        W30506   5.205  11.490   3.014  0.0946  0.1368  0.2477
14698W        W30507   1.514   4.317   1.989 -0.0865 -0.1627  0.0669
14699W        W30508   7.826  18.365  14.207  0.0243 -0.0355  0.2027
14700W        W30509   6.479  19.098   0.014  0.2933  0.0100  0.4369
14701W        W30510  13.873   8.438  14.673 -0.0375  0.0891  0.0948
14702W        W30511  10.492  19.025  10.982 -0.0425 -0.1896 -0.1392
14703W        W30512  15.879  11.639   0.788 -0.0547  0.2004 -0.0072
14704W        W30513  13.816  11.848   3.915 -0.0345  0.0178 -0.0801
14705W        W30514   5.484   4.555  13.387  0.1621 -0.1528 -0.0447
14706W        W30515   0.513   7.687   0.906  0.2698  0.1405 -0.0630
14707W        W30516   7.967   6.106   2.222  0.1370 -0.2012  0.0579
14708W        W30517  11.249  13.287  11.746  0.0392 -0.1372  0.3516
14709W        W30518  12.114   6.194   1.096  0.2231 -0.0413 -0.0634
14710W        W30519  17.619  19.039  13.621  0.1440  0.0130  0.0644
14711W        W30520   9.936  13.712  13.543 -0.1841 -0.0569 -0.0308
14712W        W30521  12.107   7.826   0.128 -0.0283 -0.2220 -0.2865
14713W        W30522  19.095  11.480  12.073 -0.2092 -0.0554  0.0364
14714W        W30523  18.265  12.689  14.432  0.2069 -0.1828 -0.1087
14715W        W30524  10.239  17.075   3.894  0.0109 -0.0779  0.6353
14716W        W30525  16.375  10.158   2.321 -0.1185  0.0544 -0.1293
14717W        W30526   3.859  13.664   3.443 -0.2056  0.3650 -0.2923
14718W        W30527  15.479   5.140   4.052  0.0743  0.0203 -0.0721
14719W        W30528   7.628   1.603   1.856  0.0042 -0.0220  0.0237
14720W        W30529  16.587   6.499   4.791 -0.1533 -0.1082 -0.3021
14721W        W30530   3.973  12.334   3.549 -0.1985  0.0445  0.2112
14722W        W30531  14.404   5.668  10.603 -0.3665  0.0863  0.0889
14723W        W30532   8.875  15.598   4.304 -0.0090  0.2562  0.2654
14724W        W30533   3.085   6.306  12.396  0.0454  0.6484 -0.0692
14725W        W30534  17.811   0.497   4.099  0.0771  0.1016 -0.1984
14726W        W30535   0.892   1.125  10.101 -0.1817 -0.1092  0.3033
14727W        W30536   5.374  19.025   0.992 -0.1068  0.0432  0.1906
14728W        W30537   8.348  17.542   0.007  0.2736 -0.0584 -0.2912
14729W        W30538   5.873   3.475  13.553 -0.0368  0.2032 -0.0296
14730W        W30539   2.978   1.368  13.617 -0.0904 -0.1082  0.1160
14731W        W30540  10.211   8.327  11.914 -0.0746  0.1442  0.1554
14732W        W30541  14.156  18.715   5.559  0.0609  0.1176 -0.0493
14733W        W30542  13.586   8.902  10.815 -0.0234 -0.2448 -0.1694
14734W        W30543   2.969   2.508  12.828  0.2865  0.0275  0.2124
14735W        W30544   2.437  17.043  11.793 -0.2023  0.0291  0.0776
14736W        W30545   4.968   8.668  13.484  0.4014  0.0810 -0.1493
14737W        W30546  13.681  15.702  12.218 -0.0192 -0.0723  0.3790
14738W        W30547  10.148  11.772  13.165  0.1667 -0.1513 -0.0291
14739W        W30548   4.597  17.771   4.870 -0.1987  0.0331 -0.1019
14740W        W30549   8.641  16.027  13.013 -0.0250  0.0497  0.2593
14741W        W30550   5.970   3.354  13.037 -0.0447  0.0895  0.0910
14742W        W30551   3.784  15.719  13.004  0.2236  0.0510  0.0977
14743W        W30552   8.057   4.924  10.330 -0.0327 -0.1705 -0.0426
14744W        W30553   0.912  13.569   2.403  0.1543  0.0875 -0.0706
14745W        W30554   9.315  10.327  11.934  0.2026 -0.0369  0.1415
14746W        W30555   2.705   1.646  11.265  0.2948 -0.0103 -0.3061
14747W        W30556   0.185   5.256   2.628 -0.0447  0.2455  0.0850
14748W        W30557  15.105   8.553  11.210  0.1184  0.0478 -0.2496
14749W        W30558   8.476   5.481  13.355 -0.0632  0.1830 -0.1016
14750W        W30559   4.010   4.205   0.410 -0.1136 -0.1122  0.3559
14751W        W30560   9.552  10.417  13.028  0.0408  0.2343  0.1267
14752W        W30561  16.356   4.891   3.355 -0.1242 -0.2889  0.0146
14753W        W30562  12.757  15.629   0.818  0.0218  0.0502  0.3938
14754W        W30563   9.076  15.011  11.245  0.0993  0.1043 -0.0359
14755W        W30564  18.538   8.699   1.245  0.3814  0.3197 -0.0929
14756W        W30565   0.619   1.802  13.216 -0.3169 -0.0900  0.0910
14757W        W30566  10.936   5.588   2.998  0.3117  0.0307  0.0829
14758W        W30567   4.614   3.746  14.881  0.2153 -0.2256  0.5162
14759W        W30568   1.863  12.667   2.401  0.0741  0.0494  0.2383
14760W        W30569   0.093   8.193  11.196  0.1325 -0.0165  0.4187
14761W        W30570  18.588   8.361  11.583  0.0216  0.2045  0.2657
14762W        W30571  13.797   5.961   2.468 -0.0220  0.4117 -0.1231
14763W        W30572   8.343  17.700  14.716  0.2545 -0.0083  0.2414
14764W        W30573  11.324  13.066   2.602 -0.1518  0.0391  0.0481
14765W        W30574   7.344   3.138  12.987 -0.1356  0.0599  0.0681
14766W        W30575   6.350  10.551  11.080 -0.1624 -0.5425  0.0801
14767W        W30576   9.771   5.582  14.642  0.3080 -0.0488  0.1567
14768W        W30577   6.169  11.462   2.367 -0.0414 -0.1304  0.0068
14769W        W30578   9.348   5.327  12.884 -0.1674 -0.0727  0.0976
14770W        W30579  15.808   6.335  12.194  0.1457  0.0734  0.0333
14771W        W30580   5.720   1.170  11.588  0.1368  0.1521 -0.3245
14772W        W30581  18.829   8.083   4.157  0.1962  0.1140 -0.3080
14773W        W30582   4.512   0.280   1.175  0.0852 -0.1175  0.0707
14774W        W30583  18.485  11.677   0.487 -0.2018 -0.3998  0.2353
14775W        W30584   3.974   0.518   0.392 -0.0217 -0.1479 -0.2390
14776W        W30585   4.057  18.473  13.240 -0.1126 -0.0017 -0.3549
14777W        W30586  12.403   9.366   2.222  0.4710  0.0841 -0.2581
14778W        W30587  16.433   4.735  10.619 -0.0555  0.2131 -0.4790
14779W        W30588   6.138  18.127   2.627  0.0434 -0.3237  0.2230
14780W        W30589   0.851  12.495   5.430  0.3645 -0.0129  0.0467
14781W        W30590  10.463   1.340   1.871  0.3875  0.0519  0.0987
14782W        W30591  10.418   1.742   1.528 -0.3982  0.0268  0.1034
14783W        W30592  15.295  13.487   3.742 -0.0296  0.0866  0.0275
14784W        W30593   8.307   1.546  12.641  0.0801 -0.0807  0.2514
14785W        W30594   7.715  11.626   5.373 -0.2830  0.2973  0.3804
14786W        W30595  14.755   0.106   4.006  0.2702 -0.1964 -0.1941
14787W        W30596   3.197  13.277   3.037  0.0914  0.0153 -0.1684
14788W        W30597  17.516   3.361   2.097 -0.4297  0.2237 -0.0994
14789W        W30598  13.778   7.757   5.016 -0.2332 -0.0490 -0.0830
14790W        W30599   6.072  16.661   3.845 -0.1526  0.2654  0.0599
14791W        W30600   3.598   8.935  11.697  0.2487  0.0406  0.3261
14792W        W30601   6.108  12.420  12.636 -0.0466 -0.2860  0.0091
14793W        W30602  17.198   1.126   2.745 -0.2397  0.2633 -0.2159
14794W        W30603   3.358   7.766   3.450  0.2021 -0.1956  0.0894
14795W        W30604   0.017  13.560  12.532  0.1427 -0.3063 -0.3492
14796W        W30605  17.381   9.601   3.488  0.0408 -0.1030  0.2167
14797W        W30606   7.896   3.952   3.279  0.0403  0.1194  0.0893
14798W        W30607   2.966   0.393   0.363 -0.0832  0.1699 -0.1330
14799W        W30608   2.301   2.594  13.718  0.3013  0.0226 -0.1113
14800W        W30609   0.436  11.695  10.753  0.1146 -0.1925 -0.3011
14801W        W30610  18.909   2.796  13.640 -0.1282 -0.0864 -0.0799
14802W        W30611  17.787  11.285   4.539 -0.2677  0.3468 -0.0349
14803W        W30612  13.213  15.253  14.492 -0.3362 -0.1829  0.0722
14804W        W30613   4.459  18.816  10.500 -0.1204  0.1385 -0.0122
14805W        W30614   7.839   2.859  12.232  0.3927  0.0606 -0.0445
14806W        W30615  16.886  12.201   1.275  0.0966  0.0031  0.0526
14807W        W30616   7.233  15.058   4.941 -0.1562 -0.0933 -0.2987
14808W        W30617   7.698   4.850   4.503 -0.0302 -0.3599 -0.0235
14809W        W30618   4.404   7.925  13.756  0.0454  0.1370  0.0993
14810W        W30619   2.131  15.502   1.415  0.3355 -0.1634 -0.1647
14811W        W30620   3.162   2.561  10.959 -0.2509  0.0118 -0.3074
14812W        W30621  10.520   0.162  14.276 -0.0680  0.0297  0.2082
14813W        W30622   9.260   7.480   9.973 -0.0398 -0.1598  0.1994
14814W        W30623  14.050   3.159  10.919  0.0345  0.1040 -0.1528
14815W        W30624  17.877  18.746   9.882 -0.1779 -0.0873 -0.0250
14816W        W30625   7.739   5.268   3.102  0.1031 -0.2009  0.2221
14817W        W30626  15.404  10.748   3.203 -0.4201  0.1771 -0.0370
14818W        W30627   3.842   3.925   0.022  0.3244 -0.1066  0.0188
14819W        W30628   6.565  14.119   3.754  0.1192 -0.0151  0.0883
14820W        W30629   2.563  11.941  11.267 -0.0622 -0.0591  0.2710
14821W        W30630   5.729  16.769  13.712 -0.3484  0.0837  0.0860
14822W        W30631   8.734  17.024   2.164  0.2859  0.0316  0.1592
14823W        W30632   3.627  11.750  12.982 -0.1033 -0.1665  0.0961
14824W        W30633  16.820  18.378   2.127 -0.1350 -0.1464  0.2386
14825W        W30634  13.923  17.022   1.967  0.2849  0.3467 -0.0014
14826W        W30635  13.612   7.611   4.521 -0.3114 -0.0991 -0.2031
14827W        W30636  18.506  15.625  10.784  0.1612 -0.0733 -0.0025
14828W        W30637   2.771   1.060   3.682  0.0120 -0.1967 -0.0800
14829W        W30638   4.656   4.486  13.371  0.1893  0.1261 -0.2836
14830W        W30639  15.759   9.344   4.634  0.0660  0.1198  0.0126
14831W        W30640   8.982  11.501   5.691  0.0815 -0.0223  0.3961
14832W        W30641   0.730   6.488   4.927 -0.1155 -0.0625 -0.2791
14833W        W30642   3.831  11.640   2.053 -0.0960  0.3705  0.1185
14834W        W30643  15.522  16.823   4.642 -0.1181  0.3344  0.4125
14835W        W30644   4.507   8.794  13.625  0.0898  0.2388  0.0334
14836W        W30645  17.133   6.463   1.771 -0.3328 -0.2072 -0.0704
14837W        W30646   7.402  12.250  15.152  0.3504  0.1609 -0.1812
14838W        W30647   7.283   0.053   2.905  0.1648 -0.0554 -0.1064
14839W        W30648  16.232  18.205   2.321 -0.2241  0.0686 -0.0251
14840W        W30649  15.821  15.947   2.573  0.3092 -0.3222  0.1410
14841W        W30650  15.807   0.165  14.310  0.1860  0.0417  0.0890
14842W        W30651   8.616  16.988  12.599  0.1048 -0.1989  0.0224
14843W        W30652   4.208  11.513   1.176 -0.1175  0.1760  0.2965
14844W        W30653  17.363   8.944   0.883 -0.1080 -0.0986  0.0040
14845W        W30654  14.419  13.490   3.030 -0.1181 -0.0273 -0.1598
14846W        W30655  14.103   4.035   3.294  0.2260  0.3364  0.0843
14847W        W30656   7.705  15.458  10.935 -0.0217 -0.2921  0.0741
14848W        W30657   9.699   5.052  11.212  0.4031 -0.3661  0.1637
14849W        W30658  14.155   5.047   0.049 -0.2305  0.0223 -0.1381
14850W        W30659  14.487  18.373  11.187 -0.0119  0.0728  0.4565
14851W        W30660   1.294   0.927   0.735  0.1653  0.2004  0.3354
14852W        W30661  15.198  18.599  14.025  0.3657 -0.0004 -0.2775
14853W        W30662   6.161   4.559   3.484 -0.1010 -0.0504  0.0001
14854W        W30663  12.057   4.857  10.991 -0.3475  0.2009  0.3362
14855W        W30664  15.531   0.003   5.053  0.1792  0.2965  0.0290
14856W        W30665   0.267   9.903   4.036 -0.0279  0.0657 -0.0523
14857W        W30666  15.820   3.099  13.647  0.3774  0.2341 -0.0735
14858W        W30667  17.403  18.168   5.643 -0.3219  0.4509 -0.1688
14859W        W30668  12.107  14.645  13.090  0.1050  0.4195 -0.0783
14860W        W30669  11.546   7.091   4.642  0.0790  0.3149 -0.2072
14861W        W30670  14.782  18.928   0.533 -0.3528 -0.1193  0.2240
14862W        W30671   9.154   1.476   4.710  0.0615  0.3186 -0.1167
14863W        W30672  16.055  15.489   0.754  0.1460 -0.0697 -0.0702
14864W        W30673   4.902   6.122   3.223 -0.1936  0.2329 -0.1520
14865W        W30674   0.115  13.356   0.824 -0.1067  0.0952 -0.1828
14866W        W30675  13.418  12.238   2.272  0.0835  0.0412 -0.0617
14867W        W30676  14.168  11.973  14.152 -0.2863 -0.2419 -0.0690
14868W        W30677   9.346  12.933  14.143 -0.1295 -0.0832 -0.3103
14869W        W30678   4.332  17.315  12.074  0.3950 -0.1689  0.1284
14870W        W30679  10.896   0.705  11.184  0.1521  0.0131 -0.1626
14871W        W30680   2.560   8.254  14.280 -0.2262  0.0678  0.3613
14872W        W30681   1.319   2.666   1.194 -0.0417  0.2779  0.0247
14873W        W30682   0.917   7.364   0.279 -0.1490 -0.0279  0.1668
14874W        W30683   4.441   7.249   3.705  0.0664  0.0614  0.0722
14875W        W30684   1.885   4.312   2.961 -0.0858  0.0969  0.0082
14876W        W30685  14.600   7.250  13.480  0.2189 -0.0691 -0.2297
14877W        W30686   7.456  13.129  14.650 -0.2364 -0.4447 -0.2495
14878W        W30687  17.589  11.713  14.163 -0.0076  0.2207  0.1890
14879W        W30688   3.254   5.852   1.053 -0.3484 -0.0810 -0.0212
14880W        W30689  14.703   7.562   2.339  0.3151 -0.0823  0.0455
14881W        W30690   6.360   3.750   0.468  0.1683 -0.0235 -0.0552
14882W        W30691   0.898  11.629  10.435  0.0189  0.3159 -0.3496
14883W        W30692   3.561  14.595   9.810 -0.1844  0.3041  0.0539
14884W        W30693   6.969   3.868   2.583  0.7752 -0.5488  0.1335
14885W        W30694  17.952  13.729   0.974  0.1589  0.1919  0.0249
14886W        W30695   8.650   6.628  11.454  0.0743  0.1331  0.1396
14887W        W30696   5.434  15.203   5.179  0.1245  0.0558  0.3086
14888W        W30697  16.410   7.996  12.161 -0.1676  0.2374 -0.1395
14889W        W30698   6.399  18.130  11.609  0.0326  0.2568 -0.1213
14890W        W30699   0.422  10.748  10.839 -0.0899  0.0052  0.1725
14891W        W30700   9.360  17.097  14.692 -0.2539 -0.0381 -0.3860
14892W        W30701   7.802   8.211   3.645  0.1422  0.1198  0.0912
14893W        W30702  15.358  14.517   2.253 -0.1837 -0.1502 -0.3570
14894W        W30703  13.625  17.346  11.919  0.1580  0.1713 -0.3549
14895W        W30704   2.038   4.383   1.983  0.1307 -0.0048  0.0644
14896W        W30705  15.915  12.299  14.380  0.2019  0.0567  0.3057
14897W        W30706   0.104  16.047   1.167 -0.3524 -0.0971 -0.1654
14898W        W30707  11.025  18.972   4.821 -0.0409  0.0971 -0.1262
14899W        W30708  11.889   0.377  13.661  0.0627 -0.0473  0.3853
14900W        W30709  12.286  10.617   3.718  0.3077  0.1596  0.0439
14901W        W30710   5.873   3.527  11.005 -0.2029  0.3224 -0.2464
14902W        W30711  11.164  10.636  15.007 -0.2889 -0.3850  0.0560
14903W        W30712  10.499   4.031   9.342 -0.3215 -0.0212 -0.1741
14904W        W30713  16.032   0.559   0.784  0.4357 -0.1574  0.1418
14905W        W30714  10.571   9.093  10.998  0.0692  0.1702 -0.1089
14906W        W30715   7.894  10.422   5.902 -0.0889  0.2015 -0.0530
14907W        W30716   8.644   4.238   0.220 -0.3347 -0.1684 -0.1018
14908W        W30717  14.799  18.093   2.037  0.1625 -0.0372  0.3439
14909W        W30718   3.234  13.900  11.710 -0.1499  0.1158  0.1881
14910W        W30719  10.116   1.508  12.457  0.0792 -0.2784 -0.2500
14911W        W30720  11.547   0.652   1.925  0.0732  0.0363 -0.0549
14912W        W30721   3.610   1.705   3.259  0.1329  0.1372 -0.0303
14913W        W30722  17.856   9.133  12.968  0.2796  0.0064  0.3086
14914W        W30723  17.545   8.376  13.744 -0.0159  0.0541 -0.2392
14915W        W30724  14.300   2.056  13.202 -0.0056 -0.2651 -0.2019
14916W        W30725  13.983   5.420  14.835 -0.0121 -0.0724 -0.0473
14917W        W30726   2.309   8.288  14.723  0.3045  0.2365 -0.0790
14918W        W30727  17.044   4.896  11.561 -0.1464  0.1513  0.0494
14919W        W30728  11.177  11.053   4.614  0.4943 -0.1931 -0.2061
14920W        W30729   3.266   1.992   3.439  0.2333  0.1195  0.3751
14921W        W30730   8.353   8.666  12.541  0.0531 -0.1910 -0.2430
14922W        W30731  16.678   9.302   2.946  0.2782  0.2449  0.2612
14923W        W30732   2.697   1.776   9.914  0.0273  0.1066  0.2771
14924W        W30733   3.496  13.089  15.187  0.2348 -0.3664  0.2379
14925W        W30734   4.802   7.853   1.648 -0.0076 -0.3855  0.0265
14926W        W30735   2.069   5.899  12.012  0.2010 -0.1312  0.0708
14927W        W30736   7.296   1.283  12.596 -0.0091 -0.3294 -0.1292
14928W        W30737  10.422   9.867   3.974 -0.0791  0.0798  0.0484
14929W        W30738  14.370   0.150   0.690 -0.2534  0.4030 -0.2531
14930W        W30739   7.823   4.591   0.013 -0.1659 -0.0389  0.1929
14931W        W30740  15.025   9.877   4.772 -0.2223 -0.2889 -0.0891
14932W        W30741   8.719   0.966   0.222  0.0612 -0.0975 -0.0634
14933W        W30742  16.221  11.112  15.059 -0.0551 -0.3301  0.1973
14934W        W30743   1.895  14.398  14.991  0.1930 -0.3150  0.3441
14935W        W30744   4.023   2.285   9.515  0.1730 -0.1777 -0.2286
14936W        W30745  17.056  18.720  13.292 -0.1494 -0.0619  0.0593
14937W        W30746  13.365  11.043  11.845 -0.0034 -0.0298 -0.2463
14938W        W30747   7.556  17.606  12.183  0.5273  0.0456 -0.1650
14939W        W30748   2.688   0.355  13.491 -0.3510  0.2071  0.0920
14940W        W30749   3.955   3.289  11.894 -0.3186 -0.0317 -0.0239
14941W        W30750   8.425   2.429   0.098  0.0437 -0.0117  0.0675
14942W        W30751   1.382  13.442   0.811  0.1296  0.4935 -0.0072
14943W        W30752  15.084   3.763   5.279  0.3350  0.0767  0.0422
14944W        W30753   9.858  15.999  13.705  0.0073  0.0318 -0.0588
14945W        W30754   4.136  17.535  11.224  0.2053 -0.0824  0.0468
14946W        W30755  11.039   5.632  12.879 -0.0212  0.2406 -0.0956
14947W        W30756   3.067  14.819  13.297 -0.2933 -0.3496  0.1063
14948W        W30757   0.752  18.915   4.879  0.1045 -0.0533  0.2933
14949W        W30758   4.866   2.756   2.505  0.0473  0.2071 -0.0776
14950W        W30759  16.112   4.326  14.653 -0.1936 -0.0479  0.1655
14951W        W30760   4.411  15.872  13.126 -0.0574 -0.2979  0.0338
14952W        W30761  11.043  15.689   0.817  0.1202  0.0145 -0.0210
14953W        W30762   0.287  18.197   3.329  0.0887 -0.0569  0.1392
14954W        W30763   2.322  17.804  10.118 -0.1529  0.0027  0.0004
14955W        W30764  18.725  17.867   0.325  0.0351  0.1365  0.1705
14956W        W30765   2.776   3.745   2.779  0.0977  0.4303 -0.2550
14957W        W30766  11.122   7.277  12.111 -0.1750 -0.0269 -0.3106
14958W        W30767  13.436   0.100   4.195 -0.2981  0.1174 -0.2419
14959W        W30768   2.676  15.161  13.476  0.0449 -0.3409  0.0986
14960W        W30769  14.152  19.058  13.186  0.0696 -0.1264 -0.1062
14961W        W30770  11.432   4.416  12.031 -0.3506 -0.0334  0.2388
14962W        W30771  11.226   6.754  14.298  0.1684  0.1241 -0.2578
14963W        W30772   6.899   6.808   0.084 -0.5020 -0.2791  0.0273
14964W        W30773   3.386   9.249  10.298  0.1096 -0.3637  0.5169
14965W        W30774   2.595   3.372  12.049  0.1338 -0.2202  0.0177
14966W        W30775  10.550  11.977  12.866  0.1185  0.3800  0.0389
14967W        W30776   1.746   3.592  11.659 -0.1278  0.0454 -0.0849
14968W        W30777   2.493  10.835  14.301  0.2070  0.0904  0.4232
14969W        W30778   4.627   1.089  13.162 -0.1418  0.1270 -0.1237
14970W        W30779   5.690  11.447  14.749 -0.0829 -0.1242 -0.0243
14971W        W30780  16.248  13.158   0.998 -0.1432 -0.0270  0.2059
14972W        W30781  12.345   4.822   2.321  0.2161  0.0277 -0.0838
14973W        W30782   4.640  13.945  10.283 -0.1677  0.2327  0.0353
14974W        W30783   3.279   5.167   1.573 -0.0492  0.0673  0.1594
14975W        W30784  17.206  17.534  14.158 -0.0671 -0.3596  0.1160
14976W        W30785  18.223   0.249  12.313  0.0628 -0.0891  0.0515
14977W        W30786  13.009  13.623   2.708  0.0145 -0.2335 -0.0435
14978W        W30787   9.829   6.871   1.732 -0.0246  0.2846 -0.0760
14979W        W30788   1.238   3.049  15.178  0.2496  0.1265  0.1836
14980W        W30789   6.089   5.347   0.274  0.0352 -0.0386  0.1352
14981W        W30790  11.271   5.121  13.469 -0.0712  0.0976  0.0554
14982W        W30791   3.174   7.557   1.508  0.0226 -0.1649  0.0338
14983W        W30792   1.223   0.283  11.823  0.1624 -0.5056  0.1249
14984W        W30793   4.629   0.654  12.830  0.1911  0.1015  0.1128
14985W        W30794   4.231  10.921   1.451 -0.0467 -0.2038  0.2669
14986W        W30795   9.505   4.103   0.000  0.2195  0.0828  0.1023
14987W        W30796   3.733   8.064   2.694  0.0173 -0.2180 -0.0858
14988W        W30797  12.649  12.005   1.729  0.1967  0.0054 -0.1487
14989W        W30798   9.208  18.982   0.889 -0.0981 -0.4833 -0.0748
14990W        W30799  12.399  11.484   1.810  0.1941 -0.0339 -0.0362
14991W        W30800   0.469  16.650   4.873  0.1394  0.0583 -0.1576
14992W        W30801   4.977  13.493   0.776  0.0674 -0.1058  0.0252
14993W        W30802  16.979   2.953   2.813 -0.0135  0.0548 -0.1048
14994W        W30803  15.948   9.433   1.377  0.3849 -0.2594 -0.0122
14995W        W30804   5.331  16.120   3.658  0.2453  0.0716  0.0437
14996W        W30805   8.312   5.608   4.360  0.2693 -0.0137  0.0964
14997W        W30806  16.697   7.493   0.781 -0.0625 -0.3990  0.4082
14998W        W30807   2.473  16.076   4.014 -0.4811 -0.0296  0.0079
14999W        W30808   2.301  14.453  10.613  0.0859 -0.3469  0.1119
15000W        W30809  17.146  15.509  14.850  0.0480 -0.0584 -0.1524
15001W        W30810   5.208   7.408   0.749 -0.2909 -0.0465 -0.0174
15002W        W30811   7.461  12.265   5.469 -0.0752  0.3254 -0.0019
15003W        W30812  15.424  11.307  13.837  0.1092 -0.2164 -0.1087
15004W        W30813  18.697   7.719   9.492 -0.1384  0.2809  0.0699
15005W        W30814   0.453   8.277   0.271 -0.1431  0.0271 -0.0487
15006W        W30815  12.007  10.926   3.404  0.0789  0.1096  0.3110
15007W        W30816   8.117   7.936  11.797  0.1497 -0.0521 -0.3943
15008W        W30817  17.187  12.177   0.593 -0.1189 -0.4771  0.3283
15009W        W30818  17.043  10.988   2.358 -0.1254  0.1113  0.0694
15010W        W30819   1.856  17.171  14.922 -0.1446 -0.0383  0.0854
15011W        W30820   6.402   3.529  13.359 -0.0777  0.4408 -0.0496
15012W        W30821   1.184   2.874   2.389  0.1159 -0.1250  0.0679
15013W        W30822  10.634  10.077   3.437  0.0671  0.0569 -0.3839
15014W        W30823  17.224   8.458  11.880 -0.0068 -0.1592 -0.0202
15015W        W30824   2.817   5.258  14.567  0.0873 -0.1434 -0.0541
15016W        W30825  15.469   6.492   2.165 -0.0864 -0.1921 -0.2200
15017W        W30826   7.818   8.896   0.863 -0.0816 -0.1006 -0.0680
15018W        W30827  10.631  15.914  13.004 -0.1550 -0.2572  0.0201
15019W        W30828  18.427  12.792   0.501 -0.2357  0.0191  0.0683
15020W        W30829   5.534   3.060  13.119 -0.4897 -0.1366 -0.2129
15021W        W30830  10.065  16.094  14.182  0.1881  0.0098 -0.0236
15022W        W30831  19.030  18.144   1.768 -0.0450 -0.0529  0.0675
15023W        W30832  15.524   4.825   1.664 -0.1113 -0.2747 -0.1538
15024W        W30833  14.485  15.310   3.071  0.2003  0.1325  0.0219
15025W        W30834   0.627   8.956   2.305 -0.0461  0.0700 -0.2280
15026W        W30835   8.076   3.896  12.632 -0.2106 -0.1544  0.4125
15027W        W30836   3.011  14.548  14.497 -0.2192 -0.1999 -0.2461
15028W        W30837   4.823  17.174  14.861 -0.2414  0.0566  0.0707
15029W        W30838   2.127  18.561  13.175  0.2152  0.0847 -0.2170
15030W        W30839   1.728   4.566   1.476  0.1798  0.2832 -0.3887
15031W        W30840  10.483  11.287   2.638  0.1936  0.4025 -0.0844
15032W        W30841  16.610   4.541   1.939  0.1510 -0.2790 -0.0903
15033W        W30842  18.076   5.081   1.300 -0.5218  0.1053  0.1964
15034W        W30843   7.376   4.419  11.662 -0.0633 -0.0925 -0.2607
15035W        W30844  10.246  17.989  14.986 -0.2000  0.2087 -0.0547
15036W        W30845  18.575  10.619  11.434  0.0292  0.0499 -0.1119
15037W        W30846   5.308   4.770   2.126  0.0827  0.2223 -0.0086
15038W        W30847   8.483   6.974   3.708 -0.0584 -0.1023  0.2600
15039W        W30848  17.752  14.146  11.458 -0.1181  0.1117 -0.2320
15040W        W30849   5.729  17.134   5.103 -0.2890 -0.0116  0.0149
15041W        W30850   7.853  14.009   4.824 -0.2699 -0.1562 -0.5933
15042W        W30851  16.220  12.163   0.678  0.0117  0.2296 -0.3445
15043W        W30852  12.597  10.701   0.604  0.1108 -0.0346  0.1747
15044W        W30853   6.289   4.541   5.727  0.0448 -0.3112 -0.0083
15045W        W30854   6.642   6.070  10.458 -0.0308  0.0172 -0.1147
15046W        W30855   3.694  12.712  11.816  0.1682  0.1570 -0.2083
15047W        W30856  18.387  18.320  14.760  0.1802 -0.1648 -0.0894
15048W        W30857  13.042  18.016   4.019  0.0813 -0.1196 -0.2634
15049W        W30858   7.786   5.545  14.285 -0.2488  0.2197 -0.0545
15050W        W30859  15.167   6.655  13.883 -0.0509  0.2916 -0.0076
15051W        W30860   9.531  15.710   0.632  0.0376 -0.2561 -0.0337
15052W        W30861  19.060  14.803  15.103  0.0946  0.0990 -0.1268
15053W        W30862  17.074   7.091  15.051 -0.0695 -0.1550 -0.5123
15054W        W30863  14.389  18.528  13.239  0.2602 -0.0515 -0.0002
15055W        W30864  17.556   8.890   9.609  0.0107 -0.1616  0.0547
15056W        W30865   8.037   2.794  11.186 -0.1229  0.0749 -0.0289
15057W        W30866   9.103  19.137  13.075 -0.1801 -0.0895  0.4847
15058W        W30867  18.810   7.742   9.976 -0.0686  0.1848 -0.5075
15059W        W30868  16.455   2.815  14.765  0.1053 -0.3227  0.1622
15060W        W30869  11.126  17.317   0.645 -0.0567  0.1585 -0.0034
15061W        W30870   5.733  18.308   0.118 -0.3596  0.0333 -0.0345
15062W        W30871   0.081   4.840   2.333 -0.0727  0.3453  0.0332
15063W        W30872  10.330  10.002  10.622 -0.0385 -0.0396  0.0230
15064W        W30873   2.705   2.988  12.284  0.3830 -0.0782 -0.2192
15065W        W30874  16.622  10.951  11.865 -0.3225 -0.2787  0.2580
15066W        W30875   7.629  15.491   0.677  0.0555 -0.0108 -0.1875
15067W        W30876   8.262  16.254   1.437 -0.0845  0.0839  0.0779
15068W        W30877   6.476   1.026   2.502  0.0885  0.0976 -0.2964
15069W        W30878  14.597  10.309  13.601  0.1219 -0.1601 -0.0883
15070W        W30879  15.974   3.447   1.409  0.1780  0.2464  0.0423
15071W        W30880  16.991   1.081   3.655  0.2319  0.4135  0.0074
15072W        W30881   5.935  17.712  14.062 -0.0270 -0.0073  0.1233
15073W        W30882  11.630   5.034  12.365  0.0463  0.2630 -0.0327
15074W        W30883   2.036   3.180   1.994  0.1622  0.0806 -0.0737
15075W        W30884  10.773  10.554   0.726 -0.0421 -0.2335 -0.0683
15076W        W30885   3.570   4.273   3.037  0.1142  0.2390 -0.0246
15077W        W30886   2.400  16.698  12.714  0.0270 -0.1246  0.1004
15078W        W30887  12.829  18.876  14.945  0.2168  0.2335 -0.2485
15079W        W30888  10.114  15.790  14.567  0.2150 -0.0532 -0.5205
15080W        W30889   5.466   1.736  10.674  0.0008  0.1392  0.0499
15081W        W30890  10.480  18.555  11.326 -0.3564 -0.1409  0.0440
15082W        W30891   0.679  18.927   0.201  0.1687 -0.1191  0.0643
15083W        W30892  12.984   0.880  13.419  0.2361  0.0651 -0.0974
15084W        W30893   0.995   2.383  11.421  0.2418 -0.0826  0.2587
15085W        W30894   0.066   6.837   4.309  0.2272 -0.0103 -0.2062
15086W        W30895  17.857  18.196  11.194  0.0140  0.2599  0.2146
15087W        W30896  15.633   4.075   3.008  0.0017  0.0697  0.0424
15088W        W30897   6.473  12.405  12.263  0.1354 -0.2395  0.1004
15089W        W30898   9.366  16.211   3.879  0.1480 -0.1716 -0.2613
15090W        W30899   9.237  12.411   4.861 -0.0670 -0.0430  0.1702
15091W        W30900  15.483  11.786   3.516  0.0615 -0.4367  0.0559
15092W        W30901   9.305  11.742  11.433 -0.1078  0.2967  0.0526
15093W        W30902   5.949  18.908  10.573  0.1863  0.0242  0.0907
15094W        W30903   0.842  13.527   0.609 -0.0155 -0.1798 -0.1325
15095W        W30904  10.855   8.069  11.154  0.3781  0.0499 -0.1195
15096W        W30905  14.367   5.538  12.669 -0.0621  0.3147 -0.0825
15097W        W30906   7.632   7.039  10.520  0.1284  0.0730 -0.0912
15098W        W30907  17.089  16.357   5.865 -0.0211 -0.1967  0.0509
15099W        W30908  17.789   2.455   0.494 -0.0443  0.2524 -0.1166
15100W        W30909   3.483  15.439   4.646 -0.2708  0.2727 -0.0414
15101W        W30910   0.035   6.364   5.010  0.2495  0.1578 -0.0820
15102W        W30911   1.851  19.019   1.432 -0.0476  0.1397  0.1309
15103W        W30912  13.345   0.869  10.135  0.1598  0.1741 -0.4882
15104W        W30913  11.593  16.035  13.926 -0.0754 -0.1246 -0.0919
15105W        W30914  15.587   4.210   2.538  0.0019 -0.1443 -0.0467
15106W        W30915   3.231   0.960   3.468  0.2123 -0.0420 -0.1054
15107W        W30916   2.216  13.067   2.522 -0.4813  0.0185  0.2364
15108W        W30917  12.594  18.010  14.861 -0.0280 -0.1610 -0.0464
15109W        W30918  12.489  14.039   4.087 -0.0083 -0.0384  0.4267
15110W        W30919   0.935   7.801  12.242 -0.1570  0.0821 -0.0257
15111W        W30920   7.815   4.840  14.664  0.0322 -0.0090 -0.3855
15112W        W30921  11.883  13.995   3.474  0.3748 -0.3476  0.0085
15113W        W30922   7.401  11.288  10.409  0.1270  0.2346  0.1414
15114W        W30923  15.384   1.776   1.760 -0.0213  0.0271 -0.0816
15115W        W30924   5.089   1.306  14.504 -0.0553 -0.0944 -0.0482
15116W        W30925   9.554  12.461  11.885 -0.0310 -0.1459 -0.2867
15117W        W30926  18.875  12.950   2.416  0.1592  0.0508  0.0516
15118W        W30927   8.275   9.725   3.790  0.2461 -0.0010 -0.1676
15119W        W30928   1.749   9.067  14.900  0.0651  0.0818  0.1787
15120W        W30929   0.368  14.724   0.028 -0.0319  0.1056 -0.1741
15121W        W30930   9.780  13.579   1.495 -0.3410 -0.2533 -0.1026
15122W        W30931   5.606   0.822   2.938  0.2150  0.2801  0.0225
15123W        W30932  13.784  14.152   0.499 -0.2016 -0.1562  0.1627
15124W        W30933   7.162  12.125   5.907 -0.3095 -0.1160  0.0137
15125W        W30934   6.612   3.568  14.499 -0.1428  0.2293  0.0991
15126W        W30935  10.256   4.178  13.431  0.1656  0.5246  0.1639
15127W        W30936  16.047  10.535   2.380 -0.0673  0.0056  0.1656
15128W        W30937   5.210   3.481  14.262 -0.3095  0.0295 -0.2120
15129W        W30938   0.408  18.861   1.116 -0.1737 -0.1413 -0.4815
15130W        W30939   1.712  18.836   0.186 -0.0617  0.0445 -0.3813
15131W        W30940  10.953  16.875  11.076 -0.0559  0.1771 -0.5991
15132W        W30941   8.272   4.951   2.255  0.2578  0.0922 -0.0966
15133W        W30942  10.116  12.258  10.997  0.0509  0.1309  0.1092
15134W        W30943  16.789  15.284   3.627 -0.2010 -0.0407 -0.0165
15135W        W30944  14.884   5.003  11.264  0.0532 -0.0410  0.0439
15136W        W30945  10.000  11.587  13.698 -0.3669  0.1781  0.1616
15137W        W30946   2.267   3.468   2.925 -0.0772 -0.0697 -0.0945
15138W        W30947   4.840  18.383  12.067 -0.0001 -0.1423  0.0289
15139W        W30948   4.561   0.812  12.371 -0.0659 -0.0197  0.0783
15140W        W30949   3.336   0.495  13.289  0.5271  0.2649  0.1953
15141W        W30950   4.191   6.827  10.877 -0.0462 -0.2851 -0.1808
15142W        W30951  19.043   3.932   0.491  0.1540  0.1880 -0.1354
15143W        W30952  11.958   7.973   2.097  0.1132 -0.1846  0.1540
15144W        W30953  18.249  15.965   3.764  0.0721  0.1048 -0.2642
15145W        W30954  12.568   7.284  11.966  0.3038  0.3115 -0.1107
15146W        W30955  18.935   7.242  14.401  0.1570 -0.1168  0.3225
15147W        W30956   9.890   6.199  14.739  0.3407 -0.0080 -0.2758
15148W        W30957   3.732  12.226   4.408 -0.0914  0.1245  0.0816
15149W        W30958  14.928   3.427   0.356 -0.2228 -0.0692  0.0966
15150W        W30959   3.040   9.176   0.152 -0.0371 -0.4197 -0.4005
15151W        W30960  12.581  16.955   2.615  0.1434  0.4260  0.3302
15152W        W30961   1.413   6.793   0.491 -0.1441  0.0297  0.2176
15153W        W30962   8.341   9.273   1.344 -0.1355  0.1465  0.0722
15154W        W30963   6.113  15.257   4.465  0.1042  0.0354  0.1515
15155W        W30964  13.159   8.707   0.348  0.4422  0.0090  0.0211
15156W        W30965   0.535   5.590  12.848 -0.0425 -0.0780 -0.2969
15157W        W30966  19.091  17.327  11.389 -0.0701  0.0941  0.3295
15158W        W30967  16.200  14.234   0.336 -0.1603 -0.0709  0.2595
15159W        W30968  17.113   5.052   5.085  0.2348 -0.2471  0.0105
15160W        W30969   1.407  11.644  14.429 -0.2830 -0.2299  0.2306
15161W        W30970  16.747  17.846  10.418  0.0543  0.0905 -0.2853
15162W        W30971  15.039   2.330   3.858 -0.2266  0.2844 -0.2354
15163W        W30972   9.392   9.623  14.152  0.5055  0.1577  0.2157
15164W        W30973  12.770   5.841  13.169 -0.4362  0.1201  0.0564
15165W        W30974  12.444   7.577   2.959 -0.1921  0.2611 -0.1192
15166W        W30975   2.409  12.923  11.224  0.2501  0.1808 -0.3307
15167W        W30976  15.116   1.942  13.350  0.0810  0.1372 -0.0686
15168W        W30977   4.897   7.655  12.566 -0.2602  0.0202 -0.1375
15169W        W30978   3.744   7.697   1.650 -0.2480 -0.2182 -0.0323
15170W        W30979  19.014  14.401   2.752 -0.1191 -0.2207 -0.1052
15171W        W30980  17.852   4.482   4.761 -0.0262 -0.0036 -0.2805
15172W        W30981   7.984  12.746   1.350 -0.0350 -0.2854 -0.3245
15173W        W30982  12.654   0.045   5.287 -0.0118 -0.2864 -0.2189
15174W        W30983   4.311  13.673   4.543  0.1690 -0.0858  0.2152
15175W        W30984  11.586  14.012  12.751  0.0892 -0.0668  0.2654
15176W        W30985   1.698   0.998  14.591  0.0128 -0.1949 -0.1178
15177W        W30986  18.868  13.074  14.207  0.3258  0.1164 -0.2977
15178W        W30987   6.309  14.525  12.810  0.0195  0.0469 -0.3292
15179W        W30988  12.494   8.310  11.142 -0.0479 -0.0180  0.1495
15180W        W30989   8.929   6.182  13.726 -0.0803  0.0909 -0.1370
15181W        W30990   2.058   7.226   0.727  0.3439 -0.2321 -0.2348
15182W        W30991   6.080   6.665   2.787  0.3423  0.4350 -0.0207
15183W        W30992   9.629   2.513   3.572 -0.0692 -0.2147  0.3528
15184W        W30993   5.344  17.766   0.562 -0.2600 -0.2713 -0.4433
15185W        W30994  15.165   9.608  14.358 -0.3455  0.0075  0.3689
15186W        W30995  18.067  12.297  13.041 -0.0030 -0.3615 -0.0362
15187W        W30996   8.935   5.603  13.446  0.3006 -0.1296  0.0774
15188W        W30997   3.025  18.689   2.078  0.1933 -0.2871 -0.2943
15189W        W30998   1.323   3.605  12.638  0.1056  0.2118  0.3568
15190W        W30999   9.525   4.759   4.904  0.1765  0.1235 -0.0463
15191W        W31000   2.500   7.309   3.397 -0.0187  0.0973 -0.0065
15192W        W31001  14.170  11.307  13.523 -0.0189  0.0414  0.0103
15193W        W31002   3.802   9.527  10.202 -0.4560  0.1878 -0.2231
15194W        W31003   6.028  18.327   1.144 -0.0526 -0.2078  0.0490
15195W        W31004   6.988  11.724   2.540  0.0443  0.1136  0.0233
15196W        W31005   7.179  16.425  10.305 -0.0946  0.4505  0.2342
15197W        W31006  10.790   4.832  14.609  0.0206  0.0275 -0.2205
15198W        W31007  13.727   1.692   3.620  0.2642 -0.3647  0.2568
15199W        W31008  11.519  12.308  12.519  0.0869 -0.0239 -0.1292
15200W        W31009   3.716  10.063   4.798  0.1098 -0.3689 -0.2338
15201W        W31010   9.362  12.633   2.345  0.1545  0.2541  0.3208
15202W        W31011   9.898   2.001   3.650 -0.2075  0.2003 -0.0285
15203W        W31012  18.397   2.364  13.631  0.1116  0.7238  0.0643
15204W        W31013  18.816   7.604  11.964 -0.1822 -0.1284  0.1898
15205W        W31014  12.901  14.105   3.155 -0.0137 -0.0527  0.1653
15206W        W31015  12.314  15.476  11.861  0.1704  0.4661 -0.1777
15207W        W31016   7.881  18.993  11.635  0.2089 -0.0528  0.0009
15208W        W31017  16.996  16.481  11.288  0.0037  0.1412  0.0509
15209W        W31018   1.885   1.477   4.533 -0.1247 -0.0558 -0.2782
15210W        W31019   2.578  18.868   2.319  0.0191  0.0289 -0.0494
15211W        W31020  15.438  18.174   4.737 -0.0943 -0.1142  0.0723
15212W        W31021  19.159   3.503   4.240  0.1409  0.0347  0.2673
15213W        W31022  17.427  15.427   3.288 -0.3519  0.0132  0.1996
15214W        W31023  10.732  14.630   4.340  0.0282  0.1811 -0.3347
15215W        W31024  18.474   6.145   3.393 -0.2086 -0.1347 -0.2463
15216W        W31025   1.501  10.541   3.222  0.2384 -0.0308 -0.1390
15217W        W31026   6.509  12.809  13.848 -0.2960 -0.4193  0.0566
15218W        W31027   3.398  15.712   9.903  0.0430  0.1095 -0.1528
15219W        W31028   7.499   4.722   3.637  0.2196  0.3078  0.1195
15220W        W31029   3.741  15.709  11.686  0.1911 -0.0978  0.2742
15221W        W31030  17.991   6.160   4.578 -0.0573  0.2028  0.2309
15222W        W31031  14.725  15.454  13.888  0.0686 -0.0017 -0.6648
15223W        W31032  16.903  14.462   6.087  0.0095  0.0690 -0.1201
15224W        W31033   0.609   7.913   4.477  0.1192 -0.0332  0.0512
15225W        W31034   8.203  18.819   2.378 -0.1535 -0.3946  0.0058
15226W        W31035  13.118  13.038  12.358  0.0307  0.0531  0.1624
15227W        W31036  15.681   1.272  12.372 -0.1999 -0.3341  0.3500
15228W        W31037   4.488  18.324  10.180  0.1042 -0.3546  0.0707
15229W        W31038  18.371  17.741  13.173  0.1362 -0.0209 -0.2184
15230W        W31039   9.927  12.472   0.851  0.0976  0.6269 -0.0294
15231W        W31040  13.192  18.807   4.344 -0.0857 -0.3153 -0.1088
15232W        W31041   7.482   5.998  12.028  0.1137  0.0126 -0.1257
15233W        W31042  11.753  18.111  10.721 -0.0640 -0.0023 -0.1046
15234W        W31043  10.509   8.814   9.393  0.0410  0.2678  0.1288
15235W        W31044   2.399   2.566   0.633  0.1978 -0.1995 -0.0769
15236W        W31045   7.359  16.840  12.844  0.1796  0.3203  0.1555
15237W        W31046  11.885   7.922   3.707 -0.4376  0.1725  0.0712
15238W        W31047  17.689   0.658  14.765  0.4086  0.1478 -0.5867
15239W        W31048  17.071   1.886   4.643  0.2381  0.3967  0.1505
15240W        W31049  17.162   7.365   0.617 -0.0203  0.1913 -0.3343
15241W        W31050   8.515  10.724  12.043 -0.0403  0.0030  0.0452
15242W        W31051   9.364  10.707   0.569 -0.1800  0.0504 -0.0348
15243W        W31052   4.792   4.384   2.715 -0.2900  0.0563 -0.0497
15244W        W31053   7.012  18.212   2.540  0.0607 -0.2303  0.0931
15245W        W31054   4.982   4.429  14.122  0.0384 -0.3383  0.1611
15246W        W31055   1.579  13.623  15.126 -0.0561  0.1251 -0.2619
15247W        W31056  15.130  18.856  10.075 -0.3271 -0.1528  0.1459
15248W        W31057  16.482   1.359  14.605  0.2245 -0.1669 -0.0747
15249W        W31058  16.959   4.620  15.211  0.0537  0.2754 -0.0181
15250W        W31059  15.297  18.088   1.836 -0.1105  0.1637 -0.0536
15251W        W31060   6.897   5.002   2.837 -0.3341  0.1346 -0.0800
15252W        W31061   5.917  14.632  13.110  0.1355 -0.0096  0.0318
15253W        W31062  14.830   3.560   0.809  0.1902 -0.0367  0.2878
15254W        W31063   7.070   9.833   5.142 -0.4711 -0.1783 -0.4440
15255W        W31064   3.258  18.127   2.671  0.5217 -0.3757 -0.1946
15256W        W31065  10.154   4.974   4.194 -0.0385  0.1069 -0.1035
15257W        W31066   0.594  13.966   2.286  0.1321  0.1257 -0.0100
15258W        W31067   0.200  19.004   4.088 -0.0915 -0.0708 -0.4620
15259W        W31068   7.997  11.164   1.760 -0.3419  0.0010 -0.0534
15260W        W31069   3.607   7.277  13.751 -0.0356  0.1016  0.0693
15261W        W31070   9.994   2.632   4.713  0.1759  0.0489  0.1603
15262W        W31071   2.697   7.783  10.944  0.2686  0.3813  0.1248
15263W        W31072  11.662  14.897  14.863 -0.0846 -0.0094 -0.1915
15264W        W31073  17.290   3.014   1.771 -0.0665 -0.0575 -0.1948
15265W        W31074  17.030   3.934   1.344 -0.4740  0.3857 -0.1106
15266W        W31075   6.852   8.286   0.351 -0.0460  0.0053 -0.0740
15267W        W31076   9.680   8.092  13.416 -0.0647 -0.1998 -0.2383
15268W        W31077  12.006   8.906   5.345 -0.3584 -0.1769  0.1908
15269W        W31078   8.928  16.081   2.958  0.0931 -0.2217  0.2870
15270W        W31079   1.437   7.002   2.860 -0.0608  0.1628 -0.0653
15271W        W31080  16.510  11.040  11.349 -0.4372 -0.3110 -0.0598
15272W        W31081   4.874  16.781   4.712 -0.3174 -0.0800  0.4995
15273W        W31082   0.027  17.527  14.083  0.0845  0.3292 -0.0494
15274W        W31083   4.951   2.717   3.354 -0.3406 -0.2704  0.1234
15275W        W31084  13.661   7.872  10.543 -0.0273  0.1408 -0.0291
15276W        W31085   9.707   9.804   1.137  0.2614  0.0355  0.1360
15277W        W31086   2.167   0.526   2.303 -0.0557 -0.0593  0.0911
15278W        W31087   1.399   4.252  12.164  0.0749  0.1766 -0.1738
15279W        W31088  17.607   0.063   4.480 -0.3673  0.0792 -0.1273
15280W        W31089   8.274   3.798   1.848 -0.3255  0.1662 -0.1246
15281W        W31090   5.248   8.287  14.553 -0.2084 -0.2359  0.0252
15282W        W31091   0.865   9.711   2.098 -0.2100  0.1734  0.1010
15283W        W31092  18.292   6.914   2.464 -0.1151  0.2634  0.1956
15284W        W31093  15.319   5.729   2.910  0.0192 -0.0639  0.0119
15285W        W31094  12.563  12.074   2.766  0.2245 -0.0321  0.2839
15286W        W31095  15.318  12.847  12.179  0.0027  0.0241  0.0346
15287W        W31096  14.010  17.610   6.145 -0.1277  0.1520 -0.0094
15288W        W31097   8.307  12.180   5.005 -0.1160  0.1975  0.1673
15289W        W31098  13.731   4.002   4.459  0.4810  0.0402 -0.2406
15290W        W31099   6.617   2.061  12.842 -0.1172  0.1127 -0.1508
15291W        W31100  10.186  13.341  14.778  0.1026  0.2553 -0.2246
15292W        W31101   4.099   5.450   0.914 -0.0331 -0.2908 -0.1444
15293W        W31102   4.716  16.307   3.601 -0.0621  0.1078 -0.4683
15294W        W31103   8.843  17.873  14.874 -0.0362 -0.0893 -0.0096
15295W        W31104   4.770   2.746  14.519  0.5061 -0.0203  0.0970
15296W        W31105   3.109  13.981   2.798  0.0873 -0.0203  0.3394
15297W        W31106   0.363  15.792   3.241 -0.1459  0.0932 -0.0504
15298W        W31107  14.927  14.234  14.676 -0.4544 -0.0294 -0.2177
15299W        W31108   8.966   3.748   3.073 -0.2163  0.2023  0.1391
15300W        W31109  16.031   8.542   3.876 -0.0077 -0.2147 -0.0894
15301W        W31110   5.206   2.036  10.342  0.2519  0.1223  0.3228
15302W        W31111   0.038   1.226   9.664 -0.1078 -0.2423 -0.0071
15303W        W31112  13.418   0.665   0.799  0.1933 -0.0053 -0.1219
15304W        W31113  13.770  18.899   4.483  0.0292  0.1239  0.1077
15305W        W31114   4.912  10.928   3.820  0.0639 -0.1083 -0.0395
15306W        W31115  17.753  18.143  12.113 -0.0769 -0.0614 -0.0847
15307W        W31116   1.604  14.632   0.127 -0.0977 -0.1162 -0.0092
15308W        W31117   2.466  14.549  12.217  0.5388 -0.0056 -0.0708
15309W        W31118  15.518   3.783  12.967 -0.0002 -0.0931  0.1227
15310W        W31119  14.980   5.499   3.906  0.0055 -0.1962  0.1305
15311W        W31120   2.444  10.737  13.132  0.1943  0.0917  0.2063
15312W        W31121   8.303  15.253  12.633  0.3981 -0.1803  0.2603
15313W        W31122   9.963   0.452  14.941  0.3945  0.1775  0.1708
15314W        W31123   8.538   4.015  14.085 -0.4669  0.0786  0.3178
15315W        W31124   3.283  14.999   0.785 -0.2053  0.2144 -0.1951
15316W        W31125  18.631  15.298   1.786  0.3338 -0.2331 -0.0241
15317W        W31126  17.594  17.745   4.988  0.0705  0.1326  0.0455
15318W        W31127   5.206  14.895  14.676  0.0915 -0.0672 -0.0360
15319W        W31128   3.051  16.158  13.919  0.0022  0.4053  0.1501
15320W        W31129   6.042   5.333  11.986 -0.0897 -0.1066 -0.3245
15321W        W31130   7.765  17.014   0.944  0.1821 -0.0103  0.1816
15322W        W31131   1.672   1.355   0.162 -0.0266  0.2530 -0.1235
15323W        W31132   1.149  18.344   4.466 -0.0633  0.0463 -0.1118
15324W        W31133   8.749  13.355   1.735 -0.3657  0.0286 -0.0259
15325W        W31134  13.133   8.102  13.171  0.0174 -0.2445 -0.0538
15326W        W31135  11.238   0.632   2.717 -0.4044  0.2910  0.1310
15327W        W31136  12.529   2.459  12.349  0.0521  0.3462 -0.0350
15328W        W31137   7.368  17.984   3.646 -0.0396 -0.1076  0.1379
15329W        W31138   9.539   9.422   2.887 -0.0123  0.0721 -0.0240
15330W        W31139   0.582  18.033  13.528  0.2626 -0.0416  0.3678
15331W        W31140  13.157   2.790   4.905  0.0771 -0.1505 -0.0837
15332W        W31141   1.768  15.279  13.450 -0.0025  0.1221 -0.2964
15333W        W31142   1.726  13.959  14.743  0.1175 -0.1806  0.3997
15334W        W31143  12.650   4.898  14.333  0.0600 -0.0469 -0.1567
15335W        W31144  16.577   5.976   5.497 -0.0395  0.1916  0.4249
15336W        W31145   8.692  11.427  11.435  0.0171  0.1823  0.1256
15337W        W31146   4.687  13.412   4.334  0.0390 -0.0403 -0.1171
15338W        W31147  16.501   6.012   4.466 -0.2518 -0.2170  0.3946
15339W        W31148   8.903   5.240  13.098 -0.0171 -0.1784  0.2668
15340W        W31149  13.523  13.596  14.630 -0.1541 -0.1704  0.1359
15341W        W31150  17.193  17.435  14.626 -0.2181  0.1157  0.1706
15342W        W31151  19.008   5.011   0.979 -0.1580 -0.0429  0.1280
15343W        W31152  12.431  12.397   3.483 -0.3488 -0.1580  0.0527
15344W        W31153  16.942  18.670  14.628  0.1429 -0.0147 -0.0517
15345W        W31154  17.800   7.379  11.022 -0.3950  0.1801  0.0157
15346W        W31155   9.791  11.582   3.120  0.0640  0.4889 -0.1393
15347W        W31156   5.319   2.539  15.177 -0.2566 -0.2801 -0.2280
15348W        W31157   1.703   2.273   9.788 -0.1498 -0.0716  0.1697
15349W        W31158   6.735   8.011  12.019 -0.2446  0.1794  0.0685
15350W        W31159   8.295  10.803  12.597  0.1659  0.4113 -0.0240
15351W        W31160   1.875   5.393   3.498 -0.2615  0.1296  0.0574
15352W        W31161  11.322   8.053  13.598  0.0842 -0.4027 -0.6547
15353W        W31162  14.943  18.119  11.219  0.1657  0.0111  0.0066
15354W        W31163   5.723   2.589   2.808  0.0329  0.0935  0.2778
15355W        W31164  11.383   5.734   0.318  0.0387 -0.1825  0.0680
15356W        W31165   0.681  12.392  13.185  0.0601  0.1494 -0.0415
15357W        W31166   7.861  12.861  15.192  0.1499  0.2462  0.0201
15358W        W31167   5.596   9.378   4.086  0.3016  0.0766  0.0794
15359W        W31168   1.802  16.363   0.144 -0.0300 -0.0416  0.0465
15360W        W31169  10.796   5.981  11.360  0.1161 -0.1930 -0.0856
15361W        W31170  18.297  17.129   3.870  0.1797  0.0943 -0.2139
15362W        W31171  12.016   2.809  14.472  0.0375 -0.0492 -0.0319
15363W        W31172  13.776   8.756   1.548  0.1241  0.1184 -0.2407
15364W        W31173  10.438  18.151   2.401  0.1791 -0.4004 -0.4747
15365W        W31174  18.620  15.132   4.971 -0.2682  0.0472 -0.0767
15366W        W31175   6.711  12.038   2.830  0.1313  0.0357 -0.2174
15367W        W31176  15.405  10.218   3.920  0.1015  0.0235 -0.0714
15368W        W31177   9.135  15.072  10.574  0.0481 -0.3249  0.0811
15369W        W31178   4.870   1.711  14.374 -0.0113  0.0536 -0.1473
15370W        W31179  18.939  13.563   0.573  0.1362  0.0780 -0.0040
15371W        W31180  14.144   5.492  12.195 -0.2951 -0.1442  0.1159
15372W        W31181  10.613  11.424   6.319 -0.0141 -0.0374 -0.0515
15373W        W31182   0.316  14.875  14.759 -0.1843  0.2763  0.2620
15374W        W31183   5.279  11.173  10.487  0.0680 -0.3533 -0.2538
15375W        W31184   8.132   0.154   3.965 -0.0588 -0.0771  0.1321
15376W        W31185  18.405   6.620   3.536  0.0071  0.0887  0.2831
15377W        W31186   4.035   7.757   1.077 -0.1426  0.0434  0.1813
15378W        W31187   5.167  16.625   3.569 -0.2716 -0.2839  0.0907
15379W        W31188   8.537  11.016   3.032  0.2634  0.2783  0.0110
15380W        W31189  13.652   5.199   3.033 -0.2277  0.4101  0.1435
15381W        W31190  14.001   6.288  14.946  0.1063 -0.0013 -0.2523
15382W        W31191   2.749   5.817   8.926  0.1815 -0.4047 -0.0571
15383W        W31192   7.949   7.408  14.545 -0.3450 -0.1468  0.3408
15384W        W31193   7.270   2.810   1.786  0.0772 -0.0382  0.2057
15385W        W31194  15.005   7.611   2.990  0.0255 -0.1496  0.2637
15386W        W31195  18.737  15.975  13.816  0.3334 -0.1655 -0.2700
15387W        W31196   5.320   4.919   9.828  0.1245 -0.1307  0.1673
15388W        W31197  12.857   6.949   4.270 -0.0777  0.1952  0.2199
15389W        W31198   7.812  18.369  13.586 -0.0262  0.0032  0.1218
15390W        W31199  12.910   8.251  14.869 -0.0569 -0.2436  0.0256
15391W        W31200   7.305  18.470  14.674 -0.0523 -0.1267 -0.2168
15392W        W31201  15.566   8.913   0.588 -0.0261  0.1416  0.1042
15393W        W31202   8.662  17.541  12.379 -0.2770 -0.2596  0.2804
15394W        W31203  13.993  12.974   2.071  0.2465  0.0719  0.0815
15395W        W31204  13.749  12.849   0.769  0.1248 -0.0059 -0.0783
15396W        W31205  15.058  11.362  14.264 -0.0052  0.0989  0.1300
15397W        W31206   1.486  16.768  12.214  0.1605  0.0733  0.3385
15398W        W31207  14.519   0.357   0.265  0.5394 -0.3389  0.0079
15399W        W31208   4.247  13.160  11.778 -0.0129  0.2261 -0.3039
15400W        W31209  17.935  18.371  15.065  0.1218  0.1009  0.0480
15401W        W31210  10.412  15.730   4.238  0.0336 -0.1174  0.0057
15402W        W31211  16.750  11.010  10.357 -0.2563  0.0780 -0.2563
15403W        W31212   1.944   6.004   2.705 -0.3104  0.1919  0.2292
15404W        W31213   0.899  18.555  10.818 -0.0619  0.2976  0.2970
15405W        W31214  17.107  16.974   5.065 -0.0919 -0.2672 -0.1792
15406W        W31215  15.911  14.278  12.940 -0.0386  0.0893 -0.0429
15407W        W31216   1.095  15.537  10.927 -0.3530  0.1615  0.0239
15408W        W31217  11.515   7.343  12.930 -0.1070  0.0053  0.1335
15409W        W31218   0.294  13.036   3.194 -0.0272  0.1741  0.2105
15410W        W31219  15.714  12.860  11.878  0.0282 -0.0740  0.1443
15411W        W31220  11.466  10.830  10.089 -0.2896 -0.1886 -0.0365
15412W        W31221  10.136   6.549   3.669 -0.0317 -0.1071 -0.1678
15413W        W31222   0.412   0.341  13.889 -0.3402  0.0576  0.1496
15414W        W31223  14.250  16.926   1.165 -0.2877  0.0688 -0.1868
15415W        W31224   1.490   0.875  11.288  0.0294  0.0659  0.2618
15416W        W31225   4.067   0.550  14.716 -0.0802 -0.0162 -0.2368
15417W        W31226   8.515  17.321   9.576  0.2923 -0.1550  0.0536
15418W        W31227   0.021   4.857  14.791  0.0228  0.2048  0.2855
15419W        W31228  10.457   5.577   3.627  0.2005  0.1260  0.1130
15420W        W31229   6.671   0.972  14.329  0.4113  0.0873  0.2367
15421W        W31230   3.469   1.167   9.828 -0.2498 -0.0723  0.0953
15422W        W31231  14.848   8.027  12.268 -0.1264  0.0825  0.1578
15423W        W31232   6.797  13.887  10.605 -0.3579  0.0287 -0.3661
15424W        W31233  10.594  12.053   2.665 -0.0033 -0.4055  0.1656
15425W        W31234   2.091   0.482  10.388  0.1318 -0.3106 -0.2950
15426W        W31235   3.190  10.349   0.125  0.1379  0.2199  0.0513
15427W        W31236  14.756   6.904  10.820  0.1627  0.1919 -0.0209
15428W        W31237  11.849  10.357   2.334 -0.0495 -0.2696  0.3113
15429W        W31238   4.637  17.876  11.238 -0.0548 -0.1689  0.2345
15430W        W31239   3.066  10.259   1.483 -0.0630 -0.2214  0.1778
15431W        W31240   9.457   7.667   4.327 -0.0850  0.3923 -0.1629
15432W        W31241  15.381  16.447   2.692 -0.0437  0.0201 -0.1465
15433W        W31242   6.006  14.207   9.560 -0.2217 -0.1488 -0.1463
15434W        W31243  10.787  10.196   4.667 -0.0942 -0.0791 -0.3238
15435W        W31244   3.651  12.219   3.902  0.0440 -0.0061 -0.1584
15436W        W31245   1.472   3.297  14.432  0.1794 -0.1023  0.0954
15437W        W31246  11.955  14.514   2.344 -0.0408 -0.4356  0.0544
15438W        W31247  11.849  15.533   3.794 -0.1912 -0.1395  0.0649
15439W        W31248  13.341   6.217   1.003 -0.0536 -0.0963  0.0239
15440W        W31249   6.905  14.404   0.899 -0.1843  0.0624  0.0889
15441W        W31250   5.461  18.587  13.297 -0.2043  0.0090 -0.2732
15442W        W31251  14.560   5.589  11.047 -0.4709 -0.1373 -0.0845
15443W        W31252   8.502   6.670   4.147 -0.2640  0.2647 -0.0896
15444W        W31253   6.554  13.273  12.460  0.1553  0.1459 -0.1286
15445W        W31254   7.460   2.539  10.293  0.2529  0.2428  0.2883
15446W        W31255   3.576  18.881  12.100  0.1632  0.4321  0.2029
15447W        W31256   0.311   2.534  10.097 -0.1405  0.1484  0.0767
15448W        W31257   4.620  18.708  14.828 -0.1630  0.1707 -0.0280
15449W        W31258   2.107  18.954   2.531 -0.0874  0.0371 -0.1343
15450W        W31259   2.804  14.731  11.382  0.2453 -0.1303  0.0820
15451W        W31260   7.271   7.428  12.899  0.1424 -0.1531  0.1632
15452W        W31261  10.823   5.478   2.152  0.0291 -0.1739 -0.2881
15453W        W31262   3.512  12.579  10.532 -0.0281  0.0291  0.1253
15454W        W31263   4.680  11.506  10.401  0.3959  0.0910  0.3216
15455W        W31264  13.798   9.276   5.835 -0.0642 -0.1062  0.1271
15456W        W31265   1.131   2.291  14.647 -0.1262  0.3045  0.0026
15457W        W31266  16.124  16.024   3.108  0.0693 -0.0242  0.0125
15458W        W31267  11.553  12.572  12.063 -0.0585 -0.1141  0.1406
15459W        W31268   4.839   5.861  11.966 -0.5705  0.1599  0.0624
15460W        W31269  12.368  10.940   0.203  0.3852 -0.0411 -0.0400
15461W        W31270  18.630  13.039  13.579  0.0048 -0.0128  0.2086
15462W        W31271   6.831  11.356  12.491 -0.0403  0.0314 -0.1562
15463W        W31272   6.443   7.118   1.351 -0.1348  0.0544 -0.3447
15464W        W31273   9.135   6.525   0.455 -0.0512 -0.1755  0.1708
15465W        W31274   9.586  17.545   3.562  0.3024  0.0046  0.0709
15466W        W31275   3.501  11.923  10.405  0.0425  0.1197  0.0142
15467W        W31276   2.622  15.486   2.215  0.0742 -0.3176 -0.0074
15468W        W31277  13.815  15.672   0.500 -0.1512 -0.2275 -0.0671
15469W        W31278   0.528  10.211  10.628  0.1898  0.0821 -0.1350
15470W        W31279  14.924   1.274  14.512  0.1772 -0.0808  0.4603
15471W        W31280  13.344  12.719   1.443 -0.1630 -0.0037  0.0838
15472W        W31281   8.836   2.182  10.801  0.4265  0.2154 -0.0837
15473W        W31282  15.871   7.764   3.145  0.0590  0.1885 -0.1321
15474W        W31283   3.611   9.412   5.040 -0.0510 -0.2237  0.0748
15475W        W31284   9.023   5.710  12.988  0.0094 -0.1728 -0.1036
15476W        W31285   7.320   8.391  12.533 -0.0223 -0.0666  0.2722
15477W        W31286   6.556  12.868  10.759  0.2615  0.2178  0.1638
15478W        W31287  15.435   0.708   2.032 -0.1331 -0.0136 -0.1341
15479W        W31288  11.587   8.355  14.756  0.2289 -0.2509 -0.2575
15480W        W31289  17.809  14.999   4.425 -0.0463  0.1395  0.0852
15481W        W31290  10.808  13.432   2.261  0.2797  0.2148 -0.0737
15482W        W31291  14.016  12.845  15.216  0.1238 -0.3281 -0.2483
15483W        W31292   8.067   1.462   1.661 -0.3481  0.3531  0.4971
15484W        W31293   3.970   2.966  15.104  0.2023 -0.0508  0.2729
15485W        W31294   1.197   0.981  10.471 -0.1038 -0.2070  0.0935
15486W        W31295   8.551   2.742  11.416 -0.1416  0.0811  0.2824
15487W        W31296  11.023   8.935   3.274  0.2538 -0.4685 -0.0806
15488W        W31297  17.039   4.793  14.198  0.0305  0.2568 -0.0236
15489W        W31298   4.905   2.296   1.525  0.2050  0.0802  0.2507
15490W        W31299   4.563  14.498  14.399 -0.0715 -0.0564 -0.0957
15491W        W31300   2.075  14.137  10.970 -0.1976  0.2556 -0.0060
15492W        W31301   0.252  16.069  12.618  0.1346  0.0333  0.0476
15493W        W31302   7.093  16.991   0.314  0.4218 -0.0657  0.0653
15494W        W31303   2.590   8.777   3.553  0.0369  0.2002 -0.3105
15495W        W31304  10.461   5.639  14.990  0.0279  0.0552  0.3123
15496W        W31305  11.979   1.683  10.819 -0.2404 -0.1977  0.2134
15497W        W31306   0.626   5.767  11.494 -0.0662 -0.0190  0.1661
15498W        W31307   8.779   3.383  10.538  0.1813 -0.1860  0.2730
15499W        W31308   2.578  16.610   4.665  0.0929 -0.0610 -0.1617
15500W        W31309  15.224  12.613  10.305  0.0019  0.1760 -0.0996
15501W        W31310   1.365   2.147  10.471  0.1050  0.1132  0.5380
15502W        W31311  12.806  16.364  14.185  0.2060  0.0287  0.0169
15503W        W31312   7.154  15.248  11.804  0.0435 -0.1671  0.0361
15504W        W31313  14.923   7.720  11.822  0.1713 -0.1786  0.1325
15505W        W31314   5.526   9.244  15.060  0.2124  0.0859  0.0135
15506W        W31315   3.093  17.651  12.004  0.0715 -0.0948  0.0053
15507W        W31316  11.453  12.648  12.970  0.0333  0.2609  0.0225
15508W        W31317   3.230  15.869   4.616  0.1497 -0.0685 -0.0714
15509W        W31318  16.344   7.675  12.590  0.3026  0.0542 -0.1327
15510W        W31319  11.111   6.172   0.452  0.0222  0.2807 -0.2235
15511W        W31320  17.132  15.249   0.587  0.2123  0.0385  0.2418
15512W        W31321  13.861   7.068   4.037  0.0875 -0.2626  0.3644
15513W        W31322  10.486  11.044  11.078 -0.1480 -0.1259  0.1493
15514W        W31323   3.965   7.795  10.804  0.0609 -0.0782  0.0695
15515W        W31324  19.024   0.994  14.441 -0.0820  0.0637  0.0904
15516W        W31325   9.284  14.234   9.834  0.1605 -0.3463  0.1124
15517W        W31326  15.028   3.363  11.719 -0.2511 -0.0278  0.1386
15518W        W31327  18.615   1.324  14.206  0.1627  0.1096  0.0324
15519W        W31328   9.349  16.183   0.289 -0.1279  0.1500 -0.0408
15520W        W31329   9.623   0.731  14.689  0.0117 -0.0208  0.0761
15521W        W31330   7.341  17.724  11.526 -0.0872  0.1545  0.1256
15522W        W31331   2.094  16.691   0.528 -0.2118 -0.1455 -0.2847
15523W        W31332   3.261   3.156   3.080  0.1681  0.1034  0.1234
15524W        W31333   5.006   8.829   5.143  0.1829  0.2030 -0.0087
15525W        W31334  16.002   3.900   3.278  0.2452 -0.0666 -0.3859
15526W        W31335   9.889  10.493  11.340  0.0525 -0.3351 -0.0552
15527W        W31336   9.894  17.142  11.955 -0.3112  0.0376 -0.0551
15528W        W31337  11.863  11.446   5.631  0.0654  0.1369  0.0636
15529W        W31338  14.616  17.828  12.411  0.2696 -0.0267 -0.2326
15530W        W31339   2.759  11.674   2.876  0.4017  0.1354 -0.0038
15531W        W31340  13.679   7.442   2.114 -0.1543 -0.0879 -0.2340
15532W        W31341  15.943   3.494  12.763  0.2159  0.1084  0.1518
15533W        W31342   3.963   2.392  11.584 -0.0394  0.0049  0.0364
15534W        W31343  10.185  11.588  11.741  0.2558 -0.1402 -0.0685
15535W        W31344  14.870   2.531   1.417 -0.1281  0.3819 -0.0945
15536W        W31345   2.254   4.712  12.633 -0.0528 -0.2682 -0.0202
15537W        W31346   1.541  17.217   2.519  0.2210 -0.0997  0.1374
15538W        W31347   2.916   9.163  12.732 -0.2462 -0.3964 -0.0886
15539W        W31348  18.274   4.559   4.509 -0.2102  0.1856 -0.2449
15540W        W31349   1.670  18.657  13.371  0.1938  0.0116  0.0899
15541W        W31350   6.815  11.402   2.195  0.0847  0.1207 -0.1703
15542W        W31351   3.335   8.947  13.758 -0.0491 -0.0745 -0.2426
15543W        W31352  16.292   1.234   3.205 -0.0133  0.0242 -0.0098
15544W        W31353   2.616  10.982  11.580 -0.0138  0.0273  0.2832
15545W        W31354   5.061   5.349   2.617 -0.4792  0.1813  0.2394
15546W        W31355   2.145   3.267   3.873 -0.2046  0.1598  0.0122
15547W        W31356  17.733   6.437  10.128 -0.3886 -0.0329  0.3013
15548W        W31357  13.472  11.005   6.131  0.5406  0.1663  0.0700
15549W        W31358  17.503   4.702   4.141 -0.2452  0.0517 -0.0703
15550W        W31359  10.852  10.655   4.412 -0.3133  0.2171  0.2111
15551W        W31360   4.086   0.982  13.852 -0.1217  0.0568 -0.1381
15552W        W31361  15.654  15.511   1.583  0.0777 -0.1858 -0.3452
15553W        W31362   8.975   3.722   9.958  0.3706  0.0632  0.1495
15554W        W31363   8.200   4.112   2.708  0.1674  0.0869  0.0074
15555W        W31364  18.723   4.965   2.953  0.1784  0.0503  0.0744
15556W        W31365  11.199   2.372   3.392  0.1272  0.2720  0.1157
15557W        W31366   9.168  18.880   2.257  0.2836  0.0914  0.0951
15558W        W31367   4.798   1.784  14.933  0.2365 -0.2283 -0.1182
15559W        W31368   6.987  15.643  12.251  0.3190 -0.1669 -0.0996
15560W        W31369  18.881   6.679   9.703  0.0495 -0.1327  0.2759
15561W        W31370  12.122  14.242   1.391 -0.2677  0.1143 -0.1759
15562W        W31371  11.877  18.746   3.329 -0.1345  0.3639  0.2216
15563W        W31372  16.057  11.461  12.091 -0.1967  0.1788 -0.0839
15564W        W31373   2.817  15.040   9.835  0.1485 -0.0308  0.2111
15565W        W31374  16.105   1.601   1.351  0.3658  0.0422 -0.0071
15566W        W31375   8.321  17.574   1.295  0.0255  0.2693  0.0816
15567W        W31376  11.779   0.689   1.462  0.2366  0.2572 -0.1908
15568W        W31377  13.312  17.241  13.835 -0.4141  0.2762  0.1344
15569W        W31378  12.024  14.441   3.208  0.0210 -0.0858  0.0204
15570W        W31379  10.452   3.574   5.646 -0.5195  0.0077 -0.2565
15571W        W31380  15.700  11.693   5.819 -0.0450 -0.1639 -0.2677
15572W        W31381   3.181  11.939   4.290 -0.1182 -0.0380 -0.0369
15573W        W31382  15.833  13.311   4.307 -0.2088  0.0508  0.1672
15574W        W31383  15.588   8.255   3.379  0.0232  0.1730 -0.3872
15575W        W31384   1.182   5.637   4.448  0.0005 -0.0613  0.0752
15576W        W31385   9.414   6.376  12.814 -0.0091  0.0704 -0.0417
15577W        W31386   0.244  18.949  12.330 -0.0360 -0.4153 -0.2001
15578W        W31387  10.769   9.746   3.120 -0.0823  0.2472  0.6410
15579W        W31388   0.654  12.839   9.807 -0.0958 -0.1264  0.1436
15580W        W31389  18.073  12.347   1.276  0.1439 -0.1617  0.1826
15581W        W31390  12.618  14.773   0.099 -0.0260 -0.1694 -0.4592
15582W        W31391   7.670   1.648  12.812  0.2025 -0.0737  0.0890
15583W        W31392  17.975  15.130  11.333  0.0257 -0.0737  0.3800
15584W        W31393   2.696  18.530   1.708  0.0056  0.0099 -0.0808
15585W        W31394   2.314  12.332  12.752 -0.1611 -0.1219  0.1365
15586W        W31395  16.619  13.026  14.604  0.0988  0.3853 -0.3144
15587W        W31396  14.991  10.966  13.712  0.1491  0.3592  0.0790
15588W        W31397   9.722   9.658  11.827 -0.2101 -0.2673  0.0093
15589W        W31398   9.448  13.493  11.892 -0.0020  0.2617 -0.0662
15590W        W31399  17.493  17.697   0.299 -0.2369 -0.0793 -0.1011
15591W        W31400   7.051  15.895   2.815 -0.0174  0.1607 -0.4171
15592W        W31401  17.111  11.957   4.949  0.0063 -0.1241 -0.1895
15593W        W31402   2.781  18.223  12.822  0.1119  0.2273  0.0777
15594W        W31403  13.671   5.864   3.395  0.2074  0.4036  0.1780
15595W        W31404   0.245   6.789   3.741  0.0883  0.0555 -0.1149
15596W        W31405  12.661  13.166   3.134  0.2795 -0.3079 -0.2930
15597W        W31406   9.726  12.636   1.952  0.4038 -0.2355  0.1470
15598W        W31407  15.629  19.064  12.626 -0.2090 -0.2270 -0.1186
15599W        W31408   1.644   2.580  13.491 -0.2648 -0.0711  0.0938
15600W        W31409   0.034  10.375  14.050 -0.1556 -0.1835 -0.2811
15601W        W31410  12.677   1.664  12.117 -0.0320 -0.0745 -0.1455
15602W        W31411   5.002   9.842   4.338  0.3854  0.1890  0.1317
15603W        W31412  18.907   0.677  11.492 -0.2490  0.0370 -0.0407
15604W        W31413  16.352  18.164   0.140  0.1935  0.0884 -0.0824
15605W        W31414  17.765  11.335  10.357 -0.1989 -0.2071 -0.1410
15606W        W31415   2.456  12.663  14.776  0.0345  0.2976  0.0803
15607W        W31416   4.660  12.587  12.707  0.0375 -0.2041 -0.0744
15608W        W31417   8.861   0.697  11.737 -0.2610  0.1881 -0.0591
15609W        W31418   1.084   3.959   4.247 -0.1444  0.1852  0.2594
15610W        W31419   7.239  15.053   3.124  0.2173  0.1210 -0.0873
15611W        W31420  16.370  14.359  13.928 -0.2239 -0.0840  0.0493
15612W        W31421   3.020   8.500  13.038 -0.2275  0.0572 -0.0758
15613W        W31422  16.357  18.925   4.988 -0.0026 -0.1598 -0.0689
15614W        W31423   8.576  15.592   2.773 -0.0456 -0.1296  0.0210
15615W        W31424  17.761  18.821  11.364  0.0974  0.1173 -0.1645
15616W        W31425   6.070   8.545  11.692  0.3114 -0.2671  0.3491
15617W        W31426   3.466  14.976   0.329 -0.1488  0.1118  0.1590
15618W        W31427   7.245   0.536   2.916 -0.3562 -0.4376 -0.1865
15619W        W31428  14.990  10.854  10.683 -0.1621  0.0194  0.3086
15620W        W31429   0.107   7.827  10.707  0.1820 -0.0973 -0.1598
15621W        W31430   9.879   3.281  13.992 -0.0290 -0.1418 -0.0978
15622W        W31431  16.464  13.817  14.603  0.3920 -0.1896  0.0405
15623W        W31432   3.635  11.185   5.491  0.1964 -0.0971 -0.3457
15624W        W31433   8.357  10.268  11.345 -0.1649 -0.0359 -0.0041
15625W        W31434  15.709  11.114  12.038 -0.0414 -0.2134 -0.0089
15626W        W31435  17.377  10.432  15.213 -0.3266 -0.1165 -0.2381
15627W        W31436  17.238   6.095   2.548  0.1303 -0.0430 -0.2496
15628W        W31437   7.114   3.934  13.782  0.3082  0.3108  0.0916
15629W        W31438  15.971   1.680   9.937 -0.1772 -0.1127  0.0714
15630W        W31439  17.610  16.825   3.214 -0.0627  0.0658  0.0159
15631W        W31440  17.233  10.183   2.697 -0.0107 -0.0426  0.0254
15632W        W31441   1.775   8.999  12.814  0.2840  0.2523  0.1180
15633W        W31442   7.584   1.251  13.069 -0.0441 -0.0428  0.0504
15634W        W31443  14.188   6.419   2.594  0.0005  0.1508 -0.1918
15635W        W31444  11.835  14.119  14.571  0.1933  0.3255 -0.0588
15636W        W31445  10.930  15.943  11.777  0.1944  0.1016  0.2322
15637W        W31446   1.010   9.370   1.070 -0.1070  0.3934 -0.0035
15638W        W31447   9.075   4.991   1.987  0.2013  0.0698 -0.3366
15639W        W31448   7.283   0.930   3.313  0.3716  0.0176 -0.0206
15640W        W31449  13.200   1.013  13.893  0.3314 -0.0607  0.0998
15641W        W31450   3.676  17.915  11.901  0.1471  0.0102  0.2018
15642W        W31451  17.894  14.773   3.061 -0.1194 -0.0832  0.1477
15643W        W31452  19.106  15.213   3.981 -0.3411  0.3837 -0.1290
15644W        W31453   5.291   4.980  14.073  0.1851 -0.0576  0.3011
15645W        W31454  11.157   4.892   4.113  0.3156 -0.1221 -0.1410
15646W        W31455  11.226  18.140   5.195 -0.1146  0.0870  0.2108
15647W        W31456   4.187   3.476   5.117  0.1425 -0.1962  0.1723
15648W        W31457  17.624   6.156  11.723  0.4110 -0.1142 -0.0463
15649W        W31458   0.363  18.438   1.867 -0.2441 -0.3691  0.1101
15650W        W31459   7.177  15.185  13.625  0.0705 -0.1772 -0.0189
15651W        W31460   1.865   4.498   5.140 -0.0464 -0.1277 -0.1065
15652W        W31461  10.060  10.849  12.226  0.0091  0.1169 -0.2159
15653W        W31462   8.482  14.652   2.921  0.0622  0.3239 -0.0776
15654W        W31463   2.089  18.997   0.602 -0.1190 -0.1487  0.0670
15655W        W31464   4.424   1.210   0.163 -0.0335 -0.1009  0.2732
15656W        W31465  11.776  10.441   1.762  0.1237  0.0235  0.1417
15657W        W31466  11.962   9.598  14.936  0.1633  0.0496  0.1310
15658W        W31467  17.356  13.838  14.945 -0.1880  0.0422  0.3158
15659W        W31468  16.456  15.797   4.966 -0.0938 -0.1394 -0.1717
15660W        W31469   9.221   7.571   2.804 -0.0859 -0.1691 -0.0024
15661W        W31470   5.466  11.731  11.027 -0.0113 -0.3948 -0.0875
15662W        W31471   7.473   7.261  10.908  0.2584 -0.0448  0.4026
15663W        W31472   6.754  13.457  10.337  0.0649 -0.1888  0.1499
15664W        W31473   5.664  11.119  11.965  0.2125  0.3156 -0.3969
15665W        W31474  13.670  14.703   4.097  0.4524 -0.1283  0.1312
15666W        W31475   3.713   4.439  13.095  0.1344 -0.0357  0.1638
15667W        W31476   5.981   6.293   1.100 -0.1040  0.0913 -0.2663
15668W        W31477  12.494  15.028  10.766  0.1731  0.0052  0.1051
15669W        W31478  10.667   9.730   1.138 -0.0790 -0.1559  0.0478
15670W        W31479   9.732  10.958   9.739  0.0642 -0.3764 -0.0363
15671W        W31480   9.947  15.981  13.112 -0.0218 -0.0021  0.1304
15672W        W31481   4.184   7.981  13.254 -0.2824  0.1382  0.2362
15673W        W31482  18.384   1.450   1.400 -0.0139  0.0448 -0.0147
15674W        W31483   4.933   7.889  10.106 -0.0791 -0.1398  0.0724
15675W        W31484  13.260   0.012  13.712  0.2521  0.2309  0.1094
15676W        W31485   8.012  18.332   0.286 -0.1218  0.1795  0.0696
15677W        W31486   0.130  11.353  14.405  0.2403 -0.4598  0.2012
15678W        W31487  16.563  12.097   1.603  0.3599  0.3750 -0.1862
15679W        W31488  14.358   5.777   0.950  0.0289 -0.0511  0.0090
15680W        W31489  18.805  13.293   5.228  0.1121 -0.0893  0.1077
15681W        W31490  11.238  13.114  13.323  0.1598 -0.3704 -0.2110
15682W        W31491   4.195  12.792   0.171  0.3997  0.1967  0.2447
15683W        W31492  10.067   4.417  14.637  0.2672  0.1685 -0.1851
15684W        W31493  12.706  14.788   3.617  0.0382  0.0778  0.0671
15685W        W31494  12.578   4.985  12.277 -0.2302  0.1161 -0.2814
15686W        W31495   2.708  15.965  10.652  0.5096 -0.0593 -0.3958
15687W        W31496  10.567   6.696  10.520  0.2007 -0.2149 -0.0142
15688W        W31497  18.115  17.707   4.983 -0.0506 -0.2077  0.2003
15689W        W31498  12.398  17.923   3.451 -0.2439 -0.2770 -0.1609
15690W        W31499   5.838   4.735  14.523  0.2499  0.0991  0.2978
15691W        W31500  17.952  14.746   1.403  0.1741 -0.1493  0.2948
15692W        W31501  16.926  11.446  13.583  0.1113 -0.2474 -0.1508
15693W        W31502   6.134  15.759  15.091  0.1690 -0.4011 -0.2695
15694W        W31503  17.605  10.169   5.327  0.1486 -0.4034 -0.0767
15695W        W31504  12.776  17.500   1.602 -0.1151  0.0761 -0.2120
15696W        W31505  18.527  15.540   5.241  0.0242  0.1017 -0.1676
15697W        W31506  16.202   8.447   2.256 -0.3708  0.3611 -0.2827
15698W        W31507  15.712   4.471   1.096 -0.0136  0.2278  0.0234
15699W        W31508   6.926   4.406   0.141 -0.0669 -0.1558 -0.4248
15700W        W31509   9.974   3.669   1.479 -0.2684 -0.1936  0.3778
15701W        W31510   7.024  17.772   4.904 -0.1087  0.2466 -0.0402
15702W        W31511   1.071  13.166   2.701 -0.2151 -0.3143 -0.2068
15703W        W31512  11.161   3.068  13.219  0.2548 -0.0063 -0.2603
15704W        W31513  11.310   1.322   2.434 -0.1217  0.2112 -0.2665
15705W        W31514  11.224  16.533  12.649  0.1286  0.0325  0.0720
15706W        W31515   1.318  11.127  13.522  0.3417 -0.0991  0.1946
15707W        W31516   1.037  13.310  13.668 -0.1652 -0.2317  0.0534
15708W        W31517   2.988   6.459   0.523  0.1621  0.0080 -0.0900
15709W        W31518   5.158   8.457   4.816 -0.0150  0.1481  0.0640
15710W        W31519   6.140   8.671   4.020  0.3231 -0.1715 -0.0238
15711W        W31520  14.436   2.242  11.027  0.2436 -0.4334 -0.2629
15712W        W31521  12.587  13.749   0.676  0.0703 -0.0406  0.1952
15713W        W31522   5.824   6.161  12.798 -0.2505 -0.2588 -0.0724
15714W        W31523   5.404   4.471  14.405  0.2417 -0.0816 -0.0429
15715W        W31524  14.661   7.416  14.359 -0.1975 -0.1658 -0.1747
15716W        W31525  16.932  15.450   0.965  0.1251 -0.0839  0.0004
15717W        W31526  16.228   0.895   4.487  0.0797  0.0925  0.0047
15718W        W31527  13.807   0.341   3.697  0.0195  0.0863 -0.3088
15719W        W31528  10.245   5.056   9.970  0.0377 -0.2309 -0.2060
15720W        W31529   9.294  16.133   2.348  0.0355 -0.2310 -0.1586
15721W        W31530  15.959  15.057   5.141 -0.1042  0.1256  0.1351
15722W        W31531  12.087  11.859   1.844  0.0511 -0.4453  0.0410
15723W        W31532  14.011   4.605  11.552 -0.0265  0.2860  0.1898
15724W        W31533  16.737  15.029  11.386  0.1746  0.1817  0.0289
15725W        W31534   3.854  12.643  12.767  0.2481 -0.1441 -0.1847
15726W        W31535   0.715   1.351  10.927  0.6094 -0.0411 -0.0823
15727W        W31536  13.252   6.375  11.603  0.1027 -0.1305 -0.0297
15728W        W31537  14.156   5.666   4.337  0.0901 -0.0286 -0.0756
15729W        W31538   7.455  16.669   1.122  0.0026 -0.1554  0.2320
15730W        W31539  11.460  15.514  12.689 -0.2905  0.0297  0.0641
15731W        W31540   2.241   5.542   4.472 -0.4885  0.0428 -0.1602
15732W        W31541   5.200  12.238   3.800  0.0054  0.2144  0.0682
15733W        W31542  17.717   8.873  13.465 -0.0811 -0.0062 -0.0644
15734W        W31543   1.043   4.280   1.103 -0.0720 -0.1790  0.1093
15735W        W31544   7.543   4.952  11.840 -0.2372  0.4451 -0.1918
15736W        W31545   8.046  19.121   5.318  0.0225 -0.2837 -0.2441
15737W        W31546   6.406   9.925  14.212 -0.1338 -0.6621 -0.1932
15738W        W31547   6.407   8.271   4.002 -0.0098  0.1441  0.0798
15739W        W31548  17.283   1.596  12.853  0.0724  0.2492 -0.5743
15740W        W31549  11.413   4.180   4.809  0.0637  0.2052 -0.2061
15741W        W31550   5.762   0.193   0.930  0.1762  0.1585 -0.2744
15742W        W31551   5.571  14.522  14.036 -0.0095  0.1110  0.1662
15743W        W31552   6.172   8.636   2.979 -0.0726 -0.0662  0.2555
15744W        W31553  12.188  16.874   1.399  0.4679 -0.1553 -0.0180
15745W        W31554  13.294  18.394   3.421  0.2855 -0.1355  0.1859
15746W        W31555   3.105   1.559  14.369  0.2309  0.0060  0.0304
15747W        W31556  18.440   9.945   1.249  0.2606  0.1945  0.2804
15748W        W31557  18.357   8.121   2.245  0.1599  0.1186  0.1210
15749W        W31558  17.913  13.791   3.248  0.3136 -0.2707 -0.0865
15750W        W31559   0.010   5.778  14.467 -0.0167 -0.2725 -0.0590
15751W        W31560  17.419  18.678   2.882 -0.3176  0.0976 -0.1829
15752W        W31561  16.585   9.885   3.233 -0.2927  0.1309  0.1693
15753W        W31562  12.403  11.969   3.690 -0.2136  0.0468 -0.0941
15754W        W31563  10.456  14.176   1.609 -0.1960  0.1696 -0.2198
15755W        W31564  16.049   8.892  13.124 -0.2025  0.2535  0.3219
15756W        W31565  10.543   4.241   4.443  0.1195  0.0144 -0.3653
15757W        W31566  16.184  14.559  15.105 -0.2139 -0.0909  0.3769
15758W        W31567   2.906  17.457   2.638 -0.0415 -0.4081 -0.0375
15759W        W31568  18.260   0.684   5.435  0.1674 -0.1529  0.1778
15760W        W31569  13.088  17.637  15.162  0.2386 -0.1409  0.0398
15761W        W31570  18.891   1.688   2.103 -0.2043 -0.1940 -0.0616
15762W        W31571  12.730  15.721   2.769  0.1852 -0.0321 -0.2250
15763W        W31572   8.876   9.171  15.210 -0.0526  0.1509  0.2582
15764W        W31573   6.145  12.249   3.817 -0.3064 -0.0942 -0.1050
15765W        W31574  14.610   5.433   0.790 -0.5624 -0.0417 -0.0628
15766W        W31575  11.192  15.242  13.058 -0.0160 -0.2025 -0.1091
15767W        W31576  10.401  14.158   4.251 -0.1903 -0.1621  0.1595
15768W        W31577   8.276   2.701  13.316 -0.1716  0.1456 -0.0389
15769W        W31578  15.477   4.043   1.016 -0.2366  0.2112 -0.2348
15770W        W31579   8.087  14.534   0.256 -0.2463 -0.1184 -0.0956
15771W        W31580  19.139  16.367   5.097 -0.2797 -0.0032 -0.0978
15772W        W31581   3.874  15.781   4.647 -0.1637 -0.1123  0.0152
15773W        W31582   5.686   5.519  15.036 -0.2416  0.0255 -0.1092
15774W        W31583   8.104  13.544  14.091  0.0403 -0.2685  0.3476
15775W        W31584  14.273  14.408  11.669 -0.0381  0.0657 -0.2269
15776W        W31585   1.606   7.660  11.766 -0.1324  0.0544 -0.2633
15777W        W31586  14.339   0.943  12.586  0.0018  0.2770  0.0538
15778W        W31587   1.378   5.343  14.876 -0.0723 -0.1448  0.1730
15779W        W31588   3.144   7.194  10.201  0.0794 -0.0096 -0.2826
15780W        W31589  14.146   2.861  12.918  0.0234 -0.2712 -0.0183
15781W        W31590   0.549   9.676   3.047  0.2679 -0.1331 -0.0076
15782W        W31591  10.509   9.707  13.503  0.1292  0.3446 -0.1155
15783W        W31592  11.063  15.660   2.331  0.1180 -0.0785 -0.1154
15784W        W31593   8.737  12.181   2.318  0.3838 -0.2020 -0.0726
15785W        W31594   0.348   5.601   1.319 -0.1152 -0.1905 -0.2288
15786W        W31595  18.465   3.466  11.625  0.2466  0.0435 -0.2841
15787W        W31596   2.761  11.747   0.762 -0.1131  0.2118  0.0007
15788W        W31597  12.108  12.838   5.533 -0.0773  0.4742  0.0406
15789W        W31598  10.372   0.515  14.602 -0.1339 -0.0775  0.0580
15790W        W31599   9.566  18.789   3.883  0.0355  0.0512 -0.0406
15791W        W31600  18.150  19.035  13.653 -0.0535 -0.0529 -0.1884
15792W        W31601  16.295  18.996  12.664  0.0761 -0.4174  0.1852
15793W        W31602  10.793  18.491  14.732 -0.0892 -0.0597 -0.0614
15794W        W31603   8.969   3.980  11.057  0.0846 -0.0634 -0.2048
15795W        W31604   8.297  14.274  14.160  0.0662  0.2390 -0.0143
15796W        W31605   3.303   3.652   2.792 -0.4588  0.0332  0.1207
15797W        W31606   8.072   4.986   1.759 -0.0063 -0.3945 -0.2262
15798W        W31607   7.002  13.029  14.480 -0.2943  0.0461 -0.1469
15799W        W31608   0.520  16.779   0.458  0.2988 -0.2329 -0.0961
15800W        W31609  11.946   2.959  13.510 -0.1011 -0.0212  0.0082
15801W        W31610   8.463   9.594  13.171  0.0585 -0.1752 -0.2048
15802W        W31611   3.128   9.808  11.831  0.1890 -0.3734 -0.3513
15803W        W31612  17.972  15.231   9.654 -0.0447 -0.1176  0.0138
15804W        W31613   7.278   2.011   3.995  0.0081  0.0939 -0.3823
15805W        W31614  11.352  17.714  11.944  0.0707 -0.0063  0.3094
15806W        W31615  13.962   6.740   1.575  0.0872  0.4029 -0.1643
15807W        W31616   8.390   7.603   3.352 -0.1850 -0.1929  0.1563
15808W        W31617  10.681   1.700   0.760 -0.1485  0.0820 -0.0055
15809W        W31618  12.679  10.413   1.156 -0.1463  0.0601  0.2329
15810W        W31619  10.413   7.284  12.143  0.0008 -0.1749  0.1355
15811W        W31620  12.003  16.892  12.053 -0.0584  0.0390  0.2304
15812W        W31621  12.669   5.079  12.814 -0.2489 -0.1113  0.2513
15813W        W31622   9.683   6.865  10.512  0.2146  0.3093  0.2121
15814W        W31623  18.159   9.387   5.834  0.0685 -0.2840  0.1070
15815W        W31624  11.469   8.594   1.355  0.1333  0.0473  0.0836
15816W        W31625   6.420   1.912  11.395 -0.0398 -0.0554  0.0295
15817W        W31626  12.387   1.183   3.210 -0.2215 -0.0291 -0.0364
15818W        W31627  15.759   5.416   3.003  0.5074  0.1944 -0.0179
15819W        W31628   4.811  12.581   2.242 -0.0599 -0.0253  0.2612
15820W        W31629   3.814  16.994  12.042 -0.2759  0.0269 -0.2138
15821W        W31630  18.700   4.205   1.784 -0.0543  0.0122  0.3191
15822W        W31631  17.803   4.520   5.758 -0.1126  0.0764  0.0003
15823W        W31632   4.365   8.871   2.573 -0.1320  0.1335  0.0769
15824W        W31633  12.937  14.972  13.451 -0.0194 -0.0517 -0.2770
15825W        W31634  19.135  18.682  14.511 -0.1218 -0.0560 -0.0467
15826W        W31635  14.601  17.619   1.751  0.0620  0.0605 -0.0393
15827W        W31636   3.094   7.347   3.633  0.1780 -0.1942  0.0083
15828W        W31637   6.679  10.267   2.831  0.0180 -0.2296  0.3569
15829W        W31638   4.394  14.380   3.184  0.1976 -0.0802 -0.4717
15830W        W31639   2.622   9.189   2.739  0.2015  0.1682 -0.1330
15831W        W31640  12.764  14.038   2.688  0.2530  0.1602 -0.0764
15832W        W31641   8.989  11.864   2.654 -0.0058  0.1340 -0.2665
15833W        W31642  14.209   9.872  13.965  0.3650 -0.0099 -0.2583
15834W        W31643   7.458  11.662  14.180 -0.0046  0.3062 -0.3526
15835W        W31644  10.164   6.626   0.155  0.2208 -0.1249 -0.3220
15836W        W31645  14.563   7.105  14.903  0.0090  0.1316  0.1129
15837W        W31646  11.657  16.781   1.828 -0.0974 -0.0389  0.1301
15838W        W31647   4.815  11.663   2.589  0.1478  0.3034  0.2914
15839W        W31648  12.019  10.316   5.029  0.2411 -0.0599 -0.0425
15840W        W31649   6.363  11.531   4.968  0.0225  0.1793  0.2364
15841W        W31650  19.126  13.295  10.102  0.0235  0.2221 -0.0250
15842W        W31651   7.848   4.272  12.386  0.0042 -0.2132 -0.0998
15843W        W31652  18.018   6.305  11.933  0.3468 -0.0576 -0.1785
15844W        W31653   0.414   1.184  11.990  0.2014 -0.0421 -0.2274
15845W        W31654   8.460   4.479   2.716 -0.2173 -0.1231 -0.3122
15846W        W31655   8.562  13.796  10.872  0.0619 -0.2620  0.1172
15847W        W31656  10.357  10.644  13.651 -0.0939 -0.1045 -0.1439
15848W        W31657  17.001   1.021   0.516 -0.1205  0.0402 -0.1777
15849W        W31658   2.947   5.897   9.984  0.0862  0.2700 -0.1872
15850W        W31659   6.482  19.068   3.488  0.0049 -0.0581 -0.0743
15851W        W31660   6.593  10.190   1.936 -0.0969 -0.0240  0.0340
15852W        W31661  15.117   7.779   9.444 -0.2142  0.0727  0.0044
15853W        W31662   2.491  19.111  10.915 -0.2848  0.1593 -0.2278
15854W        W31663   0.496  18.408   2.356 -0.0601  0.2612  0.4921
15855W        W31664  12.024  17.732  10.937  0.0722 -0.1410 -0.2161
15856W        W31665   8.894  14.378   0.001 -0.2326 -0.0583  0.4765
15857W        W31666   2.362  14.366   2.672 -0.0385  0.0693 -0.3021
15858W        W31667  17.868   2.581   4.847  0.1539  0.0360  0.3242
15859W        W31668   1.449  18.442  10.735  0.0651 -0.0779 -0.0096
15860W        W31669  10.123  14.428   1.886  0.0168 -0.0953  0.2910
15861W        W31670  10.532   1.860  14.135 -0.1375 -0.1653 -0.2655
15862W        W31671   0.635  10.407   0.971  0.0664  0.0699  0.0573
15863W        W31672   4.658  10.496  13.815  0.1336  0.0111  0.0960
15864W        W31673  19.099  18.657  11.282  0.1669  0.1600 -0.2201
15865W        W31674  10.870  16.910   0.521  0.3325  0.2520  0.0079
15866W        W31675   5.038   1.702  12.030  0.2199 -0.1465  0.0066
15867W        W31676   1.455   5.999  13.629  0.1978 -0.1438  0.0044
15868W        W31677   5.761   7.163   2.083  0.2558 -0.2003  0.1322
15869W        W31678   5.663   8.585  10.679  0.0051  0.1204  0.0523
15870W        W31679  10.439   7.912   3.703 -0.0376 -0.0970  0.1638
15871W        W31680  10.430  13.483  12.156  0.1731 -0.1605 -0.0967
15872W        W31681  18.881  15.011  10.225 -0.0588 -0.0155 -0.1160
15873W        W31682  18.174   7.121   0.537 -0.1412 -0.0653 -0.0446
15874W        W31683  15.276  12.964  12.844 -0.2476 -0.4302 -0.1476
15875W        W31684   4.872  10.674  14.426  0.0086 -0.2187  0.2260
15876W        W31685   3.506   6.148   0.616 -0.2255 -0.1617 -0.1722
15877W        W31686  10.621  18.092   4.277  0.3397 -0.3215  0.0270
15878W        W31687  18.993   2.609  15.109  0.0422 -0.4125 -0.0193
15879W        W31688  12.515  16.417   5.834 -0.1569 -0.0945 -0.0188
15880W        W31689   8.984   8.843   3.833  0.0646 -0.0050 -0.3797
15881W        W31690   6.350   1.848   2.830 -0.1854 -0.0536 -0.1309
15882W        W31691  17.060   4.439  12.146  0.2213 -0.0410  0.2435
15883W        W31692   5.707   1.319  14.234  0.1069 -0.0681 -0.3202
15884W        W31693   1.308   4.310  13.085  0.3229  0.0212 -0.0814
15885W        W31694   6.846   9.191  14.055  0.1011  0.0102  0.2430
15886W        W31695   4.756  18.033   3.533  0.3797 -0.1346 -0.1855
15887W        W31696  12.992   9.664   1.858  0.0849  0.0096 -0.4208
15888W        W31697   8.324   9.078   2.974 -0.0865  0.1278 -0.1285
15889W        W31698  15.112   0.260   4.432  0.4893 -0.1168  0.2926
15890W        W31699  17.339   0.071   3.969  0.2474 -0.0143 -0.1197
15891W        W31700  14.930  16.952  12.810  0.2690 -0.3874  0.1593
15892W        W31701  18.045  17.436  14.424 -0.2025 -0.0666 -0.1846
15893W        W31702   8.861   7.243  11.522 -0.0369 -0.0805  0.2155
15894W        W31703   4.512  14.030  14.091  0.0716 -0.1448 -0.2348
15895W        W31704   7.446   5.139  12.376  0.1529 -0.1833  0.1040
15896W        W31705   8.288  16.325  11.737 -0.1607  0.0629 -0.0289
15897W        W31706  17.001   9.145  13.986  0.0644  0.0487 -0.2197
15898W        W31707  17.222   2.251  11.380  0.0078 -0.1666  0.0552
15899W        W31708   9.607   0.719   0.095  0.4082  0.1985 -0.0612
15900W        W31709  11.463   3.757  13.347  0.1851 -0.0139  0.1080
15901W        W31710   5.213   5.037  12.425 -0.1313  0.5967 -0.1513
15902W        W31711  17.740   3.460   0.474 -0.2591 -0.1049 -0.1346
15903W        W31712  17.375   5.803  11.383 -0.2372  0.1412 -0.0378
15904W        W31713  10.308   1.739   0.145 -0.0037  0.0937 -0.1082
15905W        W31714  17.530  12.917  11.020 -0.2745 -0.2718  0.0899
15906W        W31715  16.199  10.256   0.925  0.2415 -0.0395 -0.0767
15907W        W31716   3.975   9.606   1.540  0.4514 -0.0417  0.0192
15908W        W31717   9.008   1.935   1.123  0.0183  0.1415  0.0975
15909W        W31718  15.802  10.268   4.192 -0.1228 -0.2055 -0.1523
15910W        W31719   9.401   9.170   5.216 -0.0299  0.0890 -0.0946
15911W        W31720   9.326   1.123   2.711  0.2249 -0.1092 -0.0667
15912W        W31721  14.869  17.331   4.807  0.0586  0.2541 -0.1300
15913W        W31722   0.286   1.608   1.842  0.0140  0.2198  0.1225
15914W        W31723   5.490  19.095   2.749 -0.0426 -0.1016 -0.0871
15915W        W31724  17.626   9.429  11.795 -0.0217  0.0643 -0.0063
15916W        W31725   0.487  10.882   3.527  0.0459  0.1004 -0.0969
15917W        W31726  11.060   0.239   3.411  0.1364 -0.0855  0.1013
15918W        W31727  14.115  10.186  11.363  0.0430  0.1295  0.0206
15919W        W31728  12.146  17.045   4.967  0.1413 -0.1356  0.6185
15920W        W31729   5.100   6.691   0.899  0.1459 -0.2813 -0.3128
15921W        W31730  10.971  15.927   5.584 -0.0624 -0.0580 -0.2076
15922W        W31731  18.620   8.916  12.329  0.0542 -0.1451  0.1237
15923W        W31732   8.201   5.224   0.808  0.0712 -0.0676 -0.2784
15924W        W31733  19.055  11.344   2.664  0.1875  0.0296 -0.0184
15925W        W31734  10.849   5.140  11.778 -0.0889 -0.1343  0.2617
15926W        W31735  13.598   3.441   3.484 -0.0701 -0.3419 -0.2940
15927W        W31736   6.947   6.651   1.114  0.0286  0.0285 -0.1150
15928W        W31737   7.348  14.750   9.375  0.1340 -0.1617 -0.1041
15929W        W31738  10.117   8.709  13.993  0.1498  0.1863 -0.1146
15930W        W31739   1.368   0.821   2.228 -0.2202 -0.2076  0.2367
15931W        W31740   8.429   6.898   4.590  0.0844  0.0802 -0.2125
15932W        W31741  18.234   2.179   2.179 -0.0169 -0.2050  0.1952
15933W        W31742   3.963   1.338  13.478 -0.1875 -0.3259  0.0001
15934W        W31743   4.783   5.366   3.743  0.0555  0.0171  0.0620
15935W        W31744  12.536   7.521  11.388 -0.1931 -0.0830 -0.0117
15936W        W31745   0.352   0.675  11.919 -0.0914 -0.0967  0.0512
15937W        W31746  12.728  12.093   3.234  0.2715  0.0653  0.5107
15938W        W31747   8.664  16.803   0.374  0.2328  0.1703  0.1126
15939W        W31748   3.009   2.321  10.549  0.3548 -0.2621  0.4033
15940W        W31749   2.471  12.172   0.878 -0.1318 -0.0913  0.1314
15941W        W31750  12.221   4.187  14.573  0.0152 -0.0419 -0.0409
15942W        W31751  12.628  13.004   0.318  0.2014 -0.5033  0.3808
15943W        W31752   6.378   1.913   0.266  0.1267  0.0285  0.0236
15944W        W31753  12.912  11.613   2.833 -0.0957  0.1483  0.0196
15945W        W31754  10.018   0.034   3.932  0.0874  0.0105  0.2902
15946W        W31755  17.534  13.611  13.031 -0.0593 -0.2596 -0.2546
15947W        W31756  15.564  12.193   3.763  0.1997  0.3099  0.1176
15948W        W31757  18.130   7.774   2.541 -0.1068 -0.1718 -0.2443
15949W        W31758   0.328  13.872   9.490 -0.1853 -0.5266  0.1769
15950W        W31759   7.699   9.001  14.372  0.0749  0.0582  0.2912
15951W        W31760  12.487  15.888  13.288 -0.1051  0.3111  0.0589
15952W        W31761  14.105   7.540  14.211  0.1249  0.0328  0.1345
15953W        W31762   1.000  17.365  14.381 -0.1194 -0.3411 -0.2220
15954W        W31763   6.091   7.225  12.158  0.1031  0.1667 -0.0478
15955W        W31764  13.679   7.600   9.079 -0.0757  0.1486 -0.1098
15956W        W31765   9.129   7.411   1.976 -0.1248  0.3339  0.0412
15957W        W31766  17.890  17.692  11.137  0.3418 -0.1088  0.2417
15958W        W31767   8.190  16.783  15.042 -0.2992 -0.0127 -0.2875
15959W        W31768   8.902   4.546   3.479  0.2609 -0.0893 -0.1492
15960W        W31769  13.094   6.697   1.801 -0.0072 -0.0080 -0.2650
15961W        W31770   9.353  13.171  10.645  0.1124 -0.3286  0.1057
15962W        W31771   7.206   7.830  10.847  0.1087 -0.0496  0.2631
15963W        W31772  13.161   5.362  12.732 -0.1711  0.1488 -0.2951
15964W        W31773   2.830   3.994   2.009 -0.0984 -0.0572 -0.0546
15965W        W31774  11.605   7.182   5.518 -0.1393  0.0718  0.0211
15966W        W31775  11.083  15.693  12.199 -0.1524 -0.1547  0.1654
15967W        W31776   8.944  10.354  11.561 -0.1122  0.3882 -0.2826
15968W        W31777  11.742  17.128   1.241  0.1554 -0.1412 -0.2932
15969W        W31778  16.960  15.058   4.139 -0.0019  0.1061 -0.1341
15970W        W31779  18.415   5.793   3.823 -0.0560  0.1413  0.4555
15971W        W31780  16.478   8.777   1.047 -0.1232 -0.1072 -0.3372
15972W        W31781  16.246  16.080   0.815  0.2183 -0.0640 -0.1708
15973W        W31782   7.567   7.478  14.979 -0.1813 -0.0393  0.0706
15974W        W31783  17.021   3.243  10.819 -0.0271  0.1633  0.0838
15975W        W31784   3.978   2.627   4.569 -0.0846 -0.1309  0.3681
15976W        W31785  11.442   9.520  12.510 -0.2159  0.0565 -0.2743
15977W        W31786   3.505  10.067   2.195  0.0252 -0.0899  0.2009
15978W        W31787  14.369   0.876   0.987 -0.0598  0.2941 -0.1626
15979W        W31788  12.175  16.892  11.557 -0.3825 -0.0472  0.2106
15980W        W31789   4.364   5.069  13.044  0.3139 -0.1233  0.1343
15981W        W31790   8.159  10.340  14.034 -0.1541 -0.3046  0.0060
15982W        W31791  15.265  17.217   6.153  0.4552  0.0326 -0.0903
15983W        W31792  12.305   0.248  11.932 -0.1175 -0.1672 -0.2612
15984W        W31793   2.881  18.433   1.285 -0.0872 -0.1832 -0.0389
15985W        W31794  10.072  11.136   2.097 -0.0234  0.1119  0.0638
15986W        W31795  15.121  18.912   0.178  0.1108  0.0114  0.0448
15987W        W31796  14.978  13.237   0.465 -0.1803 -0.2368  0.1226
15988W        W31797  15.827   8.629  12.169 -0.2769  0.0162  0.1231
15989W        W31798   3.221  12.626   3.643  0.4552  0.1404  0.1911
15990W        W31799  18.832   1.739   5.349  0.2194  0.1349 -0.0426
15991W        W31800  18.366   0.973   4.971 -0.2205  0.0244  0.1021
15992W        W31801  11.342   2.266   2.909  0.3318 -0.2320 -0.2099
15993W        W31802  14.991   1.775   3.509 -0.1129  0.1063  0.1006
15994W        W31803  10.701   2.087   0.006 -0.2229 -0.1975  0.0069
15995W        W31804  13.431   6.169  15.043 -0.0795 -0.1705 -0.3473
15996W        W31805  11.792   4.968  12.856 -0.2297 -0.1541 -0.1813
15997W        W31806  14.083  16.499   2.319  0.0236 -0.1270 -0.1360
15998W        W31807  13.256   5.164   1.924 -0.0736  0.1775  0.2545
15999W        W31808  12.130  16.096  13.626 -0.0425 -0.1058 -0.0674
16000W        W31809   8.428  17.455   0.752  0.0328 -0.2743  0.0156
16001W        W31810  17.612  10.351  12.850  0.3553  0.1611 -0.0674
16002W        W31811  16.520   7.662   1.793  0.0917  0.1692  0.0002
16003W        W31812   7.080  10.306   4.275 -0.2197 -0.1160 -0.1742
16004W        W31813  18.652   9.209   3.538 -0.1909 -0.1102  0.0004
16005W        W31814  17.261   8.418   1.539  0.3212 -0.0292  0.3994
16006W        W31815  14.357  11.047   2.693  0.2853 -0.3342 -0.0899
16007W        W31816  18.397   7.765   0.222 -0.0242  0.4673  0.1357
16008W        W31817   9.048  10.237   3.545  0.0872  0.0319 -0.0585
16009W        W31818   6.239  13.581   3.135 -0.1506  0.1496 -0.2346
16010W        W31819  17.426   8.833  13.941  0.3184 -0.0208  0.0326
16011W        W31820  12.060   9.297   0.941 -0.1683 -0.1080 -0.5017
16012W        W31821   7.145   3.984  11.638 -0.0538  0.2062  0.2950
16013W        W31822  11.092  11.394   3.219 -0.0863  0.1379 -0.2964
16014W        W31823   1.166   1.441   0.606  0.0272  0.0493  0.1197
16015W        W31824  12.782   7.309   4.960 -0.1048 -0.0814  0.2685
16016W        W31825   2.348   3.748   0.072  0.0822  0.0718  0.1095
16017W        W31826  17.076  15.016  14.981  0.2327 -0.0242 -0.2477
16018W        W31827  14.395  17.226   2.782 -0.0575  0.1918  0.2074
16019W        W31828   9.700  18.414  12.525  0.0060  0.0197 -0.0273
16020W        W31829   2.644   5.475   9.981  0.0334  0.2386 -0.0615
16021W        W31830  18.726  10.302  13.801 -0.0893  0.3439 -0.1316
16022W        W31831   2.884   2.328   2.666 -0.2316  0.1919 -0.2103
16023W        W31832   3.839   4.698  13.699 -0.1619  0.1902 -0.0106
16024W        W31833   8.756   0.471   1.624 -0.2143  0.2650 -0.0530
16025W        W31834   4.120  15.387  11.670  0.1370  0.1158  0.1726
16026W        W31835   3.088   4.862  14.804  0.2002  0.0168 -0.1294
16027W        W31836   5.899   4.427  10.201 -0.0317 -0.1613 -0.2427
16028W        W31837  17.460   6.743   2.501  0.2958 -0.2171 -0.4669
16029W        W31838   2.517  11.498   4.183  0.0631 -0.2907  0.2159
16030W        W31839   8.690  12.320   4.106  0.0094 -0.1420  0.0075
16031W        W31840   4.276  15.223   5.071 -0.3606  0.3182  0.0800
16032W        W31841   1.803  13.162   2.214  0.0204 -0.0763 -0.1635
16033W        W31842  16.835  11.446  12.558  0.1848  0.0744  0.1352
16034W        W31843   5.059   7.190  12.525 -0.0483  0.0697  0.1428
16035W        W31844   4.149  14.872   1.886 -0.1811  0.0100  0.3028
16036W        W31845   2.484   3.464   4.699  0.2393 -0.2011  0.0018
16037W        W31846   7.075  15.492   1.493  0.0759 -0.0018  0.2111
16038W        W31847   7.233  15.259  10.842 -0.1974  0.1820  0.0362
16039W        W31848   4.984   1.676  12.957  0.1110 -0.0108  0.2783
16040W        W31849   5.641  12.539   5.071  0.0765 -0.1299  0.1866
16041W        W31850  15.038  14.038  12.312  0.1076 -0.1551 -0.2008
16042W        W31851  14.097  14.866   2.461 -0.0980  0.2395  0.3287
16043W        W31852   2.785   4.434  12.271  0.2715  0.0408  0.1797
16044W        W31853   3.562   3.708  13.511 -0.1979  0.3190  0.0197
16045W        W31854   3.078   9.218  14.883  0.3366  0.2461  0.0261
16046W        W31855   3.657  16.282  12.791  0.2281 -0.0995  0.0410
16047W        W31856  11.693   4.871   4.289 -0.0069  0.0365 -0.0503
16048W        W31857  13.052  17.112   1.330 -0.1584 -0.0350  0.2384
16049W        W31858   6.906   6.599   2.702 -0.1072 -0.2783 -0.0305
16050W        W31859  18.344   9.102   3.974 -0.1718 -0.0005 -0.1572
16051W        W31860   6.556  12.881  14.342 -0.4264 -0.1704 -0.2108
16052W        W31861   5.498   0.490   9.298  0.3383  0.0447 -0.0823
16053W        W31862   9.317  10.697   5.084  0.0671  0.1133  0.1336
16054W        W31863   5.633  15.412   4.241 -0.1017 -0.1430 -0.0348
16055W        W31864   0.427  15.508   0.694  0.0238 -0.4089  0.1430
16056W        W31865  15.104   4.433  14.826  0.2623 -0.1446  0.0609
16057W        W31866   9.135  10.232   5.220 -0.0289 -0.1438  0.0467
16058W        W31867   9.514   0.366  10.937  0.0813 -0.2645 -0.0865
16059W        W31868   2.354   8.777  13.703 -0.0983  0.0635 -0.0322
16060W        W31869   1.388  16.272   4.380 -0.0109 -0.0875  0.0427
16061W        W31870   1.050  14.504  10.799  0.2243  0.0747  0.2521
16062W        W31871   4.757   5.654   1.817 -0.0921  0.2145 -0.0586
16063W        W31872   7.507   2.889  11.180 -0.2563 -0.1531  0.0412
16064W        W31873   4.075   2.689  11.941  0.0539  0.0299 -0.0644
16065W        W31874  13.680   4.802   2.602  0.4908  0.0661  0.0619
16066W        W31875  14.788   5.087  13.488 -0.1356  0.0466 -0.1315
16067W        W31876  13.205  13.284  11.896 -0.1972 -0.1590  0.1154
16068W        W31877  12.770  19.115   3.426 -0.2859  0.3141  0.0140
16069W        W31878  12.093  18.301   3.357  0.2541  0.1801 -0.0715
16070W        W31879   9.942  18.074  12.185 -0.1906  0.0075  0.1135
16071W        W31880   6.810  13.768  12.655 -0.0983  0.0282 -0.0147
16072W        W31881  18.939   4.080  10.318 -0.0251  0.0152  0.1664
16073W        W31882   4.559  18.215   3.126  0.3299  0.1653  0.3177
16074W        W31883   5.914   9.646  14.351 -0.2248  0.0875  0.0094
16075W        W31884  18.122  16.666  13.213  0.0609  0.1600 -0.0391
16076W        W31885  12.410   8.181  13.389 -0.0160  0.5207 -0.2794
16077W        W31886  12.562  12.819  10.561  0.3948 -0.0513  0.1310
16078W        W31887   6.607  15.693   2.917 -0.0034  0.0937  0.1724
16079W        W31888  10.893   8.951  11.322 -0.6853 -0.0369  0.1442
16080W        W31889  12.407  15.399  12.827 -0.4085 -0.1202  0.1907
16081W        W31890   2.089  18.765  10.175 -0.3557  0.2969 -0.0356
16082W        W31891   5.870  14.913   2.788 -0.1724  0.0421  0.1597
16083W        W31892   1.836   0.064  14.919  0.0703 -0.0412 -0.0455
16084W        W31893   8.363  16.009  14.029 -0.0731 -0.0615  0.0721
16085W        W31894   1.701   8.677   1.214 -0.1958  0.0053  0.0742
16086W        W31895   0.938   6.597   3.913  0.0712  0.3531  0.0031
16087W        W31896   4.199   4.088  14.805  0.0278 -0.0231 -0.2232
16088W        W31897   3.892   7.601  13.342  0.3373  0.2207 -0.0399
16089W        W31898   2.306   7.816  12.343 -0.3916  0.0822  0.5174
16090W        W31899   9.119   9.088   5.563 -0.1872 -0.0370  0.0032
16091W        W31900  12.121   1.189  14.391 -0.0663  0.0777  0.0087
16092W        W31901  13.982   7.972   4.536 -0.2761 -0.2016 -0.1969
16093W        W31902   8.177   6.226   1.307  0.0709  0.0325  0.0177
16094W        W31903   2.787  11.157   1.090  0.0160 -0.2606 -0.1677
16095W        W31904   2.596   8.140   0.960 -0.0902 -0.0204  0.0217
16096W        W31905  10.915   9.936  12.512  0.3283 -0.1821 -0.0279
16097W        W31906   1.373   3.744   5.186 -0.2973  0.3446  0.1756
16098W        W31907  17.969   2.990  13.904  0.3313 -0.4476  0.0472
16099W        W31908  17.607   0.472  10.862  0.1323 -0.1574 -0.0084
16100W        W31909  10.331  16.299  11.117 -0.3259 -0.0442  0.1696
16101W        W31910  18.130   4.991  11.712  0.3591 -0.0674 -0.0880
16102W        W31911   9.145   0.734   3.109 -0.1258  0.0543  0.2199
16103W        W31912   5.319   3.438   0.966  0.0956 -0.4365  0.0613
16104W        W31913   3.240  12.185  13.895 -0.0769 -0.1194 -0.0481
16105W        W31914   4.533  13.995  14.572  0.3383 -0.2520 -0.2492
16106W        W31915   3.283   3.347  10.889 -0.1844  0.0872 -0.2588
16107W        W31916   7.972  11.841  14.781  0.0380  0.1918  0.0449
16108W        W31917  10.587  12.212  10.735  0.0219  0.1814  0.1653
16109W        W31918  18.801  11.797  13.657  0.1822 -0.0147  0.0133
16110W        W31919   3.680  10.943  12.405 -0.0782  0.0540 -0.0415
16111W        W31920  13.638   2.777  13.360  0.0232  0.1037 -0.1673
16112W        W31921  14.056   2.286   0.187  0.0059  0.0634  0.1270
16113W        W31922  17.744  10.734   1.346 -0.3037  0.0199  0.0509
16114W        W31923   8.017  17.557  10.769 -0.3244  0.2459 -0.2606
16115W        W31924  17.615  16.721  14.041  0.0970  0.3518 -0.1187
16116W        W31925   1.729  14.381   1.551  0.0451  0.0169  0.1909
16117W        W31926  17.997   9.924   2.913  0.0024 -0.1374  0.1676
16118W        W31927   2.840   9.715   4.625  0.2064  0.2733  0.5282
16119W        W31928  12.970   5.868   1.158  0.0487 -0.0147 -0.0390
16120W        W31929   4.239   5.951  14.263  0.2003  0.0093 -0.2434
16121W        W31930  14.135   1.651   5.301 -0.1858 -0.4686  0.1729
16122W        W31931  11.761  11.413   4.314  0.0486 -0.2368  0.0946
16123W        W31932  12.074  14.233   4.353  0.0977  0.1646  0.1265
16124W        W31933   4.841  10.203   1.645 -0.3924 -0.0397 -0.1240
16125W        W31934  12.455  17.881  13.620  0.3134  0.0940 -0.2457
16126W        W31935  14.924  16.785  12.011 -0.0085 -0.2532 -0.0455
16127W        W31936   6.549   2.983   4.123  0.2234 -0.3083 -0.0476
16128W        W31937   8.610   7.578  11.021 -0.0054 -0.1355  0.2996
16129W        W31938   9.182   6.358   3.658  0.0214  0.1075 -0.2521
16130W        W31939  17.609   8.474   4.873 -0.1008 -0.1435 -0.1538
16131W        W31940  17.506  18.474   3.299  0.0838 -0.1780 -0.1905
16132W        W31941  17.175  17.089  10.725 -0.2196 -0.0140 -0.1799
16133W        W31942  16.645   9.699   5.741  0.3309 -0.0826  0.0933
16134W        W31943   7.748  12.329  14.025 -0.3495 -0.1299 -0.0961
16135W        W31944   6.422  11.202   1.905  0.0408  0.0953  0.2486
16136W        W31945  13.823   4.827   1.153  0.1983  0.0173  0.2859
16137W        W31946   2.267  12.037  10.133  0.2068  0.0890  0.1197
16138W        W31947   1.087   1.028  14.589  0.2412  0.1006  0.0101
16139W        W31948  16.327  15.338   3.763 -0.1329  0.0147 -0.0983
16140W        W31949  14.451  13.650   2.510 -0.1453  0.0126  0.4155
16141W        W31950  11.323  10.329  13.171  0.1141 -0.1035 -0.0457
16142W        W31951  17.897  13.101   1.298 -0.2226 -0.0406  0.0190
16143W        W31952   5.081  16.520  14.250 -0.2190  0.1018 -0.2967
16144W        W31953   6.762   4.752  11.020 -0.1071 -0.0958  0.1760
16145W        W31954   9.340   9.838  13.681 -0.4259 -0.0142  0.1038
16146W        W31955   7.761   2.607  13.591 -0.0752 -0.3940 -0.3689
16147W        W31956   3.896  18.942   2.485 -0.5191 -0.0935 -0.0429
16148W        W31957   6.684   5.140  10.653 -0.2120 -0.3391 -0.1780
16149W        W31958  18.065   2.864   4.023 -0.3148  0.1142 -0.1943
16150W        W31959  17.060  13.203  12.866  0.0019  0.2765 -0.2067
16151W        W31960   7.433   7.848   2.859 -0.1384  0.0568  0.3166
16152W        W31961  10.436   9.520  14.546  0.2805 -0.4736  0.1208
16153W        W31962  10.232  12.289   4.299 -0.3327 -0.1687  0.2760
16154W        W31963   4.930   7.258   5.375  0.2711  0.2633  0.2431
16155W        W31964   1.169   8.137   3.679 -0.0613  0.1396 -0.1082
16156W        W31965  14.832   1.158   2.337  0.0411 -0.0435  0.0123
16157W        W31966  11.218   3.858  11.561 -0.0377  0.0317 -0.0886
16158W        W31967   0.537  12.172  14.100  0.0232 -0.0253  0.0420
16159W        W31968   7.838   3.152   1.833  0.2034 -0.0899  0.3608
16160W        W31969   7.275   4.178  14.588 -0.0226  0.1314  0.0176
16161W        W31970   4.494  13.398   3.819 -0.0014  0.0295 -0.0505
16162W        W31971  13.159   0.208   3.232  0.1323  0.2049 -0.1748
16163W        W31972  18.068   9.432  10.048 -0.2841  0.0699 -0.0283
16164W        W31973   5.456  10.545  11.784  0.0085  0.0515 -0.2186
16165W        W31974  10.409  10.992  14.391  0.1532  0.3011  0.0204
16166W        W31975  11.280   8.026   4.781 -0.0535  0.1048 -0.1934
16167W        W31976   0.912  12.301  13.644  0.1524 -0.4680  0.0719
16168W        W31977  11.507   0.674  12.252  0.1554 -0.1198  0.1905
16169W        W31978   3.440  14.618   4.444  0.0177 -0.1238 -0.1974
16170W        W31979   3.308  14.047  14.269  0.0227  0.1260 -0.1810
16171W        W31980  16.908   2.297  13.139  0.1879  0.0546  0.0360
16172W        W31981  15.224  10.599  11.079  0.3634 -0.1450 -0.2326
16173W        W31982   5.377  18.368  10.986  0.2755  0.1127  0.0165
16174W        W31983   2.985  12.989   9.248  0.1774 -0.1732 -0.0706
16175W        W31984   8.989   7.633   3.985 -0.0792  0.1076  0.1139
16176W        W31985  11.673   8.184   6.064 -0.0674  0.1513  0.0018
16177W        W31986   2.528   1.120   2.757  0.1370  0.0216  0.0106
16178W        W31987  15.124  12.785  14.324 -0.1916  0.4938  0.3122
16179W        W31988   4.054   2.354   2.778 -0.0485  0.1782 -0.2492
16180W        W31989   3.832  11.018  11.068  0.3947  0.0368 -0.1478
16181W        W31990  18.143   3.520   4.590  0.0699 -0.1985  0.2518
16182W        W31991  16.267   3.858  11.185  0.0846 -0.3323 -0.0462
16183W        W31992  16.483  14.812   3.860 -0.0044 -0.2418  0.0058
16184W        W31993  15.693  13.718   2.688  0.0993 -0.0002  0.2434
16185W        W31994   8.313   1.250  10.598  0.3883  0.6336  0.1534
16186W        W31995  12.721   6.436  11.319 -0.2020 -0.1975  0.1479
16187W        W31996   0.482  16.190  13.056  0.4453  0.0830  0.0380
16188W        W31997  12.747   7.775   2.387 -0.1664 -0.1989 -0.0467
16189W        W31998   2.111   5.727   2.141  0.0084  0.0701  0.2438
16190W        W31999   4.632  14.630  10.688 -0.1008 -0.1777  0.0998
16191W        W32000   3.453   9.565   3.091  0.1380  0.0766 -0.2036
16192W        W32001  12.111   9.611  12.328 -0.2454 -0.2140 -0.3990
16193W        W32002   0.438   0.363  14.398  0.1615  0.2218  0.0516
16194W        W32003   8.177   9.837  13.854 -0.0013 -0.2111  0.1358
16195W        W32004  18.732  12.571  14.231  0.1267  0.1165 -0.1847
16196W        W32005  17.904  16.927   3.662  0.3388 -0.0454 -0.1893
16197W        W32006  15.396  15.695   3.760  0.0489 -0.1758 -0.1832
16198W        W32007  14.833   4.021  14.959  0.0412  0.2119 -0.1306
16199W        W32008  15.804  13.462   3.688  0.0770  0.0066 -0.1822
16200W        W32009   8.487   2.880   0.186  0.0052  0.3356 -0.1365
16201W        W32010  12.834  16.753   5.962  0.1940  0.1501 -0.0482
16202W        W32011  10.519   2.150   5.009 -0.1014 -0.2189  0.1187
16203W        W32012   2.708   3.649  13.308  0.0643 -0.2329 -0.0484
16204W        W32013   9.749  18.208   3.121 -0.0418 -0.2852 -0.2016
16205W        W32014   1.352  15.325   0.327  0.1312 -0.2466  0.0904
16206W        W32015   3.154  14.942   2.227  0.1314  0.0329  0.1156
16207W        W32016  17.547   7.081   2.878 -0.1211 -0.3483 -0.1385
16208W        W32017   0.772  12.897  12.465  0.0854  0.2284  0.3621
16209W        W32018  13.959   4.893  11.111  0.4354 -0.3412 -0.0783
16210W        W32019   1.566   8.547   4.497 -0.0177  0.0374 -0.0168
16211W        W32020  18.041  10.880   0.899 -0.2326 -0.0609  0.0600
16212W        W32021   7.329  13.914   3.410  0.2613 -0.1423  0.0883
16213W        W32022   2.256   5.448  11.925  0.1589 -0.0454  0.0210
16214W        W32023   6.198   0.648   4.389  0.1314  0.2047  0.0217
16215W        W32024   4.990  13.512  10.111 -0.1159 -0.0948 -0.0644
16216W        W32025   3.408  18.863   0.185 -0.3301 -0.2062  0.0694
16217W        W32026   0.377  13.740   0.985  0.0595 -0.1517 -0.1718
16218W        W32027  14.868  18.125   2.963 -0.0752  0.0751 -0.0061
16219W        W32028  16.218  14.400  13.443  0.3430 -0.2530 -0.2133
16220W        W32029   0.632   5.757  10.420 -0.0902  0.1765  0.2091
16221W        W32030  14.419  11.264   0.725  0.1559 -0.0470  0.1783
16222W        W32031  17.105   1.284   5.059 -0.1200 -0.1391 -0.2412
16223W        W32032  10.961   2.143   1.527 -0.0928  0.3929 -0.4104
16224W        W32033  15.518  15.035  13.738  0.0971 -0.3218  0.6168
16225W        W32034   8.636   3.652   0.883  0.0051 -0.2758 -0.0204
16226W        W32035   0.902  10.544  10.602 -0.1470 -0.0904 -0.1719
16227W        W32036   2.095  12.216   4.372 -0.2490  0.0641 -0.0743
16228W        W32037  15.329  15.923   4.295  0.0373  0.0280 -0.1093
16229W        W32038  11.744   8.989   0.485 -0.0469  0.2682 -0.0445
16230W        W32039  18.328   6.649  14.775 -0.1751  0.0131 -0.0963
16231W        W32040  12.870  16.044  13.490 -0.0565 -0.3450 -0.2138
16232W        W32041   1.821  11.927  14.991  0.1425  0.0318 -0.3002
16233W        W32042  11.603   1.474   4.386 -0.1489 -0.0347  0.0310
16234W        W32043  10.979   3.234   2.107  0.0552 -0.1162 -0.0465
16235W        W32044   3.132  11.628   3.760  0.1876  0.1652 -0.0893
16236W        W32045  11.680  17.614   1.356  0.0445 -0.2317  0.0240
16237W        W32046   7.188  14.722  10.652 -0.1708  0.0966 -0.0016
16238W        W32047   2.641  13.633   2.196 -0.4302  0.1706  0.1218
16239W        W32048  11.806  18.421   1.283  0.2238  0.1044 -0.0014
16240W        W32049  18.978  17.923  14.166 -0.1194 -0.3954 -0.1295
16241W        W32050   0.164  13.750  13.736  0.0306  0.1005  0.0156
16242W        W32051  19.034   5.801   5.050 -0.4199 -0.0176 -0.4043
16243W        W32052   3.872  18.042  12.405  0.1263  0.0167  0.2160
16244W        W32053   9.628  13.230   3.150 -0.2215 -0.0160 -0.1974
16245W        W32054   8.296   8.935  13.001  0.0530 -0.1273  0.1566
16246W        W32055  18.246  19.155   1.007 -0.0711  0.0939  0.0459
16247W        W32056   2.169  17.408  12.025 -0.2360 -0.0862  0.3125
16248W        W32057  17.286   5.762   4.094 -0.1428 -0.0488  0.2441
16249W        W32058   7.266  15.680   5.796 -0.0271  0.1067  0.0468
16250W        W32059  13.129   7.684  10.573 -0.0690  0.0547 -0.1118
16251W        W32060  16.812   6.439   5.302  0.1877 -0.0433  0.3212
16252W        W32061  15.701   7.571   5.298 -0.3292 -0.1994 -0.2563
16253W        W32062  12.209   7.859   0.957 -0.2243 -0.2344  0.1538
16254W        W32063  12.456   2.089   1.190  0.1481 -0.3017 -0.0582
16255W        W32064   0.157   8.525  10.258 -0.1516 -0.2318  0.4558
16256W        W32065  12.467   3.495  12.338 -0.1659 -0.2689 -0.0112
16257W        W32066  11.532  13.213   5.016  0.2414 -0.0033  0.1016
16258W        W32067   5.739  16.999  15.114 -0.2742  0.5076 -0.1786
16259W        W32068  14.810  10.100   4.376 -0.0859 -0.3497  0.2753
16260W        W32069  10.187  11.718   2.884  0.0539  0.1793 -0.0254
16261W        W32070  18.212  11.863   1.282  0.0193 -0.3941  0.0010
16262W        W32071  17.626  11.634   0.660  0.2119  0.1717 -0.2815
16263W        W32072   8.546  12.618  11.010 -0.0998 -0.1164  0.0453
16264W        W32073   2.841   6.851   0.274 -0.0223 -0.1768 -0.1368
16265W        W32074  16.567  11.717  10.598  0.0874 -0.1012  0.0244
16266W        W32075   8.554  16.955   4.527 -0.1346  0.1565  0.1030
16267W        W32076   9.194   1.725  12.238  0.2211  0.1563 -0.0675
16268W        W32077  14.620   6.143   1.193 -0.0023  0.1373 -0.0775
16269W        W32078  12.749   8.716  14.641  0.0866 -0.0961  0.3317
16270W        W32079  10.190  16.650  10.687  0.1108 -0.3624  0.0390
16271W        W32080   3.224   0.914  10.186 -0.4216 -0.0690  0.6002
16272W        W32081  18.281   7.732   3.618 -0.1000  0.0599  0.1659
16273W        W32082  11.753   3.518  11.929 -0.0222 -0.1373  0.1839
16274W        W32083  11.116   0.424   1.985 -0.3460  0.0791  0.1383
16275W        W32084   1.256   7.709   0.213 -0.0878  0.2054 -0.0923
16276W        W32085  16.993   9.165   1.267  0.2149 -0.0600 -0.3178
16277W        W32086  17.975  18.001  13.371 -0.0814 -0.1091 -0.0489
16278W        W32087   9.159   7.067  13.220  0.2029 -0.0021  0.0089
16279W        W32088  14.050  14.431   2.139  0.1618 -0.0817  0.1003
16280W        W32089  17.422   1.967   3.329 -0.2846  0.5390 -0.1480
16281W        W32090   5.346  15.193   1.043 -0.1182  0.1278  0.2346
16282W        W32091   9.946   0.854   0.546 -0.1160 -0.0742 -0.2773
16283W        W32092   5.692   2.760  14.346 -0.1731  0.3564 -0.0560
16284W        W32093  15.456   1.460  13.511  0.3374 -0.1081  0.3824
16285W        W32094  12.815   8.473  12.597  0.0977 -0.2057  0.2361
16286W        W32095   9.328  16.712  13.355 -0.1015  0.0689 -0.2526
16287W        W32096  16.051  15.042   4.091  0.1290 -0.1770  0.0430
16288W        W32097   0.186   4.220   0.188  0.1381  0.0228  0.0963
16289W        W32098  17.610  16.620   2.620 -0.0961  0.2908  0.4103
16290W        W32099   4.921   0.673   4.817  0.4106 -0.3335 -0.0734
16291W        W32100  16.544   4.128   1.689 -0.0464  0.2231 -0.0202
16292W        W32101  11.356   6.871   0.934  0.2222  0.3001 -0.0176
16293W        W32102  19.072  18.763   0.694 -0.2474 -0.2742  0.3299
16294W        W32103  15.055  17.527   1.965 -0.2154 -0.1167 -0.1090
16295W        W32104   1.294   7.574  14.515  0.2224 -0.3819  0.1382
16296W        W32105   5.161  18.511  12.861  0.0937 -0.4543 -0.1038
16297W        W32106  17.582  19.011   2.132  0.2207  0.1229 -0.0667
16298W        W32107   0.503   2.706   4.479 -0.2726 -0.3593  0.1635
16299W        W32108  15.754  18.897  10.734  0.1091 -0.2305 -0.0092
16300W        W32109   4.203  14.082  13.684 -0.4246 -0.1070 -0.2859
16301W        W32110  15.817  12.972   5.192  0.0134 -0.2377 -0.2878
16302W        W32111   7.135   8.250  13.483  0.0831  0.0710 -0.2771
16303W        W32112  14.494   1.463  14.309 -0.0879 -0.1241 -0.1155
16304W        W32113   6.900  12.097   3.323 -0.0208 -0.2021 -0.2699
16305W        W32114   5.098   1.601   2.500  0.1002 -0.2171 -0.1174
16306W        W32115  11.619   3.774   3.501  0.0145  0.0633 -0.1141
16307W        W32116  12.557  16.223  12.915 -0.0297 -0.1596 -0.4779
16308W        W32117   4.260   2.289  14.424 -0.1572 -0.4411  0.1714
16309W        W32118  11.381   1.723   1.491  0.0767  0.1776 -0.0099
16310W        W32119  10.748   9.209  12.379  0.1411  0.1269  0.1481
16311W        W32120  11.256  14.339  13.751  0.3437 -0.0783  0.2834
16312W        W32121   3.340   4.349   4.508 -0.2784 -0.0806  0.1149
16313W        W32122   5.780   4.790   3.896 -0.1275 -0.0828  0.1104
16314W        W32123  10.004  18.712  10.890  0.4483  0.1236 -0.3448
16315W        W32124   9.592   7.416   0.700  0.0394  0.0340  0.1416
16316W        W32125  12.462  14.863   4.074  0.0446  0.2780  0.3131
16317W        W32126  16.313   4.702   1.000  0.0384 -0.3590  0.4709
16318W        W32127  15.080  10.406   3.367  0.2150  0.3244 -0.0503
16319W        W32128   2.907  17.724   2.244  0.1904 -0.0014  0.0355
16320W        W32129  12.679   7.526   4.477  0.2020  0.4314  0.4213
16321W        W32130  12.956   7.436   1.086  0.0466  0.0983  0.1522
16322W        W32131  15.428   6.238  14.141 -0.2411 -0.2123 -0.0046
16323W        W32132  17.060   4.925   1.579 -0.4089 -0.1023 -0.2394
16324W        W32133  10.064  10.321  13.951  0.0879 -0.0958 -0.0690
16325W        W32134  11.933   5.263   0.831 -0.1427  0.0045 -0.0258
16326W        W32135  14.489   8.244   1.784  0.2358 -0.0858  0.3210
16327W        W32136   7.118  11.606  11.566 -0.1843 -0.1646 -0.1260
16328W        W32137  15.500   0.500  11.853  0.1152  0.1329  0.1695
16329W        W32138  16.417  17.070  13.417 -0.1312 -0.4448 -0.0749
16330W        W32139   0.328   8.905   5.479  0.0322 -0.3103  0.1761
16331W        W32140   3.223  16.640  13.853  0.1229 -0.1474 -0.1429
16332W        W32141   6.816  12.533   3.057  0.1048 -0.2840 -0.1433
16333W        W32142  11.432  18.459  10.810 -0.1588  0.3682 -0.1201
16334W        W32143   4.624   8.144   3.859 -0.0496 -0.1348 -0.1193
16335W        W32144   0.813  11.133   0.162 -0.1298 -0.3169  0.3232
16336W        W32145  16.822   2.691   2.331  0.3029  0.1460 -0.0678
16337W        W32146   6.362   9.070   3.247  0.1591 -0.2627  0.4626
16338W        W32147   2.113   2.788  14.317 -0.0465  0.0988 -0.3441
16339W        W32148   1.253   1.829  10.879  0.1413 -0.2496 -0.1212
16340W        W32149   4.786  17.779   9.577  0.1758 -0.3281  0.1194
16341W        W32150  15.935  14.041  11.133  0.1847  0.4329 -0.1686
16342W        W32151  14.935  17.535  12.698  0.0879 -0.1289 -0.2609
16343W        W32152   0.373   4.273  10.416  0.0069 -0.1064  0.0078
16344W        W32153   6.472  14.474   0.695 -0.0069 -0.0853  0.2397
16345W        W32154   0.677   2.020  11.589  0.1712 -0.3212  0.1137
16346W        W32155   6.155  12.406   1.776  0.1674 -0.3339  0.4766
16347W        W32156   0.156   1.529   2.487 -0.3682  0.0895 -0.1566
16348W        W32157   1.094  16.937   0.830 -0.2285  0.2205  0.2069
16349W        W32158  11.724   3.424  13.708 -0.1026 -0.0921 -0.0966
16350W        W32159  15.809   7.536   4.821 -0.1031  0.2088  0.0582
16351W        W32160  17.455  10.077   3.624 -0.1369 -0.1020 -0.0412
16352W        W32161   8.791  18.456  15.164 -0.2492 -0.0882 -0.1362
16353W        W32162   3.870   6.385   0.400  0.0230  0.0183  0.1895
16354W        W32163   0.335   9.671  12.297 -0.0748 -0.1449 -0.2374
16355W        W32164   9.792   9.230   4.843  0.2216  0.0528  0.0881
16356W        W32165   4.211  16.910  13.339 -0.0079  0.2565 -0.0646
16357W        W32166   4.553  11.317  13.164 -0.0206  0.1912 -0.1041
16358W        W32167   2.244   6.817   3.388 -0.2658  0.0060 -0.1872
16359W        W32168  11.349   7.979   3.566  0.2276 -0.1945  0.2807
16360W        W32169   6.486  18.212  12.107  0.1029 -0.1747 -0.0187
16361W        W32170   8.492   8.649  13.474 -0.1109  0.0330 -0.1169
16362W        W32171  18.735   3.016  14.648 -0.0816  0.2731 -0.0068
16363W        W32172   2.222   1.249   1.069 -0.1526  0.0028  0.2955
16364W        W32173   3.050   5.588  14.136 -0.0767 -0.2452  0.1517
16365W        W32174   8.987  10.407  14.319 -0.0976 -0.0882 -0.3105
16366W        W32175   9.436  10.182   1.347  0.2325  0.1727  0.0367
16367W        W32176  14.085   7.827   5.501 -0.0197  0.1365 -0.1331
16368W        W32177  19.110   3.993   4.286 -0.2354  0.1830  0.3631
16369W        W32178  17.831  13.148  14.362  0.0601 -0.1696  0.0076
16370W        W32179  11.354   6.714  11.370  0.2150  0.0153  0.1454
16371W        W32180  15.086   4.918  10.706 -0.4510 -0.1614 -0.2279
16372W        W32181  12.103   3.938   3.281  0.3873 -0.1670 -0.1272
16373W        W32182  11.029   0.026   1.610 -0.0944  0.0101  0.2380
16374W        W32183   8.650   9.311   0.437  0.1193  0.0755 -0.2794
16375W        W32184   7.839   6.873   3.812  0.1465 -0.0839  0.0539
16376W        W32185  10.301   0.978   5.362 -0.0570 -0.0125 -0.1400
16377W        W32186  16.974  14.695   3.822  0.2036  0.1102  0.2764
16378W        W32187   0.276  11.959  14.445 -0.2651 -0.2066  0.2010
16379W        W32188  19.014  14.674  14.533  0.1371 -0.2084  0.0005
16380W        W32189  14.792  14.017  13.876 -0.2447  0.1070  0.1331
16381W        W32190  11.958  13.672  11.402 -0.0446 -0.3949 -0.0485
16382W        W32191   3.368  10.234  11.542 -0.1667 -0.0268  0.0701
16383W        W32192   3.277   7.187   2.663  0.0440 -0.0106  0.1457
16384W        W32193   7.829  16.230  14.632  0.0572 -0.1097  0.1821
16385W        W32194  18.285   3.642  10.335  0.0931  0.2054 -0.2121
16386W        W32195  18.052  16.146   1.971  0.0145 -0.1881  0.1869
16387W        W32196   3.719   5.874   0.212 -0.2983  0.0238  0.0259
16388W        W32197  18.096   6.830   0.942  0.1116 -0.1123 -0.1557
16389W        W32198   2.768   4.559  12.774  0.0808 -0.2643 -0.0781
16390W        W32199   7.055   6.037  13.521  0.0486  0.1320 -0.1768
16391W        W32200  16.169  15.739   3.484  0.2777  0.3310 -0.2552
16392W        W32201   6.603  15.079   4.562  0.0208  0.1578  0.0232
16393W        W32202   0.423   1.964   2.776  0.0905  0.0520  0.1597
16394W        W32203  12.232  14.664   5.593  0.1353  0.3070  0.1022
16395W        W32204  15.674   9.564  14.434  0.0593  0.0689 -0.0505
16396W        W32205   4.494   2.619   3.853  0.0824 -0.0304 -0.0966
16397W        W32206   6.209  19.147   2.369  0.1394  0.3560  0.0777
16398W        W32207   8.402  12.516   4.568 -0.2716 -0.4375 -0.1776
16399W        W32208   5.639   1.099   3.839 -0.0960  0.2281 -0.0873
16400W        W32209  15.090   1.383   3.267  0.1890 -0.1001 -0.0977
16401W        W32210   9.979  14.159   5.405  0.4145 -0.0235  0.0806
16402W        W32211   4.768   2.418   4.260 -0.0888  0.0504  0.2389
16403W        W32212  14.929   6.732   2.239 -0.2589  0.1146 -0.2054
16404W        W32213  14.095  10.290   0.170 -0.1614 -0.2562  0.1029
16405W        W32214  18.419  14.104  14.911  0.1185 -0.0607  0.0125
16406W        W32215   8.686  16.362   5.267 -0.0611  0.3334  0.1729
16407W        W32216  10.472   4.587   3.214  0.2438 -0.0380  0.0655
16408W        W32217  10.971  16.309  10.412  0.3842 -0.0713 -0.0209
16409W        W32218  12.368   8.474  12.344  0.0301 -0.0008 -0.2085
16410W        W32219   5.910  10.689   3.924  0.1867 -0.1114  0.0849
16411W        W32220   9.460   5.850   0.893  0.1522 -0.0696 -0.0431
16412W        W32221   3.748  10.394   4.411 -0.2267  0.2382  0.2023
16413W        W32222  13.055  15.983   4.526 -0.0875 -0.0902  0.2046
16414W        W32223   0.831   5.519   4.033 -0.0332 -0.2609  0.2437
16415W        W32224   8.118   6.036   4.138  0.0550  0.0025 -0.1077
16416W        W32225  19.011   7.342  10.902  0.4600  0.2982 -0.1523
16417W        W32226   1.461   8.468  10.524  0.0975  0.0376  0.1075
16418W        W32227   1.252   4.920  11.016 -0.1575  0.0801  0.0450
16419W        W32228   3.182   9.387  11.530  0.1453 -0.0125  0.1318
16420W        W32229   6.233   4.858  10.252  0.0102  0.4255 -0.1400
16421W        W32230   5.634  13.674  15.132  0.1026 -0.0111 -0.2204
16422W        W32231   4.149   4.579  13.334  0.0074  0.0479 -0.4049
16423W        W32232   2.149   5.076  10.719  0.1868 -0.0436  0.0800
16424W        W32233  12.693   4.385   3.573 -0.1088  0.0341  0.1661
16425W        W32234  10.075  13.226   1.290  0.1703 -0.1697 -0.0277
16426W        W32235  12.618  17.445   3.565 -0.4372  0.1460 -0.1692
16427W        W32236  17.497   0.050   3.145 -0.0820  0.0092 -0.2615
16428W        W32237   5.121  17.231  10.625 -0.0685  0.0050 -0.1492
16429W        W32238  15.110   7.736  12.551 -0.1652  0.0672 -0.0938
16430W        W32239  14.504  10.861   5.277  0.0987  0.2255  0.0122
16431W        W32240  18.609   0.416  13.049 -0.1104  0.1749  0.0070
16432W        W32241   0.183  14.380   3.672 -0.1585 -0.0441 -0.1502
16433W        W32242  13.002  17.601  12.967  0.0156 -0.0644  0.4366
16434W        W32243  15.563  13.337   5.576  0.2385  0.3420 -0.0776
16435W        W32244   4.916   0.721  11.954 -0.1305 -0.0047 -0.3086
16436W        W32245   4.317   6.838  11.420 -0.0274 -0.2449 -0.2093
16437W        W32246  18.356   7.137  14.487 -0.3931 -0.0508  0.2128
16438W        W32247  13.189  16.363  13.698 -0.2963  0.2383  0.1157
16439W        W32248   1.020   6.167  13.862 -0.3214 -0.2190 -0.1242
16440W        W32249  10.866   8.852  13.126 -0.1238 -0.0910  0.0678
16441W        W32250  13.326   0.344  13.294 -0.0149  0.2746 -0.1779
16442W        W32251   6.099  13.946   1.561  0.3534 -0.1386  0.2577
16443W        W32252   6.717  12.683  13.278  0.0171  0.2572  0.0759
16444W        W32253  10.086  12.197   5.533  0.0058  0.1660  0.1371
16445W        W32254   8.635  12.618  10.493 -0.0149 -0.1897  0.4446
16446W        W32255  16.750   4.819   2.996  0.0311  0.2540  0.1645
16447W        W32256   4.539  18.155   2.180  0.0214 -0.4197 -0.0767
16448W        W32257   8.657  17.846   0.503 -0.1277  0.0457 -0.1236
16449W        W32258   0.656   4.537  14.219  0.1070 -0.1306  0.1175
16450W        W32259  17.985   0.998  11.144 -0.1774 -0.2894 -0.0569
16451W        W32260  17.572  18.478  12.567  0.1309 -0.0805  0.3968
16452W        W32261  17.982   0.699   4.945  0.1404  0.4463 -0.0684
16453W        W32262  15.531   3.040   1.682 -0.0821  0.1909 -0.1702
16454W        W32263   0.124  18.287   2.833 -0.2346  0.0412  0.2936
16455W        W32264   1.368  13.002   3.405 -0.1439  0.0584  0.0801
16456W        W32265   7.922  18.450   1.546 -0.1134 -0.1775 -0.1781
16457W        W32266  18.627   2.441   4.730 -0.4915 -0.1107 -0.3501
16458W        W32267   4.987   0.149   0.910 -0.0621 -0.0820  0.3043
16459W        W32268  14.402  15.143   4.684  0.4172 -0.0187  0.0412
16460W        W32269   9.948  10.778  14.214 -0.1315 -0.2291 -0.3565
16461W        W32270   7.424  10.666  11.640  0.0127 -0.0112 -0.1587
16462W        W32271   5.160  18.399   4.871 -0.2249 -0.0200 -0.0335
16463W        W32272   4.989  14.931   3.463 -0.1809 -0.1540  0.0844
16464W        W32273  10.025  12.597   4.765  0.2829  0.1066 -0.1931
16465W        W32274  14.924   5.333  14.812 -0.3364  0.1181  0.3649
16466W        W32275  12.613  10.833   5.642  0.1512 -0.5913 -0.1200
16467W        W32276   1.449   2.171   1.456  0.0980 -0.2532 -0.1579
16468W        W32277  10.029   7.595  13.594 -0.0045  0.2431 -0.0585
16469W        W32278  10.368   8.835  11.635 -0.3376  0.1878 -0.3471
16470W        W32279   3.803   0.143  13.252 -0.2624  0.0641 -0.1918
16471W        W32280  16.126  11.808  13.395  0.1571 -0.1525 -0.1067
16472W        W32281   2.133   5.998  13.071  0.0597  0.3510  0.0569
16473W        W32282  14.696   0.039   4.544  0.1339  0.2911 -0.0350
16474W        W32283   3.614   8.819  13.304  0.1969 -0.1477 -0.2260
16475W        W32284  11.206   9.219   3.768  0.0841 -0.1834 -0.1330
16476W        W32285  12.700   0.315  13.424  0.0329 -0.0865 -0.0927
16477W        W32286   6.437   8.601   1.408  0.0745  0.2091 -0.3487
16478W        W32287  10.610  11.437  14.566 -0.0506 -0.0939 -0.0028
16479W        W32288  11.734  13.439  12.289 -0.0399  0.1133 -0.1645
16480W        W32289  18.381   8.224   1.336 -0.2395 -0.0780  0.0368
16481W        W32290   7.640   6.047  10.382 -0.2725 -0.1910  0.3200
16482W        W32291  16.703   7.004  11.672  0.3274  0.2439 -0.0336
16483W        W32292   9.327   0.263  14.290 -0.1675  0.1473  0.0223
16484W        W32293   7.674  14.891   3.650 -0.0345  0.0095  0.0814
16485W        W32294   6.826  15.867  13.178  0.0079  0.3308 -0.0432
16486W        W32295  14.541   9.712   2.612  0.0769  0.2711  0.1981
16487W        W32296   4.237  15.709  10.398  0.2236  0.1665 -0.2717
16488W        W32297  17.872   6.748   2.751 -0.1706 -0.0270 -0.1850
16489W        W32298  12.622  13.132   0.787  0.0838 -0.4071  0.0862
16490W        W32299   4.636  17.849  13.247 -0.0583 -0.0589  0.0178
16491W        W32300  16.616   3.738  12.205 -0.3702 -0.0431 -0.0406
16492W        W32301  16.025  18.758   2.133  0.1930 -0.3223 -0.1580
16493W        W32302   7.369   9.603   2.194  0.1115  0.2249 -0.0252
16494W        W32303  15.569  18.195  11.880  0.2164 -0.0365 -0.1357
16495W        W32304  17.942  15.876   0.142  0.0680 -0.4504 -0.0929
16496W        W32305  17.406   1.813   0.188 -0.0895  0.0430  0.0485
16497W        W32306  12.846  12.618  12.364  0.2337 -0.3108 -0.0530
16498W        W32307   6.320   1.374   0.323  0.1582 -0.0832 -0.1794
16499W        W32308   2.986   1.369  10.188  0.0948  0.0517  0.1658
16500W        W32309  17.249   5.277  12.333  0.2073 -0.1803  0.1891
16501W        W32310   5.082   9.795   3.010 -0.0942 -0.3016 -0.2061
16502W        W32311  18.036   9.642  12.742  0.1097  0.0151  0.1892
16503W        W32312   5.843   2.361  13.525  0.0250  0.1006 -0.2904
16504W        W32313   0.313   6.258   2.793  0.0720 -0.0042 -0.0890
16505W        W32314   1.453  10.039  11.839  0.2205  0.0375 -0.1602
16506W        W32315   6.564   7.555   1.083  0.0927  0.1287 -0.1749
16507W        W32316   6.395  14.927  12.532  0.1080  0.0802  0.0403
16508W        W32317  10.013   4.596   2.692  0.0275  0.0706 -0.0746
16509W        W32318  13.140  16.646   1.008 -0.2241 -0.1087 -0.1393
16510W        W32319  11.646   9.504   1.226 -0.0860 -0.0980 -0.0724
16511W        W32320   1.646   0.140  13.460 -0.1825  0.0440 -0.0751
16512W        W32321  10.571   3.093   5.361  0.0538  0.0966  0.1128
16513W        W32322  15.410   5.965  13.206  0.3380  0.3031  0.0543
16514W        W32323  14.925   0.793  11.233 -0.1451  0.1734 -0.0005
16515W        W32324  14.825   7.788   3.654  0.3261 -0.1517 -0.0915
16516W        W32325   0.754  18.211   5.358  0.1212 -0.3320  0.1600
16517W        W32326  13.642   7.615   2.659  0.1344 -0.3305  0.2400
16518W        W32327   9.154  18.722  10.713  0.1958 -0.2465  0.1250
16519W        W32328  16.640  17.403   2.107  0.2393  0.0479  0.0200
16520W        W32329  12.496  17.260   3.091 -0.0731 -0.3518 -0.0365
16521W        W32330  16.850  13.997   5.205 -0.1010  0.1229  0.0200
16522W        W32331   0.295  18.247  11.329 -0.1612 -0.3741  0.1888
16523W        W32332   2.272   8.300  10.540  0.0575 -0.2506  0.1645
16524W        W32333   1.800   7.335   1.638 -0.3769 -0.3195 -0.0812
16525W        W32334   2.984   7.077  12.518  0.2133  0.1833  0.0878
16526W        W32335   8.007  14.107   9.739 -0.1116 -0.0082  0.2178
16527W        W32336  13.117   6.015   3.990  0.0313 -0.3184 -0.2017
16528W        W32337  18.828  14.386   1.834 -0.1575 -0.2947  0.2032
16529W        W32338   4.048   5.509  12.318 -0.0561 -0.2948  0.3250
16530W        W32339   8.788   9.071   4.686 -0.0311 -0.2385  0.0020
16531W        W32340  16.327   5.689   2.673  0.0811 -0.0338 -0.1859
16532W        W32341  16.156   3.559   0.289  0.2991 -0.1911 -0.1108
16533W        W32342   7.967   8.238   5.302 -0.2641 -0.3854  0.0136
16534W        W32343   0.462   0.110   4.664 -0.0305 -0.1499 -0.1234
16535W        W32344   2.558   6.536  10.990 -0.2411  0.3167  0.0339
16536W        W32345  14.367   3.226   3.427  0.2464 -0.0904 -0.1050
16537W        W32346  11.822   6.972   0.498  0.2290 -0.1232  0.3589
16538W        W32347   4.663  12.586   0.292 -0.0937  0.0517  0.4594
16539W        W32348   8.943  12.541   1.219  0.1473 -0.3613 -0.1099
16540W        W32349  16.530   3.447  13.369 -0.0358  0.0339 -0.2372
16541W        W32350  17.688  16.160  12.349  0.3843  0.1991 -0.2173
16542W        W32351  13.841   4.529  10.817  0.1882 -0.0478  0.1258
16543W        W32352  15.623  17.374   5.318 -0.0083 -0.3689 -0.0419
16544W        W32353   8.203   0.281  14.221 -0.0200  0.3917 -0.3230
16545W        W32354  14.135  14.433  14.739  0.0589 -0.0345  0.0336
16546W        W32355   1.303  18.857   3.618  0.0991 -0.1193 -0.0174
16547W        W32356  15.246   5.740  10.159  0.1047 -0.3738 -0.1307
16548W        W32357   3.086   7.318  12.134 -0.1797 -0.1800 -0.1378
16549W        W32358   3.286  18.489   4.869 -0.0198  0.0162  0.0180
16550W        W32359   7.603   6.377   9.405  0.0594 -0.0426  0.3653
16551W        W32360   0.670   4.276  12.709  0.1119 -0.1797 -0.0531
16552W        W32361  10.107  13.177   3.912  0.1283  0.0005 -0.4325
16553W        W32362   3.257   4.091  13.327  0.0551 -0.0111  0.0940
16554W        W32363   3.294   9.912  14.931  0.0821 -0.0085 -0.0252
16555W        W32364   0.555  13.952  10.022 -0.0751  0.3752 -0.4984
16556W        W32365   4.431  12.129   0.482  0.0900 -0.0491 -0.1203
16557W        W32366  13.606   2.924   0.298 -0.3442  0.1896 -0.1918
16558W        W32367   3.088   9.604   4.017 -0.0752  0.0287  0.0301
16559W        W32368   8.775   8.184   4.651  0.0832 -0.2418  0.0985
16560W        W32369  16.742  11.691   1.926 -0.1928 -0.2511  0.1901
16561W        W32370   4.748  16.400  12.061 -0.0382  0.3847 -0.1986
16562W        W32371   5.509  18.570  10.543 -0.2511 -0.1108  0.1878
16563W        W32372  14.724   6.248  14.850  0.0970 -0.2043 -0.0573
16564W        W32373   2.722   9.581  11.476  0.2441 -0.2247 -0.1784
16565W        W32374   7.600   2.162   1.229  0.1224 -0.6078  0.1046
16566W        W32375   2.915  10.528  11.728  0.0833 -0.2986  0.2024
16567W        W32376  13.261   4.007  12.809  0.0878 -0.0130  0.1192
16568W        W32377  13.241   3.132   1.030 -0.1868  0.1745 -0.0578
16569W        W32378  18.415  12.727   3.560 -0.0296  0.1575  0.1000
16570W        W32379   9.838  12.077   2.079 -0.1205  0.1725 -0.2530
16571W        W32380  19.037  15.765   1.546 -0.2191  0.1943  0.0252
16572W        W32381   3.330   6.994  11.776  0.0532 -0.1186 -0.0486
16573W        W32382   0.127  15.778   2.314  0.1493  0.0432  0.0075
16574W        W32383  13.433   6.909  11.536 -0.2784  0.1546  0.0670
16575W        W32384  16.174  15.511  12.024 -0.3310 -0.1796 -0.1902
16576W        W32385  11.151   0.026  13.420  0.2076  0.4456 -0.1557
16577W        W32386   8.887  14.777   9.926 -0.0237  0.1361  0.0798
16578W        W32387  10.631  18.278  15.207 -0.0664  0.2995 -0.3966
16579W        W32388  17.436   6.907  10.137 -0.1846 -0.0074 -0.1296
16580W        W32389   3.192  16.863   1.909  0.0831 -0.0388 -0.1800
16581W        W32390   7.517   6.075  10.910  0.1660  0.1793 -0.0524
16582W        W32391  15.237   3.808   5.741 -0.3488  0.0955 -0.5053
16583W        W32392   1.024   5.773   3.613  0.1149  0.1819  0.0104
16584W        W32393  11.852   2.460   4.842 -0.0044  0.0399  0.5503
16585W        W32394   9.191   0.060  10.572 -0.3042  0.1198 -0.2279
16586W        W32395  10.561   4.886   1.243  0.1584  0.2200  0.2558
16587W        W32396  16.895   4.934   2.475 -0.0040 -0.4150 -0.1317
16588W        W32397  13.454   6.510  11.161 -0.2187  0.0758 -0.0133
16589W        W32398   1.753  15.400   3.618 -0.2187 -0.0309  0.2877
16590W        W32399  18.025  13.120   0.539 -0.1242  0.3801 -0.0793
16591W        W32400  11.180  15.006  12.610  0.0759 -0.1858 -0.0922
16592W        W32401   4.875  15.374   2.387  0.1265 -0.1421 -0.2239
16593W        W32402   6.613   2.401  12.504 -0.3881 -0.4498 -0.1929
16594W        W32403  10.979   2.496  12.630  0.1899  0.2473 -0.0095
16595W        W32404   2.505  18.037  12.470 -0.3382  0.0166  0.2203
16596W        W32405  18.442   8.147   0.835 -0.0511  0.0027  0.0023
16597W        W32406  13.549   2.647   4.614 -0.0794 -0.0982 -0.1287
16598W        W32407   5.343   8.023  12.825  0.1668 -0.2631 -0.0348
16599W        W32408   6.318   7.634   4.501  0.1284 -0.0883  0.0463
16600W        W32409   3.096   0.321  12.264 -0.0502  0.0981 -0.3072
16601W        W32410  17.353  16.576   0.366  0.1653  0.1632  0.0661
16602W        W32411   2.808  12.574   9.978 -0.1851  0.1899  0.1446
16603W        W32412  15.928  16.910   1.085  0.0689  0.3230 -0.2803
16604W        W32413   1.353  14.896   2.204 -0.1762 -0.0123  0.0913
16605W        W32414  18.825   4.927   0.451  0.0410  0.2069 -0.3210
16606W        W32415   1.178   4.300  14.342  0.1421 -0.3739 -0.3054
16607W        W32416   2.974   3.718  12.927 -0.2965 -0.1252  0.4850
16608W        W32417  10.599   1.220   0.903  0.2540  0.3329 -0.2580
16609W        W32418   3.822   7.903   3.468  0.0169 -0.1371  0.2805
16610W        W32419  10.580  17.692   4.668  0.0744 -0.2198 -0.0118
16611W        W32420  16.618  17.686   3.461 -0.0242  0.1482 -0.0466
16612W        W32421   3.139   6.159  14.340  0.4075  0.1563 -0.0766
16613W        W32422   6.068  18.803  13.430  0.4086 -0.0591  0.2335
16614W        W32423   3.898  18.714   0.905 -0.1430  0.0463 -0.2169
16615W        W32424   6.682   1.359   3.592 -0.0579  0.1379  0.0336
16616W        W32425   9.394   2.414   2.241  0.0446 -0.1713 -0.0114
16617W        W32426   4.112  16.580  11.514 -0.2532  0.1185 -0.1155
16618W        W32427   3.901  13.724   4.916 -0.0213  0.0274 -0.0728
16619W        W32428  18.262   5.618   3.268 -0.5167  0.0276 -0.3617
16620W        W32429   3.175   1.399   4.963  0.1026  0.1344  0.3565
16621W        W32430   7.215  10.046   0.060  0.0995 -0.1218 -0.3063
16622W        W32431  13.840   2.380  13.094 -0.0015 -0.0462  0.1415
16623W        W32432  18.026  17.865   5.456 -0.1400  0.0352 -0.0500
16624W        W32433   7.923  13.269  14.865  0.0953 -0.2979 -0.0648
16625W        W32434   4.917   1.020   0.207  0.1260 -0.1646  0.0532
16626W        W32435   8.110   5.152  10.797  0.1975 -0.3673 -0.1389
16627W        W32436   8.411   1.200   3.144 -0.2004  0.1003  0.0557
16628W        W32437   6.763   1.466   5.379  0.1944 -0.1771  0.1715
16629W        W32438  14.367  14.661   4.231  0.1843  0.0448 -0.3858
16630W        W32439   4.423  16.248   4.118  0.0902  0.3938 -0.1347
16631W        W32440  15.001   8.894  10.812  0.3232 -0.0843  0.1744
16632W        W32441   5.021   0.459  13.683  0.2288 -0.3268 -0.0453
16633W        W32442   2.015  14.915  11.905 -0.0071 -0.2545 -0.0869
16634W        W32443  16.101  15.876  12.495  0.1734 -0.0134  0.1766
16635W        W32444   3.413  19.108  13.516 -0.0916  0.4000  0.1161
16636W        W32445  18.739   8.393   3.150  0.1010  0.2780 -0.1575
16637W        W32446   4.221   2.000   1.227  0.0266 -0.1282 -0.1708
16638W        W32447   6.773  14.328   2.073 -0.0905  0.2342 -0.0320
16639W        W32448   4.339   1.980  13.022 -0.3162  0.0802  0.1034
16640W        W32449   9.533  10.666   6.022 -0.2605 -0.2241  0.0067
16641W        W32450  16.855   4.501   3.405  0.4905 -0.0699 -0.0337
16642W        W32451  11.041   0.697   0.584  0.0231  0.0010  0.0772
16643W        W32452  12.286   6.161  13.384 -0.1339  0.0068 -0.0653
16644W        W32453  17.320  17.491   3.667 -0.1322 -0.0880 -0.1340
16645W        W32454   4.051  10.399   1.266 -0.0569 -0.1601  0.3392
16646W        W32455   5.271   5.421   3.954 -0.0419  0.0494 -0.0005
16647W        W32456  15.300   3.203   0.092  0.2700 -0.0203 -0.0743
16648W        W32457  15.896  10.705  15.120 -0.3032 -0.1560 -0.2281
16649W        W32458   6.761  13.090  13.572  0.1680  0.1066 -0.0114
16650W        W32459   0.987  14.906   9.841 -0.1613 -0.1261 -0.0135
16651W        W32460   6.896   0.883   2.732  0.0162  0.0873 -0.2590
16652W        W32461  15.718  16.031  10.078 -0.1515  0.3532  0.1262
16653W        W32462   7.420  16.932  11.921  0.4102 -0.0915  0.0293
16654W        W32463   5.969  17.177   4.060 -0.0906 -0.2443 -0.2364
16655W        W32464  15.256   3.242   0.691  0.0900  0.4445 -0.2598
16656W        W32465   5.744   7.512   0.629 -0.1072 -0.2533 -0.1107
16657W        W32466   9.482  13.231  15.125 -0.1640 -0.3497 -0.0040
16658W        W32467  13.181   4.216  13.318  0.0938  0.0422  0.1578
16659W        W32468  18.906   8.005   4.619  0.1541 -0.1052  0.0659
16660W        W32469   8.154   1.081   3.925 -0.2496 -0.0361  0.1520
16661W        W32470  13.284  14.870  10.817  0.1963  0.0516  0.0892
16662W        W32471   6.812   2.264  13.853  0.0047  0.1897  0.3459
16663W        W32472   0.164  15.482   4.718 -0.0100  0.0560 -0.3253
16664W        W32473   4.248   6.043   0.195 -0.6656 -0.1878 -0.3700
16665W        W32474   5.110   3.901  10.610 -0.0800 -0.0951  0.1531
16666W        W32475  15.908  15.080  13.404 -0.0874 -0.1989 -0.1533
16667W        W32476   1.182  17.749   1.415  0.0010 -0.0244 -0.0489
16668W        W32477   6.655  16.445  11.544 -0.3963 -0.2770  0.0250
16669W        W32478   9.070   1.592  14.741 -0.1205  0.1708 -0.1061
16670W        W32479   4.752   9.791  12.764 -0.0032  0.0217 -0.0960
16671W        W32480  16.418   7.707   4.044 -0.1777  0.1928  0.1318
16672W        W32481  15.337  15.641   2.462 -0.0554  0.0622 -0.0457
16673W        W32482   6.106   2.775   2.508 -0.0565 -0.0122 -0.0915
16674W        W32483   8.174   3.406  14.005  0.1015  0.1650 -0.5958
16675W        W32484   2.506   4.074   9.946  0.1743 -0.1139 -0.2185
16676W        W32485  13.828  12.630  11.526  0.4401  0.0438  0.1139
16677W        W32486  17.441  11.286  11.663  0.1261 -0.1953  0.2162
16678W        W32487  15.612  14.790   1.752 -0.0466 -0.0186 -0.1950
16679W        W32488   6.224   2.251  13.230  0.2210  0.1486  0.1027
16680W        W32489   3.114   6.835   0.874  0.2537 -0.2892  0.0498
16681W        W32490   9.367   3.894  10.699 -0.4319 -0.0639  0.0397
16682W        W32491  15.858  14.633   2.178  0.1996 -0.1353  0.3697
16683W        W32492  15.830   3.826  14.705  0.0318  0.0139 -0.0781
16684W        W32493  18.297   1.442   3.935 -0.0455  0.2036 -0.2124
16685W        W32494   0.759  12.538   0.169 -0.1264 -0.3191 -0.1141
16686W        W32495   1.280   3.653  13.742 -0.3454  0.0711 -0.0432
16687W        W32496   7.927   7.806  14.946 -0.2387  0.0989 -0.1927
16688W        W32497  17.988   2.160   0.917  0.0330 -0.2032 -0.0712
16689W        W32498   8.452  11.047  10.734 -0.1046  0.2699  0.1359
16690W        W32499   2.639  12.285  10.367  0.2892  0.0599 -0.0341
16691W        W32500   1.858  13.929  11.613 -0.0989 -0.2951 -0.2038
16692W        W32501   3.885  12.336   9.155  0.3700  0.0472  0.0870
16693W        W32502  16.160   4.789  11.617  0.1584 -0.3968 -0.0384
16694W        W32503  13.395   5.514   0.875  0.1587  0.3755 -0.1905
16695W        W32504   3.503  18.265   4.298  0.0933  0.0618  0.0916
16696W        W32505  14.796   4.633   2.267  0.0640 -0.2694 -0.0508
16697W        W32506   4.524   3.966  13.529 -0.1560 -0.0885 -0.0175
16698W        W32507   4.895   0.693   2.162  0.2264 -0.2660  0.0016
16699W        W32508   4.616  11.734   0.293 -0.3398 -0.2046  0.0916
16700W        W32509   8.092  17.654   5.256 -0.0956  0.0441  0.2201
16701W        W32510  15.756   7.867  10.637 -0.0943  0.1092  0.1928
16702W        W32511  14.452  12.335   2.750  0.2027  0.1933  0.3494
16703W        W32512  14.435   6.471   3.157 -0.2319 -0.2532  0.1342
16704W        W32513  13.697  19.147   1.372  0.0023  0.2229 -0.0383
16705W        W32514   8.932  18.275  12.076 -0.0411  0.0839  0.0018
16706W        W32515  18.746   8.412  14.279 -0.0291 -0.2390  0.0359
16707W        W32516   9.135  15.755  13.022  0.0351  0.0504 -0.2388
16708W        W32517   5.661   5.076   0.914  0.2767  0.1807  0.0436
16709W        W32518   1.878  12.654   4.120 -0.1335  0.0989 -0.3999
16710W        W32519   5.034  13.683  13.724 -0.0793  0.0541  0.0487
16711W        W32520   0.798   1.824   0.713  0.2791  0.0963 -0.0504
16712W        W32521   6.022   5.256  12.893  0.3570  0.3880  0.2738
16713W        W32522   3.378  17.341  12.972  0.2716  0.0241 -0.0658
16714W        W32523   7.647  17.598  14.890 -0.0456 -0.5185 -0.0311
16715W        W32524   3.156   1.142   3.986 -0.1015  0.2042  0.0928
16716W        W32525   7.668  12.891   3.518  0.0518 -0.0257 -0.1131
16717W        W32526  11.263   3.610  13.815  0.0402  0.1862 -0.1593
16718W        W32527  17.462   1.735  14.146  0.4494 -0.2791  0.0452
16719W        W32528  17.208   3.496   1.119  0.0951  0.0595  0.1528
16720W        W32529  15.810   5.899   2.744 -0.1055 -0.3611 -0.0610
16721W        W32530  12.193  18.719  11.343 -0.0052  0.2366 -0.2939
16722W        W32531  11.965   6.498   2.792  0.0766 -0.0012 -0.1675
16723W        W32532  13.402  13.205  13.124 -0.4815  0.1267 -0.1231
16724W        W32533  15.263  11.070   4.272  0.1997 -0.3720  0.0222
16725W        W32534  16.619  15.392   4.576  0.0754 -0.3967  0.0931
16726W        W32535   6.265  13.401  12.059 -0.1534  0.2167  0.1942
16727W        W32536   3.763   2.484   2.381 -0.0194 -0.0141  0.0053
16728W        W32537  11.600   0.961  14.743  0.4051  0.2568  0.0094
16729W        W32538  13.850   3.751  11.552 -0.0009  0.0802  0.0100
16730W        W32539   4.734  16.976  12.113  0.0863  0.2122  0.1434
16731W        W32540   9.534   2.210   5.048  0.0816  0.2596 -0.2711
16732W        W32541   4.888   9.153   2.689  0.1008 -0.1046 -0.2312
16733W        W32542  17.364   4.599   4.954 -0.3814 -0.1054  0.1798
16734W        W32543  10.765   5.942  14.648  0.3111 -0.0057  0.1517
16735W        W32544  18.126   4.005   4.522  0.2592  0.0593 -0.1077
16736W        W32545   5.316  11.031   4.925  0.1372 -0.1383 -0.0505
16737W        W32546   3.567  15.400  10.367  0.0459  0.0095  0.1569
16738W        W32547  18.302  16.628  14.550 -0.2674  0.0328 -0.1125
16739W        W32548   0.476   4.134   0.610  0.1130 -0.2306  0.1136
16740W        W32549   4.310   0.217  14.360 -0.0394 -0.0324 -0.0278
16741W        W32550  17.406  12.367  10.376 -0.2228 -0.0117 -0.1656
16742W        W32551  16.736  18.413   4.957  0.1453 -0.0412  0.1430
16743W        W32552   5.189   5.334  13.386 -0.2330 -0.1833 -0.0758
16744W        W32553  17.537   5.150  11.605 -0.1431  0.3829  0.2310
16745W        W32554   0.196   2.560  14.315 -0.1102 -0.0778 -0.1187
16746W        W32555   2.567   2.023   4.701 -0.4202  0.2975  0.2383
16747W        W32556   6.539  18.440   2.765  0.1381 -0.1032  0.0808
16748W        W32557  16.971  14.223   3.147  0.1120 -0.2444 -0.0327
16749W        W32558  18.510  14.731  14.344 -0.1182  0.1230  0.0735
16750W        W32559  17.471   5.455   0.936 -0.1087  0.0239  0.1876
16751W        W32560   4.568  13.649  13.758  0.0203 -0.3797  0.1751
16752W        W32561   9.505   7.103  12.257 -0.0034 -0.1233  0.1197
16753W        W32562  18.613   1.721   3.104  0.2285 -0.1821  0.1569
16754W        W32563  11.452   6.097  13.646  0.1525 -0.3753 -0.1560
16755W        W32564   2.926   1.837  14.833  0.0263 -0.2660 -0.2849
16756W        W32565   1.937   2.004   4.632  0.0406  0.1418  0.1901
16757W        W32566  17.927  17.130  10.282 -0.1709  0.1030 -0.1764
16758W        W32567  18.672   1.439   4.776  0.0589  0.3146 -0.0447
16759W        W32568   2.238  10.078  13.710 -0.0875  0.1341  0.0503
16760W        W32569   3.237   7.330   0.920  0.2363 -0.2704  0.3966
16761W        W32570  12.107  15.331   1.789 -0.1520  0.2730  0.4012
16762W        W32571   0.497   5.804  13.901 -0.0998 -0.1644  0.0957
16763W        W32572   2.397   5.440  14.315  0.0283 -0.2748 -0.0478
16764W        W32573   8.785   4.310   3.034 -0.0653  0.1200 -0.3823
16765W        W32574  16.206   2.279   4.329 -0.0395 -0.0052 -0.0988
16766W        W32575  16.816   6.873   4.167 -0.0955  0.0522 -0.0226
16767W        W32576  13.428   8.852  13.421  0.0305 -0.1344 -0.2627
16768W        W32577   6.952  10.069  13.419 -0.2579 -0.3022 -0.0712
16769W        W32578  11.332   9.057  14.481 -0.1587 -0.1518 -0.0274
16770W        W32579   8.035  12.656  11.131  0.0727  0.0579  0.1120
16771W        W32580  12.447  15.466   3.125  0.1621  0.2861 -0.2228
16772W        W32581   3.838   2.057  15.210  0.3439 -0.0205  0.0059
16773W        W32582   2.382  16.605  13.245  0.3214 -0.1287 -0.0196
16774W        W32583   1.929   8.633  10.406 -0.0713 -0.0373  0.1803
16775W        W32584   2.808  11.655   3.364  0.3935 -0.0006  0.1749
16776W        W32585  14.193  16.192  14.631  0.0553  0.1449  0.0076
16777W        W32586  18.476   6.143  11.715 -0.0326 -0.1897 -0.0294
16778W        W32587  13.741  12.761  14.756 -0.4762  0.2378 -0.0287
16779W        W32588  11.697   1.373  13.853 -0.2742  0.1042 -0.0451
16780W        W32589   0.498  17.724   0.526 -0.0662 -0.0600 -0.0429
16781W        W32590   2.825  16.106  11.669 -0.0105 -0.1574  0.3038
16782W        W32591  13.338  13.492  12.292 -0.1473 -0.3905  0.0928
16783W        W32592   0.397   7.070  10.038  0.2056 -0.0126 -0.1746
16784W        W32593  17.651  13.144   4.697 -0.2300 -0.0906 -0.3738
16785W        W32594  13.322   5.263   0.436 -0.2712 -0.1387 -0.3091
16786W        W32595   0.655  15.253  15.207  0.0827 -0.0826  0.0965
16787W        W32596   0.236  16.332  10.119  0.1179 -0.0582 -0.5005
16788W        W32597   5.228   9.147  13.422  0.1231  0.6039 -0.0276
16789W        W32598  10.522   2.953  12.829 -0.2183  0.1090  0.2720
16790W        W32599  11.674  19.125  13.442  0.1197 -0.1365 -0.2730
16791W        W32600   4.355   2.024   4.976 -0.0454 -0.0587 -0.0428
16792W        W32601   4.449   7.533  13.382  0.1374  0.0126 -0.0532
16793W        W32602   9.318  17.360   2.230 -0.1803  0.0849 -0.2036
16794W        W32603  17.401  18.586  13.723 -0.1597  0.1701  0.1107
16795W        W32604   2.942   0.887  12.200 -0.1510 -0.1428  0.1582
16796W        W32605  15.755   3.175  11.830 -0.0146  0.2307  0.2254
16797W        W32606  13.881   1.068   1.464 -0.1291 -0.3153 -0.0143
16798W        W32607  13.584  13.724  13.791  0.1134  0.1694  0.0048
16799W        W32608  17.536  10.072   4.811 -0.0943  0.4457 -0.1283
16800W        W32609   6.956  17.095   3.320 -0.1120 -0.1235  0.0932
16801W        W32610  15.585   2.726   0.747 -0.1396 -0.1069 -0.1426
16802W        W32611  15.674   0.506  10.344  0.4224  0.3443  0.3184
16803W        W32612  14.809  14.297  12.835 -0.2034  0.2181  0.0087
16804W        W32613   9.474   5.831   4.161  0.2976  0.0634  0.1717
16805W        W32614   7.081  14.640   2.713  0.4015 -0.1605 -0.3872
16806W        W32615  15.982   3.527  10.919  0.0697 -0.0172  0.0658
16807W        W32616  17.254  15.999  11.453 -0.1245  0.0982 -0.2132
16808W        W32617   4.716  14.085  10.853  0.0795 -0.2244 -0.2322
16809W        W32618   9.817  15.373  11.809 -0.0051  0.0877  0.3348
16810W        W32619  12.890   8.317   5.096  0.4017  0.0350 -0.0627
16811W        W32620   3.013  17.052  11.618  0.2227 -0.0972  0.1470
16812W        W32621   5.644  17.884  13.689 -0.2394 -0.0981  0.2925
16813W        W32622   2.498  19.100   5.368  0.2874 -0.1305 -0.1777
16814W        W32623   2.947   2.777  13.780 -0.1090  0.2208 -0.1096
16815W        W32624  10.318  16.339  13.054  0.1256 -0.1075  0.0616
16816W        W32625   7.158  18.093   1.045 -0.1584 -0.1170  0.0708
16817W        W32626  16.941  18.188  12.926 -0.3420  0.1993 -0.1281
16818W        W32627   3.482   2.825   2.713  0.3288  0.1163  0.4263
16819W        W32628  18.679  15.971  14.962  0.3071  0.3366 -0.0015
16820W        W32629   5.860   4.134   5.273 -0.0536 -0.1724  0.1357
16821W        W32630   8.051   7.300  13.654 -0.2077  0.1361  0.0281
16822W        W32631  16.946  15.254   4.990  0.0677  0.2961 -0.0763
16823W        W32632   2.770   0.429   3.984  0.2636  0.1214  0.1182
16824W        W32633   1.416   0.362  11.309  0.1983 -0.1318  0.0573
16825W        W32634   6.611   2.905   0.096  0.0238 -0.1883  0.0059
16826W        W32635  19.057  12.790  13.779  0.0632  0.0805 -0.0879
16827W        W32636  16.187  11.782   3.070 -0.1757  0.2311 -0.0247
16828W        W32637   1.088   2.282  13.136 -0.2011 -0.0316 -0.1038
16829W        W32638  14.225  15.796  15.098 -0.1341  0.4138  0.3854
16830W        W32639   1.027  14.679  12.390  0.0512  0.2686  0.2562
16831W        W32640  18.347   3.989  11.316  0.2833 -0.0804  0.1949
16832W        W32641  13.937   6.939   0.719 -0.1066 -0.0498  0.0872
16833W        W32642  10.159   6.691  11.810  0.2518 -0.0571 -0.1366
16834W        W32643  18.047   6.376   0.753  0.4504  0.2630  0.0297
16835W        W32644  12.315   1.402   0.456  0.1250  0.2105  0.1679
16836W        W32645   9.940  16.977  14.235 -0.1085  0.5847  0.3550
16837W        W32646  15.505   8.346   0.640 -0.1976 -0.0029 -0.0640
16838W        W32647  18.886   8.746  14.993  0.0221  0.3966  0.0945
16839W        W32648  10.198  14.213   3.775 -0.0689 -0.0456  0.2286
16840W        W32649   0.480  14.146  14.557  0.2426 -0.4196  0.2644
16841W        W32650   7.015   5.917   0.102  0.0904  0.1428 -0.1927
16842W        W32651  18.846  16.287   4.312  0.1893 -0.2560 -0.0785
16843W        W32652   6.393  13.749   0.185 -0.1277 -0.0247 -0.0122
16844W        W32653  12.174   8.298   0.151  0.0043  0.1916 -0.1447
16845W        W32654  10.085  13.393  14.240 -0.0329 -0.0943  0.1273
16846W        W32655  17.701  11.713   1.278  0.0921 -0.2137  0.0364
16847W        W32656   0.489   0.771  13.543 -0.1402 -0.2310  0.0397
16848W        W32657  13.672  16.371   4.870  0.3711 -0.0375  0.1054
16849W        W32658  17.519   1.310  13.236 -0.0472  0.2435 -0.2395
16850W        W32659   7.614  11.527  14.807 -0.2738  0.0331 -0.1324
16851W        W32660   9.317  15.426   1.588 -0.1566 -0.1001  0.4837
16852W        W32661  13.461   4.040   1.129 -0.0129  0.0991 -0.0899
16853W        W32662   7.116  10.688   2.432 -0.2329 -0.5390 -0.2741
16854W        W32663   9.242  10.563   5.632 -0.0872  0.1243 -0.2880
16855W        W32664   5.334   6.987  10.676 -0.2886  0.1924  0.0594
16856W        W32665   7.938  14.461   4.538  0.0072 -0.3451 -0.2049
16857W        W32666  16.432   8.620   2.635  0.2052 -0.2294  0.1958
16858W        W32667   7.174  10.073  12.916  0.4023 -0.1295  0.0923
16859W        W32668  14.186  11.355   1.176 -0.3619 -0.1748  0.0988
16860W        W32669   9.780  19.105   2.249  0.1251  0.0689  0.1029
16861W        W32670   8.884  13.369   2.611 -0.2684 -0.0791 -0.2899
16862W        W32671   6.138   5.177   0.730 -0.2010 -0.2091 -0.0663
16863W        W32672   4.348   5.664   2.058  0.2775  0.4219 -0.3359
16864W        W32673  10.678   9.353   0.260 -0.0298 -0.1720 -0.2167
16865W        W32674   6.325  10.979  12.682 -0.1915  0.0799 -0.0625
16866W        W32675   6.109  13.517  11.554  0.2092 -0.0390 -0.0140
16867W        W32676  13.777  10.794  11.843 -0.1051  0.3747  0.1704
16868W        W32677   9.440  12.898   9.627  0.1699  0.0957  0.0571
16869W        W32678  19.145  11.002   5.874 -0.0414  0.0385  0.1353
16870W        W32679   5.505  12.043   2.106 -0.2331  0.0413  0.0488
16871W        W32680   3.719   0.588   5.362 -0.0378  0.1522  0.0027
16872W        W32681  15.006   5.197   0.362  0.0774 -0.1542 -0.2268
16873W        W32682   1.023  10.121   4.514 -0.2185 -0.2153 -0.3069
16874W        W32683   6.061   7.069   1.677  0.0124 -0.0827 -0.2107
16875W        W32684  17.674   3.619   3.866  0.2399 -0.0109  0.1034
16876W        W32685  11.400   4.956  10.500  0.0415  0.3415  0.3044
16877W        W32686   6.596   6.915  14.696  0.0436 -0.2207 -0.0836
16878W        W32687   3.075   0.612   4.443  0.0092 -0.1301 -0.2292
16879W        W32688   3.058   3.785  11.326 -0.2657  0.2174 -0.0544
16880W        W32689   4.178  17.667  12.447 -0.1600  0.0895  0.0808
16881W        W32690  12.655  13.361   1.323 -0.2313 -0.3032 -0.0616
16882W        W32691   3.402   9.460  12.670  0.1997  0.0032  0.4324
16883W        W32692  17.172   3.209  11.363  0.0489 -0.0348  0.2443
16884W        W32693   9.729  17.754  11.245 -0.0187  0.2426 -0.1656
16885W        W32694   3.901  16.275   2.139  0.2205  0.0040 -0.0576
16886W        W32695   8.817  18.141   2.475 -0.1781  0.0937 -0.0621
16887W        W32696  11.409  18.023   1.309  0.2929 -0.0397  0.1597
16888W        W32697   0.389   4.453  14.768  0.0756 -0.0372  0.2515
16889W        W32698  13.063   6.934  11.202  0.1622 -0.4992 -0.0028
16890W        W32699   6.410  13.597   5.045 -0.2652  0.0272 -0.2419
16891W        W32700  16.788   5.882  13.905 -0.3787 -0.0886 -0.0931
16892W        W32701   8.722   9.701   2.269 -0.0571 -0.0828  0.1913
16893W        W32702  12.345  10.578  13.461  0.0839  0.1582 -0.1282
16894W        W32703   5.501   2.594  13.236 -0.1001  0.2509 -0.1540
16895W        W32704  15.235   9.852   2.149 -0.3196  0.2463  0.0081
16896W        W32705   7.766   0.563  10.788  0.1127 -0.2550 -0.0551
16897W        W32706   2.738   6.606  14.772 -0.2657  0.1299 -0.0993
16898W        W32707   8.487   5.666   9.911  0.2545 -0.0095 -0.3076
16899W        W32708  12.079   3.879  11.112  0.0967 -0.2466  0.0004
16900W        W32709   2.749  13.120  11.571 -0.1782  0.2606 -0.0040
16901W        W32710  10.193  12.334   0.447 -0.2063 -0.0655 -0.2367
16902W        W32711   6.744  15.870  15.162  0.0172  0.0552 -0.0907
16903W        W32712   3.948   7.309   1.956 -0.0721 -0.4824 -0.1757
16904W        W32713   0.025   2.867   1.466 -0.2806 -0.1305 -0.1137
16905W        W32714   4.937  16.505   0.117  0.5708  0.0949  0.0112
16906W        W32715  15.197   7.420   2.564  0.3581 -0.1446 -0.1467
16907W        W32716   5.259   4.519   1.628  0.1925 -0.1162  0.2078
16908W        W32717  15.955  15.086   2.917 -0.3357 -0.0640 -0.0633
16909W        W32718  17.739   4.305   2.837  0.0422  0.0124 -0.0534
16910W        W32719   2.432   6.644   0.540  0.3291  0.1833  0.0203
16911W        W32720  15.578   9.601  13.970  0.2120  0.0154  0.5208
16912W        W32721  13.592   4.909  11.612 -0.1172 -0.4810  0.0522
16913W        W32722   9.118  16.357   4.419  0.0609  0.2176  0.0309
16914W        W32723   9.247  14.816  12.733 -0.0421  0.0338 -0.2336
16915W        W32724   0.847   4.409  13.220  0.1132  0.0008 -0.0538
16916W        W32725   9.658  10.595   2.267  0.0955  0.0410  0.2047
16917W        W32726  17.894  12.446  14.994  0.2316  0.0771 -0.2242
16918W        W32727  17.852   3.156  14.503  0.0097 -0.2367 -0.0448
16919W        W32728   1.527   0.370  15.171 -0.1836  0.0480 -0.0571
16920W        W32729  11.149   4.965  14.948  0.0009  0.1659 -0.5816
16921W        W32730  14.004  15.135   3.967  0.1269 -0.1231  0.0879
16922W        W32731   6.819   9.747   4.165 -0.2769 -0.1962 -0.0287
16923W        W32732   9.728   9.094   0.672  0.1891  0.0181  0.2411
16924W        W32733   0.383  15.922   4.818  0.3703  0.0661  0.3299
16925W        W32734   6.179  11.815  11.770  0.0237 -0.4827 -0.1649
16926W        W32735   0.282  16.013   1.713 -0.1173  0.1983 -0.1685
16927W        W32736   1.198   2.539  14.159 -0.1435  0.1888 -0.2392
16928W        W32737   5.567  17.442   3.737  0.0149  0.1523  0.0395
16929W        W32738   1.599   8.144  13.552 -0.0603  0.2893  0.1794
16930W        W32739  16.248  17.500  13.278  0.2083  0.1711  0.1597
16931W        W32740   3.610  11.000   2.744 -0.1361  0.0510  0.0113
16932W        W32741  17.797   7.324  13.198 -0.0362 -0.0987  0.4099
16933W        W32742   1.278   1.764   2.345  0.0198  0.2786 -0.1029
16934W        W32743   7.601   3.863  12.453  0.0773  0.3213  0.2276
16935W        W32744   1.694   2.480   4.536 -0.1468  0.4238  0.4014
16936W        W32745   9.727  15.117  15.167  0.1672 -0.1792 -0.2674
16937W        W32746  14.272   9.946   3.504  0.0409 -0.1281  0.2900
16938W        W32747   3.811  15.422   1.245  0.0965 -0.1571 -0.0856
16939W        W32748   4.891  12.942  13.044  0.1725  0.1758 -0.1559
16940W        W32749   5.458   1.523  11.403  0.1419 -0.0973  0.1583
16941W        W32750  14.096  18.720  13.625  0.0634 -0.0146 -0.0590
16942W        W32751   1.343  15.978  13.876  0.0879  0.1757  0.0012
16943W        W32752  13.037   7.327  11.664  0.1468 -0.0608  0.0129
16944W        W32753   6.239   0.685   3.516  0.2621 -0.0267 -0.0841
16945W        W32754  15.497  10.933  14.856  0.1198 -0.2084  0.0484
16946W        W32755  12.900   3.533   0.621  0.0614  0.1468  0.0153
16947W        W32756  17.184  15.647  11.041 -0.1859 -0.0835  0.2414
16948W        W32757  16.547  18.332   5.809 -0.5027 -0.3059 -0.2018
16949W        W32758  14.539  18.978  15.070  0.1621 -0.1229  0.1397
16950W        W32759   0.666  15.548  13.929 -0.1299 -0.1991 -0.0886
16951W        W32760  11.417  11.035   0.251  0.2180  0.1113 -0.3629
16952W        W32761   5.470  11.465  12.900  0.0075  0.0023  0.5068
16953W        W32762  16.448  12.055   4.483 -0.1083  0.0921 -0.0130
16954W        W32763   4.676  15.890   5.019  0.3237 -0.3006  0.0011
16955W        W32764   0.279   3.163   1.853  0.0045  0.3669 -0.0152
16956W        W32765   1.100   0.009  12.283  0.1994 -0.0387  0.0889
16957W        W32766  17.579   3.756  12.132 -0.0379 -0.1970  0.1254
16958W        W32767  12.518   4.614  14.865  0.1134 -0.2221 -0.3995
16959W        W32768   2.834   5.855   2.783 -0.1981  0.3668  0.2137
16960W        W32769  16.434  10.388   0.079  0.0628 -0.2567  0.1054
16961W        W32770  15.771  11.594  14.226  0.2146 -0.2149 -0.3062
16962W        W32771   8.434   9.805  11.610  0.3725 -0.0502  0.1646
16963W        W32772   8.571   0.192   2.964  0.3906  0.0256 -0.1727
16964W        W32773   5.697   6.184  13.379  0.2336  0.0376 -0.1919
16965W        W32774  14.011   2.130   0.658 -0.0724 -0.2295 -0.1434
16966W        W32775   4.936   1.859   1.668  0.4399  0.1355 -0.2107
16967W        W32776   7.930  17.152   3.782 -0.0290  0.1734 -0.0682
16968W        W32777   8.778  16.082   2.055  0.0789 -0.4584 -0.0197
16969W        W32778  19.002   6.216   2.433 -0.0548 -0.2239 -0.0687
16970W        W32779   4.017   3.887  11.840 -0.2364 -0.0198 -0.1682
16971W        W32780   0.833   4.492  10.494 -0.1577 -0.1406 -0.2503
16972W        W32781   0.030  10.691  12.750 -0.0179  0.1213  0.5121
16973W        W32782   0.491  17.093   4.710 -0.1895  0.1674 -0.2520
16974W        W32783  15.425  18.666   1.999  0.0137  0.2366 -0.0753
16975W        W32784  11.452   5.416  10.441 -0.0014  0.1286  0.2063
16976W        W32785   6.334   3.263  10.217 -0.1088  0.2089  0.4311
16977W        W32786  12.488  16.889   5.621 -0.1956  0.2434  0.0812
16978W        W32787   2.645   7.821   1.686 -0.0876  0.2437  0.1462
16979W        W32788   6.363   7.240  13.555  0.1864 -0.1280 -0.0330
16980W        W32789  11.173   0.766   1.557  0.0145  0.3108 -0.1842
16981W        W32790  13.804   9.459   2.129  0.0183  0.2220 -0.2858
16982W        W32791   0.194   1.569  11.699  0.0921 -0.1234  0.1491
16983W        W32792  15.300  12.796  13.807 -0.1140  0.1459 -0.0624
16984W        W32793   0.149   7.659  12.723 -0.0224 -0.1464 -0.0387
16985W        W32794   1.558  18.845  10.550  0.0345 -0.1325  0.1162
16986W        W32795  11.091   8.235   4.046  0.0720  0.3718  0.1022
16987W        W32796   9.163   9.370  13.457  0.0051  0.2802 -0.0266
16988W        W32797   0.770  16.018  12.602  0.2849  0.2878 -0.2579
16989W        W32798   7.261  16.549   4.707  0.0297  0.0745  0.1494
16990W        W32799   5.773   8.675   2.108 -0.0180 -0.1207  0.5068
16991W        W32800   4.820  18.656   0.087 -0.0427  0.2420 -0.1959
16992W        W32801  17.324  14.089   2.159  0.1623  0.2873  0.0646
16993W        W32802   5.745   0.800  14.359  0.1955  0.1265  0.0859
16994W        W32803   4.349   8.246   1.993  0.4242  0.1710 -0.1771
16995W        W32804   2.023   1.180   2.701  0.0530  0.0706  0.2011
16996W        W32805  11.124  10.259  13.620 -0.1226  0.1797 -0.0502
16997W        W32806  15.347  15.739  15.212  0.2114 -0.2077  0.0240
16998W        W32807  10.653  11.540  11.936 -0.0098  0.1586  0.1711
16999W        W32808   9.187   3.940  11.908  0.0002 -0.1244  0.0589
17000W        W32809   3.103   3.141   2.594  0.2214  0.1034  0.3909
17001W        W32810   4.658   3.402   3.695 -0.2567 -0.0613  0.4871
17002W        W32811   3.661   6.592  12.464  0.1646 -0.1927  0.0586
17003W        W32812   7.177   9.890  12.172 -0.0572 -0.4706  0.1768
17004W        W32813   6.362   1.309   1.679  0.0410  0.1127  0.0743
17005W        W32814  13.280   4.173   4.290 -0.0304  0.2689  0.2879
17006W        W32815   5.884  16.183  15.093  0.3689 -0.1995 -0.0987
17007W        W32816   6.439   1.518   4.338 -0.2896  0.2356 -0.0105
17008W        W32817  17.129   5.090   0.526  0.0943 -0.0911  0.0418
17009W        W32818  16.765   0.901   4.132  0.1675  0.1216  0.0398
17010W        W32819   8.497   4.874  12.836 -0.0158  0.0717  0.0825
17011W        W32820  17.500  11.504  12.091  0.0048  0.1133 -0.0251
17012W        W32821   5.819   4.704  10.709  0.1027 -0.0776 -0.0414
17013W        W32822   1.399  16.277  11.368  0.0571 -0.1794 -0.3629
17014W        W32823   9.620   4.585  11.146  0.4939  0.2568  0.2860
17015W        W32824  18.793  17.804  15.011 -0.0907 -0.1078  0.4348
17016W        W32825   1.453   4.796  14.593  0.2940  0.3068  0.3739
17017W        W32826   5.514  17.837   0.101  0.3604 -0.1358 -0.0214
17018W        W32827  17.544   9.775   4.309 -0.1105 -0.0863 -0.2514
17019W        W32828  10.946  14.062   1.998 -0.0946 -0.0008 -0.1565
17020W        W32829  16.979   6.842   3.634 -0.0984 -0.0354 -0.3220
17021W        W32830   0.663   0.171  11.413  0.1292  0.1538  0.0177
17022W        W32831  10.274   9.048   1.291  0.0798 -0.3580  0.0818
17023W        W32832   3.280   5.869  12.770  0.3872  0.0416  0.1914
17024W        W32833   8.229  11.036  11.622 -0.1157  0.1854 -0.1784
17025W        W32834  16.190   5.952   1.748  0.0268  0.1003 -0.1192
17026W        W32835  11.441   3.065  13.753 -0.4281  0.0529 -0.1542
17027W        W32836  13.050  13.415  12.680  0.3528  0.1351 -0.0487
17028W        W32837   6.257  13.069   5.213  0.4726  0.1900  0.0277
17029W        W32838   1.311   7.350   1.980  0.1178  0.0398  0.0879
17030W        W32839  12.075   5.230   0.207 -0.0020  0.1114  0.4245
17031W        W32840   0.794   9.265   3.243 -0.0926  0.1190  0.2534
17032W        W32841  17.116   1.531   1.952  0.1139 -0.3999  0.2073
17033W        W32842   5.169   0.157  10.542  0.2137  0.2882  0.0831
17034W        W32843  14.418   4.396  10.328  0.1417  0.0215  0.0817
17035W        W32844  13.566  12.069  12.388  0.0332 -0.2882  0.0365
17036W        W32845  12.669  13.071  12.567  0.1584 -0.2659 -0.4365
17037W        W32846   7.370  19.064  11.956 -0.1684 -0.0528 -0.1492
17038W        W32847  12.894   1.785  12.534  0.2552 -0.1118  0.0815
17039W        W32848  12.150  11.355  11.602 -0.0027 -0.4599  0.3340
17040W        W32849   9.265  15.655  12.530 -0.2803  0.1055 -0.2706
17041W        W32850  11.249   4.760   2.625  0.0021  0.2909 -0.4025
17042W        W32851   9.994  13.405   0.003  0.1270  0.1367 -0.5078
17043W        W32852   5.721  18.726  14.209 -0.0019  0.0441  0.1603
17044W        W32853   1.422  18.127   2.991  0.5175 -0.2040 -0.2504
17045W        W32854  15.257   4.970  12.225  0.2937 -0.3214 -0.1412
17046W        W32855  18.668  13.714  14.732 -0.0491 -0.1699 -0.0249
17047W        W32856   4.159   0.983  13.170 -0.1377  0.2127  0.2191
17048W        W32857  16.620  11.804  13.400 -0.1740  0.0901 -0.2315
17049W        W32858  11.344   7.548   2.680 -0.1337  0.0133  0.2781
17050W        W32859   8.872  15.421   0.070  0.0570 -0.1073  0.3070
17051W        W32860  12.633   8.950  15.067 -0.3486 -0.3419 -0.1341
17052W        W32861   7.826  14.598  13.409 -0.2138 -0.1537  0.0652
17053W        W32862   6.261  11.504  12.554 -0.0244  0.0331 -0.2019
17054W        W32863  11.627   0.579   3.513 -0.3605 -0.3315 -0.0526
17055W        W32864  17.448   6.934   3.386 -0.2836  0.0086 -0.2336
17056W        W32865  10.610   7.621   1.042  0.0602 -0.2600 -0.2175
17057W        W32866  15.623   4.853  10.506  0.1053  0.2629 -0.1140
17058W        W32867  10.183   5.218   0.095 -0.4820 -0.1316 -0.1023
17059W        W32868  19.079   0.561   2.738 -0.0027 -0.1690  0.0741
17060W        W32869   4.343   1.816  14.640  0.1516 -0.2234  0.3789
17061W        W32870   6.550   4.479   0.613 -0.1284  0.0790  0.2099
17062W        W32871   4.960   6.220  12.471 -0.1130 -0.2560 -0.3097
17063W        W32872  18.551  16.719   5.143 -0.1299  0.0974 -0.0365
17064W        W32873  16.090   0.356   2.780 -0.2262  0.1802 -0.0206
17065W        W32874  15.068  16.392  11.570  0.2093 -0.2451 -0.0409
17066W        W32875   9.892   8.252  10.920  0.1633  0.1265 -0.0160
17067W        W32876   4.567  10.221   2.068  0.0792  0.0900  0.2321
17068W        W32877  16.598   4.167   1.100  0.1753  0.0924 -0.0982
17069W        W32878  10.388   8.397   1.495  0.4160  0.0005  0.0304
17070W        W32879   1.670  18.613   1.254 -0.1643 -0.1775 -0.0883
17071W        W32880  15.909   3.807  11.637  0.0819  0.2621  0.0692
17072W        W32881  11.973  15.830   5.679 -0.0662  0.1162  0.0238
17073W        W32882   5.090  18.911   4.856  0.3442 -0.1343  0.0283
17074W        W32883  17.404  13.920   3.476 -0.1906  0.0522  0.2270
17075W        W32884  18.930   8.579   2.687  0.3539  0.0048 -0.0123
17076W        W32885  16.165  10.197  14.881 -0.0713  0.1700  0.0261
17077W        W32886   7.526   0.539  14.778  0.0062  0.3298 -0.0074
17078W        W32887   4.705   6.922   4.969 -0.1996  0.4070  0.1670
17079W        W32888   7.705  10.161   0.224 -0.0101 -0.1708 -0.1601
17080W        W32889   5.017  17.064   3.163  0.2851  0.1378  0.2790
17081W        W32890   2.829  17.235  12.069 -0.0838  0.1870 -0.1080
17082W        W32891   0.553  12.006  14.992 -0.2432 -0.2588  0.0337
17083W        W32892   0.668  17.823  11.293 -0.0779 -0.0950 -0.0745
17084W        W32893  14.346   4.561  12.818 -0.0987  0.1106 -0.0485
17085W        W32894   4.916   7.271   4.063  0.0804  0.1325  0.0580
17086W        W32895   8.467   9.363  10.363 -0.0319 -0.0310 -0.0120
17087W        W32896   5.975   8.794   0.340 -0.0824 -0.0213 -0.1865
17088W        W32897   4.566  13.711  13.273  0.2872 -0.1603  0.2841
17089W        W32898  15.005   8.018  13.697  0.2316  0.0254  0.1165
17090W        W32899   3.956  12.869   4.056 -0.0210 -0.1921  0.1553
17091W        W32900  11.533  12.809  10.766 -0.0025  0.1969  0.0400
17092W        W32901   0.406   4.664   3.418  0.0344  0.1986 -0.3312
17093W        W32902  15.138   2.837   0.376 -0.1389  0.4094  0.2549
17094W        W32903  15.158   4.287   3.233 -0.1934 -0.0734  0.1758
17095W        W32904   3.750   7.819  12.177 -0.1921  0.0655 -0.1626
17096W        W32905   9.487   5.433   3.639  0.3085 -0.2035 -0.2109
17097W        W32906   8.500   3.345  14.829  0.1719 -0.2044 -0.0177
17098W        W32907   3.875   2.065  13.276  0.0594 -0.2077  0.1108
17099W        W32908  10.892   7.758  14.272 -0.0347  0.0388  0.2195
17100W        W32909  10.338  10.829   1.842  0.0666 -0.3180 -0.0906
17101W        W32910   6.403  14.318   4.191  0.0871  0.1028  0.1549
17102W        W32911   2.074   1.900  10.794  0.1405 -0.1593  0.1536
17103W        W32912   0.475  11.456  11.250 -0.0886  0.2214  0.3762
17104W        W32913   8.889  18.316   0.412  0.1478 -0.0047  0.1593
17105W        W32914  14.612  14.646   2.250 -0.0110  0.1582  0.1498
17106W        W32915  19.025   3.924   3.377 -0.5182  0.0502 -0.3590
17107W        W32916   9.089   5.464  10.678 -0.0872 -0.0531 -0.0384
17108W        W32917   9.914   7.456  12.153 -0.1443  0.0486  0.2857
17109W        W32918   4.535  11.115   0.019  0.1325  0.1385 -0.1133
17110W        W32919   8.620   2.999   2.872  0.4701 -0.1166 -0.1148
17111W        W32920   4.058  16.584  12.964  0.0594  0.2659  0.0994
17112W        W32921   6.745   0.771   5.660  0.1052 -0.2057 -0.2411
17113W        W32922   2.794   3.356   3.078 -0.0716  0.2263  0.1142
17114W        W32923  12.880  15.732   4.031 -0.0614 -0.0462  0.0334
17115W        W32924   2.045  14.390  11.481  0.0317  0.4427  0.2122
17116W        W32925   7.392  15.855   0.465  0.0679  0.3942 -0.1577
17117W        W32926  11.993  18.502   2.910 -0.1995 -0.1118  0.4140
17118W        W32927  15.885   8.845  15.073 -0.0837 -0.0303 -0.5313
17119W        W32928  18.364  14.443   1.566  0.0247  0.0532  0.1747
17120W        W32929   4.439   3.678   3.301  0.1848 -0.1462  0.1464
17121W        W32930  16.546   0.921  11.737 -0.2585 -0.0263 -0.0616
17122W        W32931  15.361  18.879  13.061 -0.2084 -0.0791  0.1009
17123W        W32932   2.112   6.410  11.310 -0.0874  0.1918 -0.0868
17124W        W32933  11.733  10.536  14.229 -0.1996  0.1411  0.1797
17125W        W32934  17.079  13.501   1.095 -0.0523 -0.3197  0.1735
17126W        W32935   1.511   4.636  14.120  0.2043  0.3001  0.0570
17127W        W32936   8.091  17.595   2.823 -0.4662  0.3747  0.2011
17128W        W32937   2.139  14.827  12.793  0.1189  0.1543 -0.0018
17129W        W32938   9.565   5.145   0.238 -0.3103 -0.1536  0.3565
17130W        W32939  11.543  15.929  10.670 -0.0351  0.2170  0.2295
17131W        W32940   0.715  14.232  12.254  0.2146 -0.0000  0.1315
17132W        W32941   2.679  18.837  10.509  0.1109  0.0021  0.1600
17133W        W32942   5.402   6.490  11.386  0.1990 -0.1356  0.2016
17134W        W32943  13.138  16.403   4.983  0.1049 -0.3300 -0.0976
17135W        W32944  18.067  18.311  13.016  0.1810 -0.1648  0.2930
17136W        W32945   8.830   1.072   2.823  0.0695  0.0679 -0.2431
17137W        W32946  13.789  13.197   2.572  0.3448 -0.1238 -0.0298
17138W        W32947   8.274  16.420  14.683 -0.1582 -0.3697  0.1782
17139W        W32948  18.924   8.088  10.340  0.1659  0.0433 -0.2855
17140W        W32949   5.847   6.835  14.006 -0.4595  0.0426  0.1496
17141W        W32950   4.385   9.189  14.461  0.1991 -0.2403  0.0303
17142W        W32951   8.987  14.850   0.075  0.0378  0.2156 -0.1201
17143W        W32952  13.574   5.013  14.134 -0.0175 -0.1490 -0.0262
17144W        W32953  18.287   5.003   2.641  0.4792 -0.4109  0.1820
17145W        W32954  11.381   6.348  11.985  0.0284 -0.1196  0.2212
17146W        W32955   6.328  16.165  14.864 -0.0366  0.2196 -0.1838
17147W        W32956   0.203   7.695  14.280 -0.2336 -0.2706 -0.2090
17148W        W32957  10.184   0.310  13.877  0.0281  0.0793 -0.1034
17149W        W32958   0.263  16.911  11.396 -0.1257 -0.2703 -0.0306
17150W        W32959   2.699  16.121   2.883  0.1383 -0.1729 -0.4882
17151W        W32960  14.127   3.348  13.151  0.3770 -0.0795  0.4827
17152W        W32961   3.171  16.427  12.839 -0.1535 -0.1411 -0.4452
17153W        W32962   0.739   3.508   0.655  0.0062 -0.2772  0.1311
17154W        W32963   9.553   2.369   0.020 -0.0103  0.0144 -0.0437
17155W        W32964  15.137  15.904   0.389 -0.2765  0.1793  0.2358
17156W        W32965   5.318   3.479   3.046 -0.2447  0.1328 -0.1241
17157W        W32966  17.234  17.458   5.067  0.4426  0.0017  0.2251
17158W        W32967   0.922   9.348  12.384  0.1097 -0.2306  0.2164
17159W        W32968   9.300  14.885   1.689  0.0669 -0.1921 -0.1358
17160W        W32969   6.596   9.374   2.789  0.1206 -0.0864  0.0501
17161W        W32970  15.664  12.799  10.491  0.1494  0.3618 -0.1300
17162W        W32971   4.336   8.480   3.140 -0.2867  0.0071  0.5624
17163W        W32972  10.393   8.109  10.982 -0.1341  0.0056  0.1424
17164W        W32973   6.237   1.049   4.048  0.0712  0.2528 -0.1611
17165W        W32974   6.186  13.856   0.619  0.1180 -0.0286  0.4230
17166W        W32975   1.147  10.125   2.120  0.1217  0.1962  0.1119
17167W        W32976   7.936  18.488  11.799 -0.0076  0.1218  0.1639
17168W        W32977  10.001  14.736  11.089 -0.0445  0.0525 -0.0694
17169W        W32978   3.439   4.114  11.819 -0.1054 -0.1748  0.0604
17170W        W32979   5.984  14.322   4.516 -0.0613 -0.1611 -0.2404
17171W        W32980   7.690   6.697   5.268  0.2503 -0.1068  0.2932
17172W        W32981  11.183  12.897  12.617 -0.0272  0.1011  0.3383
17173W        W32982   6.977   7.470  12.480  0.1362  0.0509  0.2047
17174W        W32983   7.152  14.410  14.539 -0.1058  0.0090 -0.0124
17175W        W32984   4.551  13.011  15.118  0.1791  0.2969  0.0527
17176W        W32985  17.146  17.965  14.402 -0.2488 -0.0631  0.1661
17177W        W32986  10.948   7.651   1.441 -0.1390 -0.2120  0.2018
17178W        W32987   3.224   7.831   1.925  0.0238 -0.2145 -0.0273
17179W        W32988   5.243  19.006  14.226  0.2610  0.0620 -0.1054
17180W        W32989  18.877  12.867  10.957 -0.1565  0.4561 -0.1415
17181W        W32990   1.928   4.342  10.753  0.0808  0.0499 -0.3081
17182W        W32991   1.653  13.031  14.268  0.2522 -0.1254 -0.1107
17183W        W32992   1.226  17.620  12.029 -0.2395 -0.1292 -0.1629
17184W        W32993  14.874   1.995   5.074  0.2176  0.1740  0.0670
17185W        W32994  14.646  15.691  12.399 -0.0456  0.1985 -0.0402
17186W        W32995  16.501  15.193  10.896 -0.1436  0.2159  0.0679
17187W        W32996   4.905  17.489  11.075 -0.1046  0.0561 -0.1400
17188W        W32997   0.618  15.278   4.840  0.5280  0.0817  0.0407
17189W        W32998   7.646  12.641  13.673  0.0173 -0.0194 -0.2454
17190W        W32999  13.799  10.771   0.141 -0.3059 -0.1086  0.0748
17191W        W33000   0.843  17.328  14.858  0.1708 -0.0691 -0.3073
17192W        W33001  15.696  18.227  12.829 -0.1994  0.1903  0.0976
17193W        W33002   9.306  16.424   1.169 -0.2616 -0.1178 -0.2087
17194W        W33003  15.178  15.281  14.076 -0.1491 -0.0570  0.1709
17195W        W33004  12.742   8.431  12.055  0.0415 -0.0666  0.1831
17196W        W33005  12.602   8.527  10.722  0.0158  0.2449 -0.1786
17197W        W33006  10.570   9.601   1.617  0.1768 -0.0065  0.2694
17198W        W33007  10.101  18.954   2.625  0.0295  0.0722 -0.2807
17199W        W33008   9.780  12.070  14.909 -0.0378  0.3670 -0.0908
17200W        W33009  13.615  14.649   4.673  0.1838  0.0916  0.0416
17201W        W33010   6.840   1.752  11.972 -0.2321  0.1184  0.0125
17202W        W33011  12.425   3.519  10.986 -0.0569 -0.3944 -0.1822
17203W        W33012  14.883  13.842  13.170 -0.0881  0.1717 -0.3895
17204W        W33013  14.071   3.233   2.820 -0.1229  0.2401 -0.0183
17205W        W33014  19.039  18.322   0.918  0.1061 -0.4541  0.1218
17206W        W33015   7.976  10.960  12.145  0.0984  0.1185 -0.1693
17207W        W33016  18.549  17.993   5.394 -0.0609  0.3437 -0.2604
17208W        W33017  14.782  19.144  10.336 -0.0977  0.1021 -0.1539
17209W        W33018  18.886   8.951  14.153  0.1289  0.2264  0.0548
17210W        W33019  14.031  14.650  10.225 -0.1058 -0.1158 -0.1774
17211W        W33020   4.352  10.085  12.617 -0.1706 -0.1743 -0.1045
17212W        W33021  13.322  15.574  14.138  0.3259  0.0502 -0.0358
17213W        W33022   9.779   1.554   0.735  0.0240 -0.0184 -0.2608
17214W        W33023  14.068   7.570   3.157 -0.0244  0.0878  0.0889
17215W        W33024   8.928  11.244   0.094  0.0986 -0.3629 -0.0216
17216W        W33025  12.742   0.698  13.867  0.0238  0.0739 -0.1399
17217W        W33026   6.629   5.230   3.743  0.2163  0.3816 -0.0961
17218W        W33027  16.939   9.631   2.564 -0.2653 -0.1559  0.3967
17219W        W33028   6.000   8.623  13.375 -0.2334 -0.0519  0.1266
17220W        W33029   5.263  10.331  14.774  0.1298 -0.0612 -0.0034
17221W        W33030  18.534  10.594  12.107  0.2503  0.0517 -0.2757
17222W        W33031   5.720  12.511  12.266 -0.2937 -0.0356  0.2733
17223W        W33032   4.319   8.069  14.508 -0.3630 -0.1657  0.3362
17224W        W33033  16.332   8.597   0.043  0.0715 -0.0438 -0.0049
17225W        W33034  18.732  10.522  13.083  0.0969 -0.0522  0.1357
17226W        W33035  13.384   7.978   0.474 -0.1525 -0.1438  0.0225
17227W        W33036  10.526   1.257  11.102  0.2231  0.0716 -0.0731
17228W        W33037  16.364  17.096  14.020 -0.3778  0.1386  0.0453
17229W        W33038   0.887  12.504  12.110 -0.0010 -0.0110 -0.0286
17230W        W33039  10.698  19.158  13.777 -0.0793  0.0708 -0.3702
17231W        W33040   3.601  18.609  10.298  0.2517 -0.1718 -0.1667
17232W        W33041  13.044   7.082  13.464 -0.4545 -0.0549 -0.2004
17233W        W33042   6.437   9.579  12.856  0.1568  0.1018  0.0515
17234W        W33043   4.519   3.503  14.279 -0.1104 -0.1151  0.0987
17235W        W33044   9.655  13.911   4.144  0.1271 -0.0159 -0.2199
17236W        W33045   0.510  13.825   4.897  0.2017  0.0334 -0.0930
17237W        W33046   5.002  17.050  14.413 -0.0919 -0.0774  0.1798
17238W        W33047   9.752   7.137   3.421 -0.0853 -0.1257 -0.0424
17239W        W33048   3.193  15.870   0.168  0.1159  0.2715 -0.1866
17240W        W33049  16.528   7.014   3.331 -0.0910 -0.1255 -0.0998
17241W        W33050  13.470  11.167   0.166 -0.0427  0.0113 -0.4395
17242W        W33051   0.959   0.314   4.457  0.0716  0.1789  0.3883
17243W        W33052  18.771   2.172  10.821 -0.0295 -0.2354  0.1181
17244W        W33053  16.570  19.106   0.283 -0.2064  0.1658  0.3497
17245W        W33054   4.159   7.262  12.957 -0.3421  0.0218 -0.1421
17246W        W33055  13.601  17.880  14.926  0.0275 -0.0990 -0.3174
17247W        W33056  13.190   1.544  12.173 -0.1602 -0.2502 -0.0070
17248W        W33057  15.387   2.617  13.776  0.1297  0.0983  0.0237
17249W        W33058   1.710  13.590   1.882 -0.1829  0.3217 -0.1089
17250W        W33059  14.615   8.265  12.631 -0.0419  0.1815  0.1460
17251W        W33060  17.406  18.920  12.844  0.1245  0.3715 -0.0605
17252W        W33061  18.738   7.252  13.010  0.3849  0.0799  0.0628
17253W        W33062  10.072  17.462  10.929  0.0664 -0.1586 -0.0012
17254W        W33063   7.052  15.860   1.837  0.3256 -0.2314 -0.0128
17255W        W33064  11.073   6.653   0.573  0.0177  0.0080 -0.2077
17256W        W33065   8.700  16.252  13.722 -0.1162 -0.2382  0.0919
17257W        W33066   6.634  12.539   2.605  0.0310  0.0689 -0.0689
17258W        W33067  17.563   0.432   2.076 -0.2502  0.0998  0.0096
17259W        W33068  18.631   8.684   1.747  0.2057 -0.1756 -0.1963
17260W        W33069   2.875  17.189   2.160  0.2784 -0.4165 -0.2879
17261W        W33070   6.621  15.627   1.869 -0.0205 -0.4323  0.0457
17262W        W33071  14.568   3.054  11.711  0.0237  0.1673 -0.0115
17263W        W33072   7.206   8.522   4.368 -0.0092 -0.0186  0.0898
17264W        W33073   3.915   9.434   2.807  0.0513 -0.3764  0.0590
17265W        W33074  17.999   8.870   1.090  0.1015 -0.0799  0.0088
17266W        W33075  12.646  15.787   0.332  0.0078  0.1851  0.1179
17267W        W33076  11.438  18.919  11.047  0.3627 -0.3199  0.0814
17268W        W33077  16.447  10.606  11.045  0.1776  0.1059  0.0179
17269W        W33078  16.290  12.297  12.210 -0.0564  0.2319  0.0366
17270W        W33079   2.536   5.639  14.890 -0.1651  0.0929  0.0663
17271W        W33080   5.336   8.214   3.509  0.5049 -0.2052 -0.0835
17272W        W33081   9.698  18.317   0.584 -0.2023 -0.0929 -0.1356
17273W        W33082   6.789   7.150   2.048 -0.1573  0.2615  0.0488
17274W        W33083   8.103   3.040   9.440 -0.3527  0.2027  0.0004
17275W        W33084   2.427   3.021  14.702 -0.1101  0.0144  0.2348
17276W        W33085  12.832  16.039  14.955 -0.0522 -0.1505  0.0130
17277W        W33086   6.604   7.840  14.438 -0.1101 -0.2912 -0.0323
17278W        W33087   6.249  16.250   1.709 -0.0716  0.2999  0.2656
17279W        W33088   1.801  10.375  10.486  0.0200 -0.1171  0.2554
17280W        W33089  13.280   3.316   0.056  0.1396 -0.2422  0.3772
17281W        W33090  15.308   2.088   1.368  0.1634 -0.0996 -0.1022
17282W        W33091   8.732  16.735  13.959  0.0909  0.1604  0.2561
17283W        W33092   9.768  11.116   3.390 -0.1940 -0.0122 -0.0014
17284W        W33093   1.788  15.442   1.798 -0.0700  0.4655  0.0017
17285W        W33094   1.092  17.115   2.647  0.3165  0.2207 -0.0188
17286W        W33095  16.549   5.145  10.861 -0.1495  0.0254 -0.0754
17287W        W33096  16.585   0.654   3.674 -0.3011 -0.2312 -0.2272
17288W        W33097   9.063   6.991   9.706 -0.1906 -0.0563 -0.2001
17289W        W33098  11.633  11.004  14.448  0.0334  0.1580  0.2278
17290W        W33099   2.673  16.146   4.440 -0.1755  0.0759 -0.1390
17291W        W33100   5.225   7.281   4.491 -0.1540 -0.3194  0.0400
17292W        W33101   0.083  13.021  10.509 -0.1007  0.2349 -0.2856
17293W        W33102  12.950   2.232   4.093  0.0155 -0.1077  0.0203
17294W        W33103   3.424   8.522  14.699  0.0449 -0.0108  0.3197
17295W        W33104  10.334  13.016  14.001 -0.0152 -0.2269  0.1243
17296W        W33105  17.910  18.569   0.312 -0.0335 -0.3099  0.0191
17297W        W33106  11.351  13.082   5.445 -0.2697  0.0311 -0.0102
17298W        W33107   4.386   0.035   5.346  0.1081  0.0348  0.0915
17299W        W33108  17.166  15.943  14.579  0.0063  0.0734 -0.1095
17300W        W33109   7.504   3.870  11.293  0.2126 -0.0364 -0.2861
17301W        W33110   7.219   8.870   3.140 -0.0198  0.0257 -0.3287
17302W        W33111  15.446   8.534   1.569 -0.0536  0.0598 -0.3943
17303W        W33112  19.022   5.528   1.014  0.1637 -0.0357 -0.1813
17304W        W33113  18.807   4.091  13.678 -0.1155 -0.2627 -0.1711
17305W        W33114  15.823   2.383  13.067 -0.4528 -0.0127 -0.0892
17306W        W33115  15.882   5.043   4.309 -0.0111 -0.0727  0.2320
17307W        W33116   2.864  17.270  12.849  0.0923  0.5306  0.1509
17308W        W33117   9.945   5.269   3.826  0.3067 -0.0537  0.1773
17309W        W33118  19.146  14.903   0.360 -0.3976 -0.0635 -0.1357
17310W        W33119   5.208   1.374   1.038 -0.1751 -0.0400 -0.1007
17311W        W33120  10.300  13.976  12.400  0.1321  0.1642  0.2118
17312W        W33121  10.528   1.295  12.212 -0.0997 -0.1094 -0.4018
17313W        W33122  15.371   3.878  14.821  0.0276 -0.0166 -0.1036
17314W        W33123   5.374   1.247   2.791  0.1035  0.0940  0.0905
17315W        W33124  18.350   9.888   4.235 -0.2388  0.0046  0.0489
17316W        W33125  12.591  18.768   4.228  0.1616 -0.0669 -0.0761
17317W        W33126  15.282   7.064  14.258  0.5526  0.1188 -0.1329
17318W        W33127  14.228   4.482  12.177  0.0456 -0.0381 -0.0791
17319W        W33128   0.917   9.250   0.071  0.0389  0.3854  0.1580
17320W        W33129   5.019  14.261  11.398  0.1107 -0.3274  0.0023
17321W        W33130   3.457  17.581   1.478  0.0052 -0.0546 -0.0756
17322W        W33131  14.030  17.930   3.669  0.0923  0.1811 -0.0607
17323W        W33132  11.548   4.759  11.040  0.3122  0.2960  0.3106
17324W        W33133  12.681  18.906  13.332  0.0299  0.0059  0.2089
17325W        W33134   6.707   5.476  12.328  0.0060  0.0532  0.2122
17326W        W33135  11.838  16.016   5.271  0.1110  0.0299  0.1612
17327W        W33136  10.341  16.134   5.485  0.0622  0.6726 -0.4598
17328W        W33137   4.440  15.542  13.805 -0.0726  0.3204  0.2058
17329W        W33138  13.317   5.991  12.087  0.0662  0.0728 -0.1486
17330W        W33139  14.164  14.079  10.947  0.3623  0.1803 -0.0370
17331W        W33140  12.825  11.461   6.314 -0.1801  0.0922  0.0381
17332W        W33141   9.951  10.386   2.693  0.2072 -0.0469  0.1241
17333W        W33142  15.871   3.413  13.283  0.1090  0.1709 -0.0963
17334W        W33143   7.707   0.137   4.384 -0.0120 -0.2170 -0.1545
17335W        W33144   0.184   7.720   2.625 -0.3162  0.2397  0.2033
17336W        W33145   2.578  11.954  12.475  0.0081  0.0176  0.0701
17337W        W33146   3.590  18.784  13.118 -0.1163  0.0183 -0.0424
17338W        W33147  13.755   2.239   3.695 -0.0094 -0.3790 -0.1760
17339W        W33148  10.812   0.248  12.089  0.1490  0.0576 -0.0836
17340W        W33149  12.372   0.611   4.023  0.1419 -0.3861 -0.1622
17341W        W33150  15.838  17.214  11.764 -0.1992  0.5681  0.2155
17342W        W33151  18.393  10.938  15.055  0.0901 -0.2336  0.0131
17343W        W33152  10.893  10.888  11.417  0.0838  0.2131 -0.4716
17344W        W33153  10.173   0.972  14.545 -0.0466  0.1684 -0.1692
17345W        W33154  19.038   8.509   4.514  0.0933 -0.0926 -0.3425
17346W        W33155   8.774   0.760  15.033 -0.1006  0.1564 -0.3166
17347W        W33156   4.023  14.965   1.322 -0.2550 -0.1077  0.0872
17348W        W33157   3.711   9.026   4.428  0.0021 -0.2251  0.0353
17349W        W33158  10.908   1.206   1.576 -0.0227  0.1656  0.0855
17350W        W33159   6.790  18.298   3.738 -0.0281 -0.3407  0.0380
17351W        W33160  15.673  10.438  13.917  0.2460  0.1803  0.1219
17352W        W33161  18.387   2.664  12.493  0.0890  0.0144 -0.3900
17353W        W33162  15.767  10.828   1.795  0.2160 -0.0161 -0.0128
17354W        W33163   6.835   1.821   0.402  0.1457  0.3073 -0.1718
17355W        W33164  17.276   1.169   2.293  0.1972  0.1116  0.0800
17356W        W33165   6.196   9.550   3.017  0.2109 -0.0341  0.1165
17357W        W33166  15.162  10.929  11.550  0.3229  0.0439 -0.2784
17358W        W33167   9.622  14.378   2.427  0.2526 -0.3379 -0.2220
17359W        W33168  16.233   1.503  14.168 -0.2942  0.3093  0.2224
17360W        W33169   6.363   9.794   0.384 -0.1047 -0.0523 -0.0971
17361W        W33170   7.146  11.769   1.445  0.0388  0.2425 -0.0301
17362W        W33171  18.281  13.812   1.816  0.1258 -0.2134 -0.1502
17363W        W33172   3.509   6.570   1.553  0.0673 -0.1547  0.1202
17364W        W33173   1.933   2.072  11.231  0.0679  0.0265 -0.1980
17365W        W33174   7.217   9.699   1.588  0.0912 -0.1669 -0.1013
17366W        W33175  11.765  15.563   0.908  0.0020 -0.1284  0.1081
17367W        W33176   3.087   1.686  10.735 -0.3081 -0.0102  0.2622
17368W        W33177   0.455   1.907  12.540  0.2481 -0.0299  0.2448
17369W        W33178  11.930   4.529  11.450 -0.0040  0.0596 -0.0059
17370W        W33179   3.782   3.143   3.136  0.0980 -0.1029 -0.0206
17371W        W33180   9.212   7.409   1.158  0.4723 -0.1328  0.0199
17372W        W33181   1.333  17.490   5.019  0.0312  0.1381  0.1002
17373W        W33182   2.832  13.672   0.203  0.0654  0.0330 -0.1319
17374W        W33183  14.420  18.648  12.362  0.1105  0.3020 -0.2008
17375W        W33184   2.913   2.018  14.386 -0.0913 -0.2962  0.0194
17376W        W33185   0.594   9.864  13.791 -0.3838  0.4518 -0.3395
17377W        W33186   9.026   7.135  14.189 -0.0038 -0.1393 -0.0357
17378W        W33187   4.541  11.656   3.327 -0.2124  0.3901  0.0510
17379W        W33188  14.179  12.913   0.532  0.0267  0.2062  0.2096
17380W        W33189  17.713  17.887   9.402 -0.2943 -0.1077 -0.2729
17381W        W33190  13.164   4.180  11.039  0.1067  0.1161 -0.2378
17382W        W33191   2.895   5.073  11.401  0.2376 -0.3435  0.4038
17383W        W33192   0.152  11.123  12.515 -0.0042 -0.2841 -0.1035
17384W        W33193  18.810  10.587   3.201 -0.0665 -0.1863  0.1066
17385W        W33194   7.676  12.022   3.885  0.0283 -0.0746 -0.1300
17386W        W33195   9.135   9.429   2.581  0.1886  0.2550  0.0289
17387W        W33196  16.502   8.729   4.044  0.1275  0.2344  0.0453
17388W        W33197  13.811   9.775   3.732  0.0229 -0.1410 -0.2240
17389W        W33198   0.969  10.916   1.780  0.1445 -0.1249  0.1491
17390W        W33199  11.310  14.784  13.111 -0.1176 -0.1795  0.1373
17391W        W33200  13.613  14.730   2.318 -0.2740  0.1551  0.1415
17392W        W33201  16.736  17.308  10.518  0.2054  0.0263  0.1730
17393W        W33202  14.713   2.133  11.984 -0.0310  0.0418 -0.3748
17394W        W33203   3.468   1.181  12.003  0.1200  0.2842  0.0290
17395W        W33204   8.942   9.591  12.895 -0.1099 -0.0869  0.0198
17396W        W33205  14.917   3.604  12.769 -0.1140  0.4630  0.2175
17397W        W33206   3.664  13.474   2.993  0.0642 -0.1894  0.1832
17398W        W33207  10.291  11.346   4.243  0.0514  0.1771  0.1102
17399W        W33208  12.367  12.989   1.201 -0.2228  0.4502  0.1219
17400W        W33209   9.228   5.152  14.499 -0.3119 -0.0635 -0.1600
17401W        W33210   7.053  17.006  13.360  0.1718  0.1102  0.1349
17402W        W33211   6.539  10.368  13.536  0.0755  0.1217  0.0572
17403W        W33212  10.603  15.411  15.198 -0.2634  0.0938 -0.1440
17404W        W33213   0.518   5.009  14.655 -0.4594 -0.2672  0.0575
17405W        W33214  16.838   6.041   4.128 -0.1238 -0.0698 -0.0673
17406W        W33215   1.509  17.857   2.433 -0.0568  0.1164  0.2064
17407W        W33216   6.586  17.375  10.316 -0.1714 -0.2008 -0.1511
17408W        W33217  15.994   7.943  13.751 -0.0201 -0.1598 -0.0446
17409W        W33218  14.874  18.458   3.524 -0.0197  0.3184 -0.1361
17410W        W33219  17.405   0.176  13.237  0.1214 -0.2068  0.2943
17411W        W33220  15.754  13.821  12.846  0.1564  0.3036  0.2884
17412W        W33221   4.820  15.860   3.215  0.4388 -0.3607  0.1026
17413W        W33222  13.482   1.062   3.661 -0.0006  0.0772  0.0806
17414W        W33223   7.127   4.806   5.384  0.3932  0.3838 -0.2819
17415W        W33224   2.363   9.568   2.947  0.2452  0.6092 -0.1214
17416W        W33225   1.329   2.607   0.184  0.0980  0.2442  0.2105
17417W        W33226  16.066   1.663  13.257 -0.3439  0.1330 -0.0355
17418W        W33227   5.152  11.169  14.589  0.3395  0.0507 -0.1174
17419W        W33228   0.205  17.497   2.686  0.4538 -0.0723 -0.4822
17420W        W33229   5.305  14.767  10.573  0.1090 -0.1624 -0.0262
17421W        W33230  16.114   0.734   2.294 -0.0092 -0.1079  0.2503
17422W        W33231  18.016  11.571   1.637  0.0166  0.0764 -0.4440
17423W        W33232   1.056   5.519   1.465 -0.3420  0.1881  0.1860
17424W        W33233   7.842  10.537  12.678  0.3008  0.1512  0.4657
17425W        W33234  17.753   4.727   2.474 -0.1914  0.2168  0.4826
17426W        W33235   8.609   9.169   0.942  0.0858 -0.0412 -0.3889
17427W        W33236  16.846  12.306  12.099 -0.1556 -0.2736  0.0300
17428W        W33237   0.939  15.860   2.231  0.0344  0.2397 -0.0246
17429W        W33238   0.891  10.130   0.156 -0.0281 -0.4319  0.2542
17430W        W33239  10.923   0.030   3.844  0.0088  0.0124 -0.2784
17431W        W33240  14.119   0.610  12.851  0.1613 -0.0989  0.0888
17432W        W33241  18.733   2.075   1.052  0.0576 -0.1569 -0.2932
17433W        W33242   8.906   6.824  11.797  0.1006 -0.1918  0.1424
17434W        W33243   3.977  15.490   2.743  0.2153 -0.2381  0.2562
17435W        W33244   0.970   9.272   5.036 -0.2386 -0.1223  0.1621
17436W        W33245  11.353   1.789  13.097 -0.3860 -0.2865  0.0405
17437W        W33246   3.547  18.298   3.820  0.1275 -0.2013  0.1870
17438W        W33247   3.414   0.513   0.649  0.1753  0.1164  0.1415
17439W        W33248  15.085   9.595   3.235  0.0729  0.0181 -0.1565
17440W        W33249  12.869  15.311  12.636 -0.1130  0.2477  0.3014
17441W        W33250  14.189   2.781  12.395 -0.1357  0.1610 -0.0710
17442W        W33251   2.660  10.750   2.541  0.0174  0.1964  0.2772
17443W        W33252   4.354   6.297  13.128  0.2136  0.1111  0.2385
17444W        W33253   9.503   3.357   0.550 -0.0177 -0.2239 -0.0708
17445W        W33254  13.099   6.514  12.019  0.1742  0.0516  0.1849
17446W        W33255   1.002   3.039  13.961 -0.2076  0.2207  0.0984
17447W        W33256  18.414  12.081  13.634 -0.0171 -0.1180  0.0293
17448W        W33257   7.955   0.974   1.459 -0.0110 -0.1106 -0.1638
17449W        W33258   6.338  14.653  10.963  0.0841 -0.0054 -0.0009
17450W        W33259  10.278   1.383   0.509  0.0978 -0.2584  0.0167
17451W        W33260  16.818   2.501   2.790  0.0913 -0.1044 -0.0203
17452W        W33261   2.741   4.994  12.420  0.1670 -0.1955 -0.2549
17453W        W33262  11.189   8.246  11.529 -0.0104  0.2355 -0.4430
17454W        W33263   9.574   5.566  10.996 -0.1155  0.2264 -0.0795
17455W        W33264   7.110   1.195  13.023  0.1399 -0.0137 -0.2297
17456W        W33265  15.397   4.533   5.295  0.1254 -0.0554 -0.2237
17457W        W33266   5.550   4.667  12.852  0.0627 -0.2831 -0.0375
17458W        W33267  11.640   6.402  13.225 -0.1168  0.0945 -0.3288
17459W        W33268   3.736   5.265  13.657  0.3627 -0.0742 -0.1034
17460W        W33269   2.010  13.714   0.151 -0.1484 -0.0302  0.3799
17461W        W33270   4.739  16.637  14.634 -0.1145 -0.2644 -0.3304
17462W        W33271  18.396   8.514  12.634 -0.1206 -0.1561 -0.0645
17463W        W33272  11.626   8.613  14.323  0.0909  0.1388 -0.1263
17464W        W33273  14.682   8.861  14.616  0.1184 -0.3009  0.2871
17465W        W33274   0.142  15.458  11.039 -0.2864 -0.3993 -0.1538
17466W        W33275   2.645   8.701  13.302  0.0610 -0.1939 -0.5488
17467W        W33276   2.688  13.130  14.742  0.1829 -0.0744 -0.0457
17468W        W33277  17.132  13.575   0.272 -0.2335  0.2039 -0.1682
17469W        W33278  10.613  15.611  11.987  0.0000  0.2561 -0.1755
17470W        W33279  18.418  12.971   3.107 -0.3114  0.0966  0.1588
17471W        W33280   1.886   3.824   3.714 -0.0748  0.2988  0.0526
17472W        W33281  11.710   1.596   0.643  0.1975 -0.3497 -0.1674
17473W        W33282  14.446   5.201  10.817 -0.0096 -0.1122  0.1970
17474W        W33283   3.667  16.248   4.721  0.0420 -0.2534  0.0005
17475W        W33284   2.000   1.885  14.597 -0.2142  0.0410 -0.0112
17476W        W33285  15.935   5.983  14.161 -0.1635 -0.4232 -0.0844
17477W        W33286   0.734  18.448   0.413  0.0760  0.0603 -0.4349
17478W        W33287   8.510   4.951  13.351 -0.3597  0.1478 -0.0289
17479W        W33288   3.865   4.274  12.098  0.0819 -0.0783 -0.0418
17480W        W33289   1.823   8.217   2.000  0.2060  0.1169  0.1576
17481W        W33290   0.205   1.510  11.188  0.1704  0.1874 -0.2161
17482W        W33291   6.988  18.811  11.794 -0.1226 -0.2145 -0.2888
17483W        W33292  15.147   3.987   2.773 -0.0464 -0.3164 -0.1046
17484W        W33293   0.954  14.759   1.775  0.0313  0.1135 -0.0954
17485W        W33294   5.208   1.441   0.523 -0.0123  0.1612  0.3626
17486W        W33295   0.548  15.445   2.243  0.1841  0.0131  0.2102
17487W        W33296  13.978  11.908  10.887  0.0910  0.5736 -0.0750
17488W        W33297  18.668   0.811  10.310  0.0369  0.0312  0.1259
17489W        W33298   0.994   6.683  14.820 -0.1444  0.0382 -0.1068
17490W        W33299   7.159   2.117  14.759  0.0772 -0.2405  0.4468
17491W        W33300  10.814  15.830   5.132 -0.1127 -0.2927 -0.0092
17492W        W33301   9.377  16.970   3.070  0.0416  0.0205  0.4092
17493W        W33302   2.520   3.283  10.174 -0.1748 -0.0499 -0.2340
17494W        W33303   4.141  10.266   4.641  0.2732 -0.0520 -0.2133
17495W        W33304  13.067  16.565  14.537  0.0284  0.2430 -0.1773
17496W        W33305   1.801  13.884   1.482  0.2773 -0.1512  0.0462
17497W        W33306   0.954  11.998  13.230  0.2556 -0.0294 -0.0558
17498W        W33307  13.785   4.584  12.003  0.2516 -0.1740  0.2640
17499W        W33308   9.360   4.771  10.475  0.0634 -0.2960  0.2539
17500W        W33309   5.255  12.789  14.822 -0.1102  0.2411  0.0544
17501W        W33310   6.398   9.065   1.332  0.1074 -0.0853  0.0470
17502W        W33311   3.221   5.041   2.387  0.2386  0.0961  0.0753
17503W        W33312  10.601   8.869   0.412  0.2238 -0.0299  0.3695
17504W        W33313  13.355  16.456   5.474 -0.0443  0.0499 -0.1743
17505W        W33314   3.959   6.836   1.115 -0.3254 -0.1143  0.2307
17506W        W33315  16.753  10.580   2.278  0.3318 -0.3064 -0.2643
17507W        W33316  16.346   6.866   0.856  0.3069  0.2988  0.1835
17508W        W33317   3.138  13.832  14.981  0.0386 -0.0244  0.2488
17509W        W33318  16.651  14.181  11.604  0.0310 -0.1452  0.0648
17510W        W33319   3.384  13.360   1.778  0.0529 -0.2720 -0.1618
17511W        W33320  11.947   1.717  12.906  0.1848  0.0345  0.1655
17512W        W33321  14.335  14.017   2.877 -0.0205 -0.0241 -0.1174
17513W        W33322   4.359   7.442  10.761  0.0094  0.1783 -0.1733
17514W        W33323  12.805  12.467   5.324 -0.0460 -0.2859  0.0093
17515W        W33324   2.775   5.535  13.747 -0.2355 -0.2937  0.3619
17516W        W33325   6.231  15.258   1.514  0.2949 -0.2837 -0.0823
17517W        W33326   6.735   0.390   1.194  0.0359 -0.1990 -0.0569
17518W        W33327  16.248  15.276   1.551 -0.0344 -0.0404 -0.1470
17519W        W33328   1.254  15.594   3.647 -0.3630 -0.0635  0.0308
17520W        W33329  17.725   8.729   3.336  0.1182  0.0427 -0.2633
17521W        W33330  12.447   6.609   1.150  0.0808  0.2894 -0.0665
17522W        W33331  15.479   6.209   4.749  0.1163  0.0917  0.1778
17523W        W33332  15.563   2.718   2.160 -0.0662  0.1538 -0.1371
17524W        W33333   8.182  13.756  15.036 -0.0434  0.0818  0.1046
17525W        W33334  16.299  11.252  14.113 -0.0884 -0.0542 -0.0279
17526W        W33335  16.988   2.097   1.775 -0.0692 -0.1693  0.0650
17527W        W33336  10.044  14.988  14.749  0.2803 -0.2150  0.0276
17528W        W33337   1.485   9.233   1.223  0.1460  0.0890 -0.2676
17529W        W33338   5.774  17.563   4.358  0.3213  0.2503  0.0986
17530W        W33339  12.717  11.741   2.282  0.1058 -0.0484  0.1186
17531W        W33340   4.189   5.895  13.612 -0.1589 -0.3046 -0.1974
17532W        W33341   0.588  11.460   0.499  0.1403 -0.6236  0.1321
17533W        W33342   5.688   1.640  13.254 -0.0008 -0.0948  0.0362
17534W        W33343   2.765   4.093   4.100 -0.3226 -0.3560  0.1218
17535W        W33344   6.368   4.277  10.359 -0.1892 -0.0654  0.1017
17536W        W33345  17.552  18.240  14.128  0.1130 -0.0158 -0.0304
17537W        W33346  17.378  13.345   5.049 -0.1702  0.0751  0.1608
17538W        W33347   8.057   5.686   0.525  0.5324  0.0984 -0.1045
17539W        W33348  12.523   5.813   9.719  0.1247  0.0141 -0.1438
17540W        W33349   1.575  18.011  13.791 -0.4424 -0.1932  0.0758
17541W        W33350  12.815  10.904  10.494  0.0409  0.0421 -0.2565
17542W        W33351  19.151  19.128  13.689 -0.1246  0.0355  0.0054
17543W        W33352  14.709  15.866  12.866 -0.2236 -0.3217 -0.0340
17544W        W33353  11.340  12.100   0.399 -0.1541 -0.0268  0.1648
17545W        W33354   0.676   0.342  12.651 -0.1934 -0.0594  0.3516
17546W        W33355  17.516   9.411  15.184 -0.0315 -0.2124 -0.1061
17547W        W33356  14.219   8.508  12.705  0.0399  0.0276 -0.3073
17548W        W33357  13.153   6.626  14.813  0.2210 -0.2717  0.0558
17549W        W33358   9.043  18.667  12.795 -0.3968 -0.1464 -0.0110
17550W        W33359   0.289  17.256   0.525  0.0605  0.2138 -0.0267
17551W        W33360  13.761  12.650   1.214  0.1579  0.0933 -0.0253
17552W        W33361  10.604   6.295   9.305  0.1766  0.0612 -0.0757
17553W        W33362  12.047   0.377  14.238 -0.0601 -0.0697 -0.2173
17554W        W33363   9.090   1.546   2.010 -0.1030  0.1734 -0.2408
17555W        W33364  15.662  13.740   1.631  0.4654 -0.2682 -0.0130
17556W        W33365   3.773   0.020   4.461  0.2312  0.0167 -0.0369
17557W        W33366   4.121  13.254   3.336  0.0147 -0.0602  0.3184
17558W        W33367   8.516  11.770  14.707 -0.1950 -0.1072 -0.0732
17559W        W33368   7.765   2.085   3.076  0.3119  0.0538 -0.3149
17560W        W33369  12.968  12.469   0.265  0.1627 -0.2938 -0.0667
17561W        W33370   6.117   3.775   4.060 -0.0308  0.1539  0.0903
17562W        W33371  18.876  16.628  14.368 -0.2009  0.0170 -0.0991
17563W        W33372  18.240   2.658   4.469  0.0385 -0.2251 -0.2428
17564W        W33373   0.021   7.027  12.249  0.2369  0.0393 -0.1840
17565W        W33374  16.154  13.045   3.709 -0.1072  0.2050 -0.0163
17566W        W33375  16.995   2.518   1.073  0.0282  0.1028  0.0857
17567W        W33376   1.174   6.320   0.252  0.3614 -0.1713  0.0603
17568W        W33377   1.949  16.055   2.242 -0.1852 -0.2298  0.0762
17569W        W33378   8.777  18.438   0.947  0.2419  0.1453 -0.3586
17570W        W33379  14.417  14.896  11.636  0.5080  0.1453 -0.2180
17571W        W33380  12.126   3.734  13.882 -0.0778 -0.0855 -0.2400
17572W        W33381  12.366  16.698   4.671 -0.0692  0.2395  0.2466
17573W        W33382  19.142  14.898   4.472  0.1450  0.3741  0.2511
17574W        W33383   7.719   0.246   9.862  0.2158 -0.0024  0.2106
17575W        W33384   1.183  15.321  13.186 -0.1187 -0.3460 -0.1489
17576W        W33385  11.641   3.722   4.821 -0.1383 -0.0495  0.2092
17577W        W33386  19.108  19.101   1.625  0.0802  0.2342  0.1233
17578W        W33387  13.083   5.045  14.063 -0.0829 -0.4065 -0.3791
17579W        W33388  15.045   2.882   2.074 -0.0520 -0.1631  0.4001
17580W        W33389  14.245   4.974  12.277 -0.1220  0.1086  0.0852
17581W        W33390  16.066   2.683   4.133  0.0033 -0.4210  0.2397
17582W        W33391  13.736  10.234   1.451 -0.0483 -0.1207 -0.0008
17583W        W33392  12.743   3.459   3.850 -0.0977  0.2024  0.0815
17584W        W33393  14.494   0.833  12.130  0.0625  0.0412  0.2133
17585W        W33394   3.288  11.091  14.791  0.0590  0.0579 -0.2486
17586W        W33395  17.952   1.874   5.884 -0.0452  0.1444 -0.1661
17587W        W33396   6.342  14.136   1.075  0.2435 -0.0746  0.2766
17588W        W33397   6.553   0.031  11.767 -0.1343  0.0452  0.0389
17589W        W33398  17.136   4.512  13.763  0.0363 -0.1281 -0.3041
17590W        W33399   3.051  13.849   3.813 -0.2940  0.1029 -0.3607
17591W        W33400  13.535  16.326   0.070  0.1830 -0.0554 -0.1305
17592W        W33401   5.867   9.455  11.156 -0.1992  0.0390  0.3116
17593W        W33402   1.498   0.539  10.367 -0.1288 -0.3841  0.1404
17594W        W33403   1.683  16.231   0.775  0.1090 -0.0446 -0.0450
17595W        W33404   9.252   4.578   5.342 -0.1582 -0.0712  0.0970
17596W        W33405   6.278  14.128   3.007 -0.3938  0.0514  0.1072
17597W        W33406  13.174   9.268  13.575  0.2666 -0.2272  0.0695
17598W        W33407  10.570  18.609   5.034  0.1628 -0.3843  0.0163
17599W        W33408   9.598  16.980   0.518  0.3601  0.1664  0.0848
17600W        W33409  14.232   2.279  12.731  0.0811 -0.1214  0.1538
17601W        W33410  13.421  12.180  14.146 -0.2316  0.4716  0.0179
17602W        W33411   2.363   5.296   2.196  0.3795 -0.2654 -0.2640
17603W        W33412   6.715  10.243  13.992  0.0467  0.2136  0.3172
17604W        W33413  10.517  13.252  11.285  0.0157 -0.2339  0.0099
17605W        W33414   1.149   7.367  14.085  0.1014  0.0745  0.1127
17606W        W33415   1.521   7.465   9.449 -0.1173  0.0537  0.2583
17607W        W33416   7.673   7.042   1.749  0.0681 -0.2020 -0.2853
17608W        W33417   0.240  17.825  11.506  0.1270  0.0804 -0.1040
17609W        W33418   5.076   9.976  11.853  0.1692 -0.0170  0.3183
17610W        W33419   6.970   8.114  11.129  0.0269 -0.1184  0.2461
17611W        W33420  17.331  11.774  11.599  0.0883  0.0479  0.3489
17612W        W33421   1.432  10.631  13.657 -0.0508 -0.0674  0.0481
17613W        W33422  11.344  12.626   6.263 -0.2144 -0.0590 -0.0258
17614W        W33423   5.963   4.900   4.717 -0.0460 -0.0490 -0.3113
17615W        W33424   9.564   0.274  12.911  0.2032 -0.1932  0.1398
17616W        W33425  12.974  13.929   1.685 -0.1957 -0.0245  0.0895
17617W        W33426  12.590   6.024  11.034  0.0078 -0.1560  0.1068
17618W        W33427   8.936  13.897   0.081 -0.2065  0.0836 -0.1331
17619W        W33428   1.375   2.627  14.891 -0.1898  0.0202  0.1931
17620W        W33429  15.501  18.979  14.100 -0.1256  0.1247 -0.2377
17621W        W33430  12.100   7.426   2.288  0.0988 -0.1719 -0.2238
17622W        W33431  17.475  11.636   3.620  0.1371 -0.1332  0.1228
17623W        W33432   5.580   3.229   5.270 -0.0916 -0.1667 -0.1219
17624W        W33433   7.328   7.886  13.176 -0.0577 -0.0714 -0.0530
17625W        W33434   3.672   3.861  13.954  0.0650  0.0544 -0.0858
17626W        W33435   7.372  10.273  14.170 -0.0659 -0.1040 -0.0676
17627W        W33436   4.752   2.479   0.010 -0.1267  0.1017 -0.1508
17628W        W33437   8.666   6.208  14.255 -0.1533  0.0812  0.2776
17629W        W33438   7.394  14.604   2.289  0.0635  0.0244 -0.0481
17630W        W33439   0.200  10.565   0.655  0.1062 -0.0031  0.0795
17631W        W33440  17.670   1.551   3.470 -0.1145 -0.0559  0.0323
17632W        W33441  16.722  15.816   1.903 -0.2996  0.0809  0.0714
17633W        W33442   6.446  16.365  10.519 -0.0875  0.0279  0.1127
17634W        W33443  14.092  13.732   3.966  0.0628  0.3356  0.5192
17635W        W33444   7.683  17.319  11.653  0.1874  0.0162  0.0285
17636W        W33445   6.155  17.505   3.796  0.0088  0.3087 -0.0981
17637W        W33446  18.788  11.222  12.485  0.0882 -0.0449 -0.1038
17638W        W33447  10.378   9.236  13.693  0.1998  0.2998 -0.1203
17639W        W33448   8.165   3.513  10.614 -0.2144  0.1591  0.2377
17640W        W33449  12.942  17.596  10.587 -0.0058  0.0259 -0.0924
17641W        W33450   0.249  12.824  12.320  0.1027  0.0481 -0.1378
17642W        W33451  15.367  10.763  12.071  0.0122 -0.0261 -0.2794
17643W        W33452   8.283   3.131  11.463 -0.4826 -0.0898 -0.1097
17644W        W33453   1.030   9.431   1.617 -0.3591  0.1918 -0.0106
17645W        W33454  11.316  10.353  12.620  0.0217 -0.2460 -0.2429
17646W        W33455  12.416  14.992  14.869 -0.2216  0.0427  0.0162
17647W        W33456   4.139  18.411   4.385 -0.0490  0.0618 -0.1871
17648W        W33457  15.446  12.301   2.674 -0.2194 -0.2920 -0.0016
17649W        W33458   1.969  14.857   3.931  0.1684 -0.1396 -0.1390
17650W        W33459  12.084  17.273  14.786  0.1043  0.0542 -0.0785
17651W        W33460   2.895   5.001   2.900 -0.0691 -0.1201 -0.3089
17652W        W33461  10.352  18.148  14.268  0.1505 -0.0860 -0.0575
17653W        W33462  12.853  11.115  11.973  0.0067  0.0822 -0.0019
17654W        W33463   8.713   1.682   4.969 -0.2922  0.3505  0.0111
17655W        W33464  14.260   0.981   2.259 -0.0827 -0.2203 -0.2543
17656W        W33465  10.512  18.798  15.051  0.0996 -0.0044  0.2774
17657W        W33466  13.093   5.788   5.283  0.1471 -0.0927 -0.0757
17658W        W33467  13.533   8.415   0.038 -0.2116  0.0147  0.0532
17659W        W33468  11.159  16.584   4.648 -0.1844 -0.0749 -0.1405
17660W        W33469  17.732   6.264   2.748  0.2047 -0.0379 -0.2045
17661W        W33470   9.993   7.088  10.849 -0.5166  0.2511  0.2506
17662W        W33471  18.085  16.678  11.126 -0.0103 -0.0280  0.0073
17663W        W33472   5.662  14.952   9.439 -0.0417 -0.1583  0.3048
17664W        W33473   9.505  15.035  13.247 -0.1219  0.1705  0.0865
17665W        W33474   5.759   7.251  14.398 -0.1922 -0.1212 -0.3646
17666W        W33475   9.661   1.185  12.775 -0.1355 -0.2783  0.1153
17667W        W33476  16.810   3.603  13.779  0.0438  0.3006 -0.0266
17668W        W33477  10.080   4.649   1.340  0.1665 -0.2672 -0.2092
17669W        W33478   3.937  12.665  10.286  0.0121 -0.0092  0.1710
17670W        W33479  13.662   1.081  11.094  0.2752 -0.2370 -0.1701
17671W        W33480   4.151   6.630   3.560 -0.1171  0.3288 -0.0938
17672W        W33481  11.693  15.889  12.900  0.4108  0.0012 -0.2076
17673W        W33482   9.500  11.683   3.510 -0.0881  0.0811  0.1605
17674W        W33483   6.942  18.355  13.834  0.3087 -0.2220  0.0093
17675W        W33484   9.041   5.535   3.423  0.0326 -0.2774 -0.1697
17676W        W33485  14.815  11.908   3.127  0.0338 -0.1484 -0.1823
17677W        W33486   7.173  17.749  12.496 -0.2160  0.1335 -0.0101
17678W        W33487   8.215   3.461   4.943 -0.4297  0.2776 -0.0615
17679W        W33488   9.663   2.062   3.206  0.0843 -0.0370 -0.0051
17680W        W33489   8.070  16.366   3.911 -0.2376 -0.3211 -0.0909
17681W        W33490   9.713   9.908   2.777  0.4543 -0.1729 -0.0263
17682W        W33491   6.609  11.848  12.895  0.0150  0.0960  0.0353
17683W        W33492  12.517  18.328   3.099  0.2689 -0.0732 -0.0751
17684W        W33493  11.867  15.670  13.703 -0.1899  0.1672 -0.1141
17685W        W33494  13.611   8.144   2.696 -0.1275 -0.1036  0.1469
17686W        W33495   6.030  10.104   0.570 -0.0659 -0.0489  0.1671
17687W        W33496   9.381  13.809   0.563 -0.3354 -0.1131 -0.0154
17688W        W33497   5.158   6.912   3.769  0.5873  0.0045 -0.0795
17689W        W33498  18.857   0.160  12.691 -0.1145 -0.2377  0.3329
17690W        W33499   9.425  15.693  13.874 -0.0289  0.0254  0.1773
17691W        W33500   2.441   6.231   3.015  0.3906 -0.1621 -0.1051
17692W        W33501   6.520   4.887   3.381  0.2827 -0.0249 -0.0661
17693W        W33502  17.310   6.587  10.679 -0.0698 -0.0705  0.0301
17694W        W33503   7.827   9.643   0.175  0.0900 -0.4016 -0.1995
17695W        W33504   2.382  10.277   9.698  0.1272 -0.1279  0.1262
17696W        W33505   0.009   3.083  14.906  0.0784  0.2525  0.0831
17697W        W33506   0.544   6.331  13.996  0.0966  0.1916 -0.2336
17698W        W33507  10.702   8.022  14.915 -0.0193  0.0205 -0.0963
17699W        W33508   7.154   1.777  12.727 -0.1042  0.0983  0.0463
17700W        W33509   4.137  10.539  14.690 -0.0339 -0.1387  0.1789
17701W        W33510   1.199  15.378   2.249 -0.0949 -0.0675 -0.2953
17702W        W33511   4.165   8.666  12.485  0.0683 -0.2624 -0.0166
17703W        W33512  17.672  15.326   4.047 -0.1965 -0.1001  0.0598
17704W        W33513   0.262   6.355   3.383 -0.0482 -0.0619 -0.3018
17705W        W33514  12.017   0.235  15.043 -0.0240 -0.0542 -0.2853
17706W        W33515   8.238  10.875  14.089  0.0760  0.1876 -0.1760
17707W        W33516  16.001   6.304  11.706 -0.2625 -0.1489  0.0068
17708W        W33517  13.442   8.653  14.795 -0.2747 -0.2318 -0.3390
17709W        W33518   2.556   4.310   0.325 -0.2053  0.0284  0.1745
17710W        W33519   6.756   8.896   4.712 -0.2636  0.3848  0.0366
17711W        W33520   8.930   0.984  13.307 -0.3116  0.2161 -0.2082
17712W        W33521  10.447  11.418  13.935 -0.1868 -0.1344 -0.4702
17713W        W33522  12.466   0.384   1.412 -0.1809 -0.0324 -0.0250
17714W        W33523  11.903  11.906   3.506  0.4038  0.1548 -0.4591
17715W        W33524  14.782  11.938  12.867 -0.2604 -0.1947 -0.1665
17716W        W33525  15.966  18.773   1.235  0.1277 -0.2296  0.0022
17717W        W33526  15.246  12.632   1.744 -0.0171  0.0946  0.2464
17718W        W33527  15.972  15.470  10.998 -0.2322 -0.2335 -0.0561
17719W        W33528   4.725   1.396   1.331 -0.3294 -0.0307 -0.0779
17720W        W33529  14.611   4.059  12.767 -0.2360 -0.2923  0.2492
17721W        W33530   3.693  16.698   9.048 -0.0376  0.2810  0.0172
17722W        W33531  12.510   8.631  14.163  0.3638 -0.1241  0.1534
17723W        W33532  17.504   6.007  12.574 -0.3113  0.1164  0.0581
17724W        W33533   5.603   8.892   2.720 -0.1041  0.3573 -0.1932
17725W        W33534   9.966   6.079  12.721 -0.0736 -0.0161 -0.0389
17726W        W33535   9.845   9.294   1.144 -0.6047 -0.1539  0.2822
17727W        W33536  16.908  18.529   2.797 -0.0160  0.0074 -0.4436
17728W        W33537  14.790   1.253   1.356 -0.1625 -0.0890  0.2147
17729W        W33538  11.150   2.484   1.806 -0.3157  0.1808  0.0698
17730W        W33539   8.838  11.094   0.670 -0.0574 -0.1865  0.0761
17731W        W33540   7.115   3.014  11.522  0.0363 -0.0219 -0.1094
17732W        W33541  15.644   7.204   2.638  0.1227  0.0643 -0.1462
17733W        W33542   1.478   5.141  13.051 -0.0149 -0.0088  0.2805
17734W        W33543  12.186   5.275  13.665  0.3643 -0.2522 -0.0582
17735W        W33544  10.629  14.545   1.263 -0.2062 -0.0838  0.0103
17736W        W33545  11.514   5.516  13.747 -0.0714 -0.1907 -0.4678
17737W        W33546  17.073  10.336   3.147  0.2072 -0.1209 -0.0603
17738W        W33547  15.937  12.539  10.874  0.0022 -0.2745  0.2392
17739W        W33548   1.135   2.285   4.488 -0.2986 -0.1228 -0.1206
17740W        W33549   3.842   1.273   3.153 -0.1107 -0.0791 -0.2381
17741W        W33550   9.737  14.840   2.814 -0.0567  0.1454 -0.2641
17742W        W33551  14.930  13.618  12.707  0.0531 -0.2665 -0.1277
17743W        W33552  12.378   5.501  10.075  0.0333 -0.1503  0.0363
17744W        W33553  14.632   3.107   4.276 -0.2096  0.2583 -0.1546
17745W        W33554   2.764  16.654  11.610 -0.0811  0.2088  0.2529
17746W        W33555   6.950   2.520  13.438  0.2358 -0.1675 -0.1497
17747W        W33556  13.194   0.856   0.305  0.1422 -0.0158 -0.1936
17748W        W33557   2.622  13.679  14.892  0.3275 -0.1058  0.0530
17749W        W33558   1.154  17.986  11.474  0.3204 -0.2704  0.1438
17750W        W33559   3.778   2.458   1.305 -0.2847  0.1005  0.0540
17751W        W33560  17.548   4.108   5.024  0.0512 -0.2931 -0.0722
17752W        W33561   4.634  13.863  15.137  0.2586 -0.1930  0.1592
17753W        W33562   0.303  10.821  13.661  0.1437 -0.0298  0.4556
17754W        W33563  14.631  13.712  11.000 -0.0128 -0.1597  0.1103
17755W        W33564  12.472   3.750   4.247  0.1145  0.2437  0.0847
17756W        W33565  13.741   1.651  11.343  0.0977 -0.3901 -0.0519
17757W        W33566   2.965  18.202   2.174 -0.1042  0.0485  0.1466
17758W        W33567   5.154   1.549  10.377  0.1367  0.1699  0.2567
17759W        W33568  14.409   6.701  10.494 -0.1046  0.1988  0.1896
17760W        W33569   2.928  10.615  13.290 -0.0569 -0.2668 -0.0201
17761W        W33570   2.062   1.487  10.524  0.1250 -0.0279  0.3220
17762W        W33571  15.564   1.577   0.002  0.0103 -0.0367  0.1154
17763W        W33572   6.310  13.771  12.358  0.0542 -0.1941  0.1456
17764W        W33573   9.008  16.620  14.518 -0.0431  0.0999 -0.1673
17765W        W33574  15.525  11.511   3.980  0.1480  0.0819 -0.3584
17766W        W33575   9.430   8.359  13.891 -0.1720 -0.0698 -0.1193
17767W        W33576   4.285   3.094  10.520  0.0806 -0.0572  0.3624
17768W        W33577  15.163  16.410   4.665 -0.0484 -0.0934  0.0260
17769W        W33578  15.308  16.014  10.376  0.0400 -0.0711 -0.2984
17770W        W33579   4.597  17.732  12.147 -0.0160 -0.0839 -0.0373
17771W        W33580  11.207  13.627   1.946 -0.0584 -0.0176 -0.1040
17772W        W33581  10.588  15.289   3.452 -0.0305 -0.2778  0.3102
17773W        W33582  14.948   4.695   0.452 -0.1511 -0.0231  0.0918
17774W        W33583   9.721   4.274  14.329  0.0808  0.0431  0.0674
17775W        W33584  12.976   5.696   2.881 -0.1862  0.0928 -0.0326
17776W        W33585   4.027   8.148  11.797 -0.2082 -0.0013  0.0811
17777W        W33586   4.298   2.521   0.985  0.0927  0.2998 -0.1539
17778W        W33587   5.033  14.488  14.470 -0.1952  0.1173  0.3578
17779W        W33588  17.945  15.896  13.826 -0.1492  0.3424  0.4547
17780W        W33589   1.198   6.515  12.567 -0.2841 -0.0657 -0.2343
17781W        W33590  15.494  17.057   1.410 -0.0303  0.0148  0.0058
17782W        W33591  17.160   6.606  12.312  0.1494  0.2046 -0.1295
17783W        W33592  12.277   1.533  14.758 -0.1045  0.0309 -0.2811
17784W        W33593  11.730   1.016   2.552  0.2697 -0.1477  0.0193
17785W        W33594  17.620  10.250   4.198  0.0590 -0.0857  0.1676
17786W        W33595   0.810  17.009   0.092 -0.0150 -0.2140 -0.1398
17787W        W33596  13.072  17.839  12.504 -0.0017  0.1450 -0.2054
17788W        W33597  14.275   4.546   0.001 -0.1142 -0.0508  0.4714
17789W        W33598   9.243   4.772  11.400 -0.1108  0.1469  0.0302
17790W        W33599   3.870   5.187   3.125 -0.1406 -0.0942 -0.1235
17791W        W33600   5.926  12.884   1.872 -0.2095 -0.1143  0.1465
17792W        W33601   3.965   2.832  14.118 -0.2395  0.0564 -0.0084
17793W        W33602  13.450   6.145   4.615  0.2634  0.0469  0.1916
17794W        W33603   3.444   5.351  11.778 -0.6162 -0.3888  0.2404
17795W        W33604  11.369  15.287   2.179  0.1277  0.1341 -0.0363
17796W        W33605   1.693   4.892   2.384 -0.3522 -0.3644  0.2438
17797W        W33606  12.276   8.813   0.194 -0.1039 -0.0304 -0.0819
17798W        W33607  18.123   1.229  12.590  0.0077 -0.2072  0.2220
17799W        W33608   2.679  12.913   0.105  0.1525 -0.4405 -0.0271
17800W        W33609   1.631  16.277  12.519  0.0723 -0.1270 -0.2223
17801W        W33610   4.886   2.827  11.402  0.0053  0.0082  0.1423
17802W        W33611   6.943  11.310   1.605  0.1799 -0.0920 -0.0703
17803W        W33612   3.188  17.034  14.767 -0.2705 -0.0883  0.0476
17804W        W33613   3.372  15.380  14.205  0.0482  0.0466  0.2838
17805W        W33614  11.009  18.687  15.203  0.0930 -0.3071 -0.2878
17806W        W33615   9.764   1.753  11.999 -0.2550 -0.0192  0.1267
17807W        W33616  11.361  12.757  14.892  0.0620  0.0405  0.1346
17808W        W33617   9.307   5.228  13.390  0.0801  0.0018 -0.1491
17809W        W33618   5.446   8.072   1.137 -0.0162  0.0026  0.0350
17810W        W33619  12.278   6.239  13.962 -0.0609  0.0980  0.0366
17811W        W33620  11.927   5.303  10.175 -0.1226  0.0338  0.1160
17812W        W33621   8.541  10.683   2.386  0.3172 -0.0063 -0.1414
17813W        W33622   8.924  13.970  12.598 -0.2608 -0.1422  0.2888
17814W        W33623   4.185   6.097   2.544  0.1470  0.1757 -0.0817
17815W        W33624  16.597  16.261   4.044  0.2710 -0.1287 -0.1299
17816W        W33625  10.077   5.674  11.717  0.0726  0.0310 -0.0726
17817W        W33626  15.538   9.478   1.816 -0.0205  0.0853 -0.0019
17818W        W33627   9.509   8.636   0.598 -0.0311 -0.0860 -0.1755
17819W        W33628  19.065  10.878   4.036 -0.0024 -0.2271  0.2445
17820W        W33629   3.222   6.017  13.860  0.2623  0.1725  0.0115
17821W        W33630  15.995  11.332  11.333 -0.0948  0.0043 -0.0306
17822W        W33631  13.891  15.992   4.759  0.1293  0.3802 -0.0970
17823W        W33632  12.458   8.085   5.227  0.1964  0.4665 -0.0004
17824W        W33633   2.820   7.090   5.699  0.1368 -0.0415 -0.1189
17825W        W33634   3.823  11.921  14.364  0.0403 -0.3346 -0.1624
17826W        W33635  15.938   7.300   0.198 -0.0584  0.0049 -0.0621
17827W        W33636   5.814  15.398  12.393  0.0406 -0.1432  0.1565
17828W        W33637   1.899   2.713   2.127 -0.1612  0.2369  0.2540
17829W        W33638  14.536   5.397   0.162  0.2674  0.2905  0.1179
17830W        W33639  12.764  14.798   1.312  0.0586  0.2161 -0.0883
17831W        W33640   9.390  17.405  13.764  0.0438  0.2646  0.0600
17832W        W33641   7.262  16.137  14.642 -0.1184  0.2894 -0.3096
17833W        W33642   2.136  12.451   5.274 -0.2468  0.4538  0.1079
17834W        W33643   5.224   1.872   1.162  0.0011  0.2604 -0.2208
17835W        W33644   2.773   5.272   1.905  0.2075  0.0135 -0.1318
17836W        W33645   5.896  14.420   1.447 -0.1202 -0.0021 -0.1683
17837W        W33646   2.810  16.782  12.936 -0.2037  0.1452  0.2166
17838W        W33647   4.829   6.977  12.864  0.0196  0.1652 -0.1006
17839W        W33648   2.473  10.067   3.208  0.0575  0.2627  0.1072
17840W        W33649   9.195   7.574   4.939  0.0485  0.1121  0.1039
17841W        W33650   9.751  18.646   3.432  0.0124  0.2802 -0.0557
17842W        W33651  18.590  14.818  12.681 -0.2102  0.4367  0.2106
17843W        W33652  13.172  17.889   4.490  0.0715  0.0580  0.1315
17844W        W33653  13.687   8.928  12.178 -0.1963 -0.0910 -0.0510
17845W        W33654   6.315   6.524   0.447  0.0433  0.2251  0.0608
17846W        W33655   8.668  11.944   5.423 -0.2022 -0.3044 -0.2625
17847W        W33656   4.705   3.371  12.547 -0.0654 -0.2250  0.2136
17848W        W33657  16.632  18.833  13.469  0.1312 -0.0647 -0.1115
17849W        W33658  15.624   9.410  11.727  0.2341 -0.1240  0.0140
17850W        W33659   2.652  10.458   0.170  0.1957  0.1102  0.1825
17851W        W33660   6.829  15.895   0.936  0.0833  0.1440  0.3422
17852W        W33661   6.202   0.128   0.385  0.1563  0.1281  0.0169
17853W        W33662  17.131  11.710   2.809 -0.0996 -0.0375 -0.0933
17854W        W33663  10.661   0.168   4.872 -0.0954 -0.0330  0.2024
17855W        W33664   8.477  10.275  11.841  0.1893  0.1151  0.3560
17856W        W33665  17.439  11.160   4.192  0.1279 -0.1154 -0.2495
17857W        W33666   0.947  14.200   1.050 -0.0321 -0.1739 -0.1450
17858W        W33667   5.150   9.630   1.669 -0.1663  0.0105 -0.1033
17859W        W33668   7.831  14.102   3.574 -0.2362 -0.0110  0.0044
17860W        W33669   1.136  14.363   1.516  0.0333 -0.0262  0.1145
17861W        W33670  14.022  18.147  14.939  0.0223  0.0798  0.1362
17862W        W33671  17.843   5.442   1.905  0.1534 -0.0932  0.1176
17863W        W33672   4.474  10.666   3.856 -0.3411  0.0434  0.0962
17864W        W33673   8.577   2.193   0.941  0.2469 -0.0357  0.1213
17865W        W33674   4.256   5.502   4.539 -0.2171 -0.1127 -0.0350
17866W        W33675  15.315  18.532   0.461  0.2682 -0.0391  0.2938
17867W        W33676   4.235  17.714  14.565  0.1085  0.0053  0.0353
17868W        W33677  17.455   3.593   5.901  0.1299  0.0281  0.1557
17869W        W33678  13.357   1.701   1.849  0.3049  0.0505 -0.0123
17870W        W33679   4.058  16.305   9.659 -0.2298  0.1734  0.1113
17871W        W33680   4.480  17.312   1.313  0.1263 -0.3071 -0.3503
17872W        W33681   5.691  15.860  12.249  0.2213  0.0188 -0.2155
17873W        W33682   6.652  15.721   3.690 -0.0229  0.1424 -0.0340
17874W        W33683   5.432   0.668   3.899 -0.0137  0.0207  0.0140
17875W        W33684   0.305  15.480   1.796 -0.1734 -0.1768 -0.0106
17876W        W33685  10.901  12.201   5.073 -0.1881  0.0048 -0.0187
17877W        W33686  11.189  17.874   9.741  0.1113  0.0386 -0.1856
17878W        W33687  17.524   5.423  10.695  0.1133  0.4021 -0.1148
17879W        W33688   5.234   1.201  11.919  0.1139 -0.2248 -0.1116
17880W        W33689   6.408   4.076  11.866 -0.3003 -0.0818 -0.0572
17881W        W33690   7.816  13.467  10.470  0.1928 -0.1414  0.0166
17882W        W33691   5.556  18.540   5.198 -0.1932 -0.3496 -0.0105
17883W        W33692   0.283   8.840  10.613  0.3478  0.0536 -0.1989
17884W        W33693   7.437   0.326   5.866  0.2861  0.0874  0.3618
17885W        W33694   8.799  13.741  13.229 -0.1774  0.2352  0.2009
17886W        W33695   7.314  17.446  15.192 -0.0756  0.1171 -0.1338
17887W        W33696   9.587  15.995   1.085  0.0454  0.0530  0.0068
17888W        W33697   4.624  12.610   3.296 -0.0646  0.1432 -0.0466
17889W        W33698  12.718  14.153   3.647  0.1655  0.0301  0.2990
17890W        W33699   6.827   5.556   4.709 -0.1032  0.1693  0.2865
17891W        W33700   0.846   3.787   3.798  0.0261  0.0757  0.0318
17892W        W33701   3.123   8.316  12.558 -0.2695 -0.2478 -0.1290
17893W        W33702  17.010   3.062   5.020  0.0290  0.1122  0.1382
17894W        W33703   8.061  17.243   2.357  0.0920  0.2648 -0.2676
17895W        W33704  18.878  14.567   4.177 -0.3870  0.0632  0.4804
17896W        W33705  10.148  11.261   2.998 -0.0999 -0.0104 -0.0716
17897W        W33706  17.817  10.297  14.207 -0.2067  0.1106 -0.0649
17898W        W33707   0.959   7.458   1.144 -0.0904 -0.1370  0.0762
17899W        W33708   4.412  16.779   4.340 -0.2653  0.0645  0.1310
17900W        W33709  14.292  17.647  13.341  0.1811  0.1775  0.1148
17901W        W33710   4.291  14.117   0.708  0.1427  0.3854  0.0424
17902W        W33711   8.241   0.559  10.962 -0.0173  0.0983 -0.0421
17903W        W33712   4.908   4.964   1.717  0.3957 -0.2190 -0.2265
17904W        W33713  19.140   3.458  13.840  0.2964  0.1158 -0.1153
17905W        W33714   5.213  18.187   2.226  0.1480  0.3723  0.0601
17906W        W33715   0.910   0.841   1.066  0.0439  0.2663 -0.1734
17907W        W33716   5.760  13.356   0.839  0.4406  0.1760 -0.1112
17908W        W33717  10.552   9.039  15.138  0.1312  0.1622 -0.2351
17909W        W33718  10.058   1.300   2.336  0.1393 -0.0483  0.2157
17910W        W33719  14.899  11.773  13.338  0.0801  0.1667  0.0166
17911W        W33720   3.005  12.971  14.425 -0.0702  0.1920 -0.1764
17912W        W33721   3.882  16.226   0.695  0.2308 -0.2253 -0.3912
17913W        W33722   9.021   8.486  12.247 -0.4414  0.2166  0.1121
17914W        W33723   4.271   9.185  14.948  0.3382 -0.0740  0.1235
17915W        W33724   5.993   3.923   0.838 -0.2609  0.0451 -0.1404
17916W        W33725   4.077  13.768   1.035  0.0616  0.0847 -0.1872
17917W        W33726  14.191  13.171   6.459 -0.0047 -0.2699 -0.2932
17918W        W33727   3.449  16.578  11.012 -0.0338 -0.0373  0.3064
17919W        W33728   2.763   6.064  10.732  0.1542 -0.3196 -0.1397
17920W        W33729  10.909  16.656   1.293  0.0959  0.0275 -0.0868
17921W        W33730  16.751   7.363   2.121 -0.3916 -0.1984 -0.1505
17922W        W33731  13.859  11.372   1.781  0.4797 -0.1958  0.1273
17923W        W33732   6.162   6.057  13.234 -0.0796 -0.1610  0.4399
17924W        W33733  14.974   8.421   2.128  0.1343  0.0153 -0.0670
17925W        W33734  12.723   9.480   2.776  0.2294 -0.0570 -0.3325
17926W        W33735   9.866   5.848  11.329  0.1078 -0.0752  0.0264
17927W        W33736  10.210   4.164  12.790  0.0052 -0.4452  0.0818
17928W        W33737  18.801   5.227  14.783 -0.1507  0.0643 -0.1137
17929W        W33738   8.791  12.012   3.099  0.2981 -0.0165 -0.5519
17930W        W33739   0.072  13.378   2.859  0.4426  0.3811  0.1304
17931W        W33740   6.770  11.238  11.744  0.0723  0.1700  0.0005
17932W        W33741  12.126   9.080   4.386 -0.2300  0.1315 -0.2252
17933W        W33742  16.642   3.924   0.114  0.3095 -0.2212 -0.0175
17934W        W33743  13.410   8.634   4.346 -0.3821 -0.2815 -0.1805
17935W        W33744  15.656  11.867  13.278 -0.0885 -0.0118  0.4187
17936W        W33745   7.613   0.689   1.633  0.1583 -0.3153 -0.1420
17937W        W33746   0.309   3.773  14.457 -0.1697 -0.0692 -0.2408
17938W        W33747  11.303  15.128   5.781  0.0662 -0.0869  0.0637
17939W        W33748  12.270  15.678  10.995  0.2043  0.2194 -0.2460
17940W        W33749  13.400  10.767  11.044 -0.1883 -0.3013 -0.0305
17941W        W33750  12.345  18.805   3.160  0.0973 -0.1357  0.0209
17942W        W33751  14.677   8.906   5.532  0.1311  0.0656  0.0350
17943W        W33752  11.172  11.789   1.389  0.0495  0.0876 -0.0769
17944W        W33753  11.868  17.455  11.864 -0.0739 -0.4949 -0.2340
17945W        W33754   9.099  15.164   4.740  0.0973  0.0532 -0.2992
17946W        W33755  10.201  10.236  11.593  0.1291  0.1778  0.0294
17947W        W33756   5.535   0.303   3.132 -0.0461 -0.0563 -0.3281
17948W        W33757   6.117  15.353  13.528 -0.0789  0.0127  0.4126
17949W        W33758  12.600  16.453  14.672 -0.1411  0.0434 -0.1803
17950W        W33759  16.422  14.047   4.779 -0.2761 -0.2860  0.1424
17951W        W33760   9.039   8.057  14.179  0.2478  0.3049 -0.2001
17952W        W33761   6.131  14.980  14.736  0.1525  0.0665 -0.1532
17953W        W33762   7.315  13.369   0.287  0.1084  0.2353 -0.1334
17954W        W33763  13.372   1.610   2.485 -0.0280  0.1130 -0.1730
17955W        W33764   6.871  16.204   4.693 -0.0351  0.3701  0.1045
17956W        W33765   1.468  13.874  12.964  0.0024  0.1182 -0.1879
17957W        W33766  17.662  16.358  11.300  0.1593 -0.0569  0.2081
17958W        W33767  16.818  17.087  13.724 -0.1004 -0.1531 -0.2372
17959W        W33768   1.985  15.777   3.351 -0.0498  0.2729 -0.1432
17960W        W33769   5.297   8.409   2.155  0.2333 -0.1605 -0.3627
17961W        W33770  14.559   6.265  14.305  0.0408 -0.0242 -0.1872
17962W        W33771   2.241   7.499   0.119  0.0282  0.1143 -0.1380
17963W        W33772   1.306   6.140  14.269 -0.0218  0.2233 -0.3419
17964W        W33773   7.730   0.644   0.004  0.0459  0.1693  0.1619
17965W        W33774   4.525   6.451  11.977 -0.0073  0.1881  0.0213
17966W        W33775   9.901  14.275   2.868  0.2289 -0.0415  0.1360
17967W        W33776  13.518  12.749  13.782 -0.3454 -0.0650 -0.0114
17968W        W33777   9.392  18.239   5.045  0.0403 -0.2863  0.0981
17969W        W33778   5.509   5.569  11.065  0.2036 -0.0649  0.1083
17970W        W33779   8.592   1.817   3.435 -0.1575  0.0020  0.1558
17971W        W33780   4.411   8.277  12.165 -0.3793 -0.1864  0.1237
17972W        W33781   1.843   8.016  10.536 -0.2326  0.1469  0.1668
17973W        W33782   4.479   4.771   9.931 -0.1970  0.4735 -0.1268
17974W        W33783   8.949  17.729   3.120 -0.0486  0.0835  0.1677
17975W        W33784   7.981  15.092   1.540  0.1668  0.0811  0.4025
17976W        W33785   0.259   5.978  11.924 -0.0495 -0.1952 -0.3844
17977W        W33786   9.815   4.893  15.084 -0.0439 -0.2107 -0.0420
17978W        W33787   9.294  10.260   4.727 -0.5295  0.3359  0.1143
17979W        W33788  12.169   6.731   0.191 -0.1727 -0.1663  0.1909
17980W        W33789  14.526  12.244  14.373 -0.0403  0.0791  0.0653
17981W        W33790  11.794  12.603   0.813 -0.2429  0.0979  0.0436
17982W        W33791  14.488  18.021   3.302  0.0683 -0.1949 -0.2780
17983W        W33792  15.246  13.028  10.654 -0.1648 -0.0047  0.0186
17984W        W33793   7.049   3.871  12.522 -0.2195  0.0444  0.0259
17985W        W33794  18.793   4.360   0.356  0.0858  0.1589  0.2861
17986W        W33795   1.402   7.996   3.215  0.2311  0.0522  0.0911
17987W        W33796   0.816  10.698   1.371 -0.0517  0.0043 -0.0823
17988W        W33797   2.526  13.104  13.248  0.1650 -0.2447 -0.0295
17989W        W33798   7.482  19.066  12.502 -0.1064 -0.3777 -0.2362
17990W        W33799   7.146   9.164  13.175  0.0003 -0.0664  0.1573
17991W        W33800   6.958   9.344   3.774  0.2471  0.1610  0.0825
17992W        W33801  17.360   4.294   0.381 -0.0833 -0.1062  0.0105
17993W        W33802   8.819  14.669  13.715  0.1679  0.0102  0.1796
17994W        W33803  10.633  16.046   0.671 -0.2552  0.1885  0.1359
17995W        W33804  17.036  11.676  13.005  0.1671  0.0409 -0.2122
17996W        W33805   5.312   2.142   4.041  0.2005  0.3395  0.1621
17997W        W33806  12.813  14.616  11.556 -0.5766  0.0506 -0.0176
17998W        W33807   5.784  18.122  11.214 -0.4149  0.1713 -0.1501
17999W        W33808  16.487  14.251   3.089 -0.2659 -0.0115  0.2054
18000W        W33809   5.214  11.757   0.621  0.3310 -0.4545 -0.2276
18001W        W33810  16.977  18.718   0.425 -0.2231  0.2377 -0.4582
18002W        W33811  18.269   6.503  14.263 -0.0632 -0.2057 -0.2342
18003W        W33812  15.573   8.748   4.161 -0.1421 -0.0342 -0.0848
18004W        W33813   9.588  18.147  14.313 -0.4493  0.0716 -0.1916
18005W        W33814   3.931  17.569   4.560 -0.1939 -0.0787  0.0147
18006W        W33815   6.555   6.215   2.887 -0.3147  0.0504 -0.3122
18007W        W33816   3.548   1.690   3.876  0.0556 -0.0587  0.3416
18008W        W33817  17.895   3.837   2.792  0.0809 -0.1046  0.0857
18009W        W33818   6.223   2.535  12.099  0.3347  0.0098 -0.0348
18010W        W33819  12.061   3.996  10.022  0.1529 -0.1874  0.2253
18011W        W33820   0.625  16.526  14.686 -0.1765  0.4328  0.2457
18012W        W33821  16.284   4.217  10.380 -0.1061 -0.0950  0.0978
18013W        W33822   7.930  16.918  11.450  0.1989  0.1250 -0.0124
18014W        W33823   1.532   9.542   3.657  0.1122 -0.1635 -0.0357
18015W        W33824   9.895  16.243   1.355 -0.0747  0.2864  0.3396
18016W        W33825  15.062  10.766   2.129 -0.3535  0.0738 -0.0216
18017W        W33826  14.895  16.491   0.988 -0.0331  0.0851 -0.0495
18018W        W33827  11.958   9.567   3.200 -0.1086 -0.1119 -0.2283
18019W        W33828   9.570   6.595  14.141  0.0446 -0.3468  0.2814
18020W        W33829  11.023  13.331  11.288  0.0888 -0.0456  0.1391
18021W        W33830   0.263   8.289   2.408 -0.0582  0.4898 -0.3765
18022W        W33831   2.307   7.036   0.309  0.2931  0.2371 -0.2812
18023W        W33832   5.584   3.547   2.127  0.1137 -0.1794  0.1065
18024W        W33833  17.490   7.799   3.991 -0.0719  0.3523  0.0533
18025W        W33834   1.494  11.736  12.469  0.1368 -0.1711  0.1211
18026W        W33835  14.158   0.140   3.181 -0.1584  0.2183  0.2361
18027W        W33836   9.857   3.969  12.067 -0.3390  0.2235  0.0245
18028W        W33837   0.263  16.918   5.267 -0.0830  0.2506  0.0211
18029W        W33838   3.627  15.719  12.476  0.3116  0.1350 -0.1630
18030W        W33839  11.901   5.978  13.145 -0.2325  0.0018  0.0620
18031W        W33840  17.155  12.368   5.230 -0.0231  0.0149 -0.2747
18032W        W33841  12.142   9.430   1.419  0.1121 -0.0407  0.0346
18033W        W33842   6.180  17.999   0.130 -0.1922  0.0581  0.2520
18034W        W33843   5.440  12.207   0.778  0.0004 -0.4305  0.2572
18035W        W33844   4.496   6.018   2.953  0.1526  0.2850 -0.0571
18036W        W33845   5.465   8.958   5.148  0.0962 -0.1635 -0.3241
18037W        W33846   7.548  16.368  12.739  0.0730  0.1155 -0.1091
18038W        W33847   4.343   4.793   0.857  0.2598  0.1979 -0.3653
18039W        W33848  16.565  12.595   6.097  0.1874  0.2629 -0.2868
18040W        W33849  16.732   7.766   5.253 -0.1069 -0.0047 -0.1352
18041W        W33850  16.679  10.058  11.159  0.0537  0.0053 -0.1991
18042W        W33851  14.183   0.370  13.559 -0.2717  0.0735 -0.2388
18043W        W33852   3.680  10.256  11.977  0.2888 -0.1668  0.0298
18044W        W33853  10.447  12.441   0.872  0.3880 -0.2206 -0.3944
18045W        W33854  17.237   8.659  13.362 -0.3347  0.1691 -0.0167
18046W        W33855   7.156   8.837  11.009  0.3229 -0.0706 -0.1745
18047W        W33856  14.254  10.285   2.088  0.1102  0.1133 -0.1761
18048W        W33857  14.957  10.610  13.364 -0.0030 -0.1947  0.2419
18049W        W33858   9.500  10.326   3.710  0.0128  0.4182 -0.3437
18050W        W33859   4.739  16.940  13.286  0.2931  0.2998 -0.2027
18051W        W33860   5.241  12.939  12.185  0.0020 -0.3891 -0.1433
18052W        W33861   0.927   3.109  13.431  0.3880  0.0971  0.0950
18053W        W33862  14.801   4.548   1.036  0.0659 -0.0425  0.2336
18054W        W33863  18.661   6.113   5.921 -0.1139 -0.2217  0.2169
18055W        W33864   1.997  16.975   0.133 -0.1496 -0.0489 -0.2539
18056W        W33865   2.432   3.040  11.214  0.0681  0.0384 -0.0009
18057W        W33866   6.175   5.223   2.328  0.1954  0.1867  0.2013
18058W        W33867  15.818  16.319   0.981  0.0372 -0.0033  0.2445
18059W        W33868  10.447   6.462   1.582  0.3502 -0.1559 -0.0161
18060W        W33869  17.726   4.425   3.363 -0.3833 -0.0330 -0.0466
18061W        W33870  10.708   5.395   0.178  0.0763  0.2921 -0.1250
18062W        W33871   0.744  15.320  12.973  0.1259 -0.1119  0.4181
18063W        W33872  10.680  10.738  12.305  0.2216  0.1656  0.0387
18064W        W33873   0.176  17.267  10.647 -0.0601 -0.0426 -0.0162
18065W        W33874   7.057   7.924  12.755  0.1417  0.0790  0.0770
18066W        W33875  10.180   5.473   1.922  0.1259 -0.2298  0.1979
18067W        W33876  16.115   4.218   0.343  0.2160  0.1195  0.1704
18068W        W33877   3.053   8.718  10.985  0.1041 -0.2862  0.2696
18069W        W33878   3.167   9.408   1.230 -0.0544 -0.2272  0.0308
18070W        W33879   9.834  17.485  13.992 -0.2697 -0.2107 -0.1827
18071W        W33880   7.170   9.252   0.047 -0.6232  0.2367  0.1730
18072W        W33881  18.834   3.218  14.174  0.0348  0.3402 -0.0622
18073W        W33882  15.309  14.014  10.185  0.5334  0.0260 -0.0439
18074W        W33883   9.646   8.945   2.968 -0.1983  0.0288  0.0600
18075W        W33884  16.018   2.678   0.995  0.2430 -0.2786 -0.3481
18076W        W33885   6.957   3.593  13.429  0.0842 -0.0551 -0.0830
18077W        W33886   9.611   5.423  11.583  0.1214  0.1722  0.0103
18078W        W33887  14.474   5.739   3.800  0.1258  0.1957 -0.2288
18079W        W33888  15.726  12.345   0.492 -0.0490  0.0267 -0.3988
18080W        W33889   6.850  18.820  12.624 -0.2133  0.0778  0.3226
18081W        W33890  11.678  11.813   1.206  0.2478  0.0316  0.0173
18082W        W33891  12.958  11.275   4.713  0.0640  0.1838  0.1129
18083W        W33892  19.151   0.083   4.747 -0.0661  0.0633  0.1269
18084W        W33893   7.231  17.461   3.483 -0.4942 -0.0073 -0.0401
18085W        W33894   8.348   6.627   2.887 -0.1021  0.1747 -0.0591
18086W        W33895  11.279  15.636  14.134  0.1841 -0.4131  0.2962
18087W        W33896   0.647  14.490  13.337  0.2127  0.2835 -0.0600
18088W        W33897   6.265  16.151   0.200  0.0913  0.0233 -0.0724
18089W        W33898   5.404   0.885  13.205  0.0539  0.2937  0.1843
18090W        W33899  13.321   9.439   0.630 -0.0600 -0.1830  0.1535
18091W        W33900   6.251   6.579  13.248  0.1290  0.2130 -0.0035
18092W        W33901  14.669   4.167   2.501 -0.2994 -0.1397  0.2764
18093W        W33902  13.524  12.627   4.490 -0.2731 -0.1798 -0.0100
18094W        W33903   4.698   3.543   5.164  0.1578  0.0212 -0.0258
18095W        W33904  11.971   2.157  10.584  0.0644  0.3876 -0.1058
18096W        W33905  18.381  11.483  12.824 -0.0587  0.2633 -0.0884
18097W        W33906  18.914  17.331  10.929 -0.1862  0.0395 -0.0105
18098W        W33907  11.345   9.239  11.752  0.0842 -0.0496  0.0406
18099W        W33908   9.289  18.018   0.492  0.1143 -0.0586  0.1550
18100W        W33909   7.305   5.137   0.667  0.2974  0.1089 -0.1990
18101W        W33910   3.894  18.048   4.655 -0.0221 -0.0919  0.1786
18102W        W33911  18.991   8.670  12.768  0.0525 -0.3067 -0.0429
18103W        W33912   7.454  17.317   0.485 -0.0180  0.3650  0.1664
18104W        W33913  13.993  14.017  13.740  0.1393  0.0544  0.1000
18105W        W33914  16.949  10.965   3.427  0.0780  0.3884  0.1282
18106W        W33915  13.844   9.630   1.285  0.5620  0.0716  0.0876
18107W        W33916   0.578  15.537  14.779 -0.1064  0.2735  0.2090
18108W        W33917   2.327  17.127  12.421 -0.1822  0.0127  0.3196
18109W        W33918  18.831  18.703   2.686 -0.3680  0.1940  0.1102
18110W        W33919   3.774  15.772   0.849  0.1451 -0.0963  0.2301
18111W        W33920  12.011   5.140  11.916 -0.2547 -0.0631 -0.1454
18112W        W33921  13.316   2.233  14.518 -0.3862  0.0209  0.0806
18113W        W33922   2.561   1.791  10.741  0.2591 -0.3425 -0.0673
18114W        W33923   6.006  15.434  14.694 -0.0847  0.0467  0.3007
18115W        W33924   9.180   2.663   5.195  0.0594 -0.1999 -0.2548
18116W        W33925   2.881  17.080   1.541 -0.1577  0.0583  0.0174
18117W        W33926  14.180   5.356   0.472 -0.0734  0.0350 -0.2282
18118W        W33927   1.210   7.016  12.420  0.0753 -0.1350 -0.2661
18119W        W33928  18.603  13.883  11.557  0.1758 -0.0384  0.1722
18120W        W33929   2.627  16.590   1.688  0.2499 -0.1227  0.0402
18121W        W33930  15.293   3.186  13.874 -0.1522 -0.2928 -0.1567
18122W        W33931  14.008   3.651   0.175  0.1565 -0.0581 -0.0588
18123W        W33932   0.253   7.226  14.377 -0.2302  0.2432 -0.1015
18124W        W33933   2.601   7.685   3.760 -0.1204 -0.0243  0.2107
18125W        W33934  12.148   2.130  15.041  0.3127 -0.2764 -0.1881
18126W        W33935   3.848   1.900   4.793 -0.0455  0.0378 -0.1799
18127W        W33936  11.199   0.307   0.249  0.0176  0.3163 -0.2240
18128W        W33937  18.667  17.114   4.764 -0.0506  0.2619 -0.2057
18129W        W33938   1.050  10.734  12.343  0.0470 -0.0731  0.0103
18130W        W33939  14.105   9.152   1.918  0.1326 -0.1455  0.0104
18131W        W33940   5.645  12.740   4.445  0.0342 -0.0720  0.2537
18132W        W33941  15.754  13.157  11.487  0.2138  0.3637  0.0238
18133W        W33942  12.632   2.443   3.646  0.1185 -0.1263  0.0464
18134W        W33943  13.015   1.612  13.811  0.4112  0.0216 -0.1321
18135W        W33944   0.186   4.001  14.896 -0.0142 -0.0124 -0.2286
18136W        W33945   6.228  10.469  13.951 -0.1464  0.0188 -0.0130
18137W        W33946  14.854   0.874  13.658 -0.0101  0.2998  0.1181
18138W        W33947  12.739   4.109  14.895 -0.1053 -0.0020 -0.1047
18139W        W33948   8.230  17.663   3.954 -0.0996  0.3378  0.3393
18140W        W33949  10.832  10.161   4.122  0.2267  0.0794  0.0950
18141W        W33950   5.835   6.731   3.368  0.2525 -0.1533 -0.0482
18142W        W33951   9.904  17.732  15.202 -0.1227  0.2669  0.0239
18143W        W33952  16.871   5.987  11.323  0.2845 -0.1660 -0.0832
18144W        W33953   0.450  18.621   5.157 -0.2001  0.0608  0.0485
18145W        W33954  13.824   7.370   0.505  0.1847 -0.0063  0.2337
18146W        W33955   6.378  17.931  10.498  0.2554  0.1299 -0.3611
18147W        W33956   1.748   2.701   5.633  0.0180  0.1534  0.0289
18148W        W33957   9.739   4.591   3.168  0.0010 -0.0276  0.1073
18149W        W33958   7.944  18.870   0.497 -0.0825 -0.0738  0.0269
18150W        W33959   6.853  14.793   3.287 -0.0913 -0.1095  0.0072
18151W        W33960   6.740   0.045   4.261 -0.1478 -0.0235  0.1992
18152W        W33961  10.765   6.169   0.830  0.0917 -0.0752  0.0926
18153W        W33962   4.705   9.797   1.326 -0.2647  0.0825  0.1304
18154W        W33963   9.192  18.100  14.603  0.2750  0.2931 -0.0619
18155W        W33964  17.752  11.708  13.653 -0.0503 -0.0730  0.0592
18156W        W33965   2.368   0.895  12.076 -0.0210  0.0537  0.2344
18157W        W33966  18.081  14.154   9.326  0.0374  0.3939 -0.0470
18158W        W33967   1.513   2.741  10.757 -0.0839  0.0257 -0.1184
18159W        W33968  11.429  13.384   0.266 -0.2378 -0.3491  0.1793
18160W        W33969   1.821   6.741   4.162  0.1272 -0.1813 -0.0112
18161W        W33970   7.253   1.361   5.049  0.1553  0.0769  0.0834
18162W        W33971  10.734  15.576   1.949  0.2817 -0.0967  0.1770
18163W        W33972   8.455   3.492  11.030  0.2939 -0.0379 -0.0427
18164W        W33973  10.242  13.215  10.811  0.1474  0.0710  0.2075
18165W        W33974  11.029   9.321   2.435  0.1300 -0.2688 -0.1318
18166W        W33975   8.830  11.015   1.712 -0.2360 -0.1803  0.2610
18167W        W33976   2.082   6.494   5.139 -0.2316  0.0638 -0.0368
18168W        W33977  19.109   9.826   5.069 -0.1048 -0.2224  0.3641
18169W        W33978  10.171  10.590   2.310  0.1438  0.1784  0.1118
18170W        W33979   0.930   7.686  10.313 -0.0647  0.1431 -0.2243
18171W        W33980  14.564   3.309  11.001 -0.1267  0.3024  0.1732
18172W        W33981   4.271  11.986   3.704  0.0694  0.2330 -0.1449
18173W        W33982  10.570   7.043   4.734 -0.2438 -0.0866  0.1905
18174W        W33983   9.018   4.688  10.064  0.4646  0.1081  0.0734
18175W        W33984   4.610   4.273   1.083  0.4521 -0.1972 -0.1077
18176W        W33985   0.645  11.180  13.842  0.2170 -0.0102 -0.0339
18177W        W33986  12.438   4.465   2.669  0.0553 -0.1660  0.0072
18178W        W33987  17.646   7.239   0.410  0.4200  0.0396  0.1675
18179W        W33988  15.198   2.418   4.319  0.0233  0.0977  0.0165
18180W        W33989   3.600  10.727  14.679  0.1339  0.0745 -0.2676
18181W        W33990   6.614  10.145   5.186 -0.2503 -0.1716  0.0874
18182W        W33991  10.088   3.081  12.680  0.3516 -0.2070  0.1946
18183W        W33992  13.488  15.931  13.578  0.0736 -0.1992  0.2938
18184W        W33993  10.579   0.622   0.917 -0.1837 -0.0265 -0.0044
18185W        W33994  15.176   9.161   1.003  0.1344 -0.2776  0.0090
18186W        W33995  10.559   6.751  12.261  0.1880 -0.1326  0.0775
18187W        W33996  12.132   5.047  14.122  0.3112  0.1554 -0.0866
18188W        W33997   5.006  15.753  13.114  0.0900  0.0879 -0.1641
18189W        W33998  18.315   3.842   2.471 -0.4445  0.1118  0.1545
18190W        W33999  13.121   0.775   2.393 -0.1143 -0.1363 -0.1954
18191W        W34000  17.819   8.785   2.762 -0.0374  0.0036  0.0044
18192W        W34001  13.743   2.081   1.895 -0.1699  0.0110  0.2474
18193W        W34002  18.157  18.774   2.181  0.0633 -0.1763  0.0005
18194W        W34003   2.739   3.816  12.028 -0.2203  0.0288  0.0538
18195W        W34004   2.552  18.509   4.130  0.2645 -0.2264  0.0855
18196W        W34005   8.386  17.482   4.873 -0.0093 -0.4663 -0.1885
18197W        W34006  12.855  13.032   2.692  0.0506 -0.2829  0.1932
18198W        W34007   4.457  10.771   2.799 -0.0811 -0.1085  0.0485
18199W        W34008   0.056   5.078  11.606  0.0444  0.1406  0.1083
18200W        W34009  12.300   3.696   3.741  0.1982 -0.1399 -0.6427
18201W        W34010  17.387   3.652  11.679  0.1948  0.1091 -0.1420
18202W        W34011  18.487   1.437  11.927  0.1679  0.0502 -0.1355
18203W        W34012   3.167   4.505   2.227 -0.3839  0.2097  0.1679
18204W        W34013   4.070  18.116   3.051  0.0390  0.2165  0.1614
18205W        W34014  18.601   0.199   4.601 -0.0528 -0.2962 -0.5364
18206W        W34015  15.951   8.738   2.797  0.0503  0.0324 -0.0883
18207W        W34016   1.933  15.825  15.010 -0.4552  0.0424 -0.0538
18208W        W34017   4.143  10.900   4.214  0.0642  0.1330 -0.2706
18209W        W34018  18.251  10.221   2.492 -0.4142 -0.0392  0.0554
18210W        W34019   3.769   7.883  14.509  0.0211  0.0589 -0.1332
18211W        W34020  17.737   3.492  14.850  0.0632  0.1272  0.1256
18212W        W34021  15.210   1.212  13.905 -0.0656  0.0710 -0.2126
18213W        W34022   1.145   0.056   0.786  0.1592 -0.2225  0.1680
18214W        W34023  18.523  15.351  10.336  0.0936 -0.0396 -0.0080
18215W        W34024   3.741  16.818   3.754 -0.1754 -0.1176  0.4151
18216W        W34025   6.786  16.948  11.413  0.4681 -0.0337 -0.0952
18217W        W34026  13.549   9.244  10.371  0.2256  0.1155 -0.1964
18218W        W34027  11.890  13.673  14.897 -0.1613 -0.2828  0.3122
18219W        W34028   0.859   5.276   4.664  0.2087  0.1667 -0.1907
18220W        W34029  12.838   5.731   1.643 -0.3356 -0.2596 -0.1363
18221W        W34030  13.861   0.496  11.013 -0.0085  0.1695  0.1734
18222W        W34031   9.489   3.586   4.135  0.0133  0.2285  0.0970
18223W        W34032   0.147  14.389  13.056  0.1052 -0.1368  0.0694
18224W        W34033   3.316  11.143   0.434 -0.2614 -0.0261 -0.3059
18225W        W34034  12.987  14.854   4.340  0.5031  0.2013  0.3814
18226W        W34035   7.041   3.831  10.337  0.0270 -0.0084 -0.0441
18227W        W34036   3.127  10.665  12.802  0.2693  0.2591  0.2397
18228W        W34037  14.318  11.450   9.685  0.0195 -0.0916 -0.0118
18229W        W34038  16.127  18.515  14.558 -0.0113 -0.1862  0.1357
18230W        W34039  15.615   5.770  15.123 -0.0359  0.0873 -0.2822
18231W        W34040  18.249   7.788  12.959  0.2643  0.2297  0.1927
18232W        W34041  17.296  16.062   4.928  0.1047 -0.2883 -0.2900
18233W        W34042  15.716   4.566   2.858  0.1254 -0.1793 -0.2322
18234W        W34043  11.682   1.010  11.931  0.2589  0.1189  0.1366
18235W        W34044   5.213  19.097   3.221  0.4642 -0.1481 -0.3256
18236W        W34045   9.770   2.630  12.659 -0.1713 -0.1772  0.0575
18237W        W34046  15.742   1.225   1.295 -0.3339  0.2925 -0.0607
18238W        W34047  18.197   7.558  14.727  0.0661  0.1739  0.0242
18239W        W34048   0.979   2.419   3.664  0.2253  0.0811 -0.0714
18240W        W34049   5.702   0.386  12.935  0.0855 -0.0945  0.0850
18241W        W34050  15.187   0.936  14.888  0.0480 -0.3077  0.2110
18242W        W34051   0.524  15.960  10.253 -0.0655  0.0224 -0.2941
18243W        W34052   6.787  11.416  11.197  0.3068 -0.4584 -0.1750
18244W        W34053   6.268   2.782  10.286  0.0766  0.1271 -0.1821
18245W        W34054   7.104   7.120  14.320 -0.1579 -0.3350 -0.1271
18246W        W34055  17.821  14.231   3.519 -0.0795 -0.0077  0.4331
18247W        W34056  16.190   6.510  10.445  0.1669  0.0566  0.3959
18248W        W34057  16.186  17.305   2.435  0.0479  0.1405  0.0042
18249W        W34058  18.308  15.608  12.484 -0.1962 -0.1638  0.0786
18250W        W34059   3.957   1.561   2.419 -0.1701 -0.0502 -0.3928
18251W        W34060   2.628   0.413  15.199  0.0604  0.4061 -0.1400
18252W        W34061   6.750  16.524  12.061 -0.0443  0.0474  0.3309
18253W        W34062   1.615   0.018   0.542 -0.1097 -0.1898 -0.0133
18254W        W34063   7.732   1.826  10.952 -0.0419 -0.0243 -0.1341
18255W        W34064  11.203  15.754  13.106  0.1830  0.1504  0.2799
18256W        W34065  13.290  18.913   1.165 -0.1866  0.1827 -0.0453
18257W        W34066   8.747   2.062  12.086 -0.0478 -0.2050  0.0761
18258W        W34067  18.675   8.608  13.825  0.1149  0.1512 -0.1205
18259W        W34068  13.657   6.756   4.997  0.1039 -0.0982  0.1341
18260W        W34069   5.162  11.548  11.448 -0.1338 -0.3579  0.0215
18261W        W34070  13.141  14.102   5.923 -0.2582 -0.3374  0.0447
18262W        W34071  18.294  17.554   1.443  0.0182 -0.2061 -0.1529
18263W        W34072   3.414  18.402   2.097 -0.4485 -0.0859 -0.2072
18264W        W34073   7.387   2.460  12.604  0.0591 -0.2148 -0.0796
18265W        W34074  15.353   0.903   1.274 -0.0579 -0.3033 -0.0893
18266W        W34075   8.008  11.560  11.563  0.1562  0.3406  0.1648
18267W        W34076   8.123   3.440   5.878  0.0179 -0.3600  0.0073
18268W        W34077  12.394   2.114   3.314  0.4761  0.1487  0.1572
18269W        W34078   2.297   2.216   4.215  0.0559  0.2941  0.0871
18270W        W34079   0.588  15.794  14.360  0.2779 -0.0784  0.1869
18271W        W34080   7.255   4.304   1.475 -0.3352 -0.0428 -0.1535
18272W        W34081   4.099  18.917  13.047  0.0170  0.2146 -0.1405
18273W        W34082   8.335  13.589   1.472  0.1125  0.0823 -0.1270
18274W        W34083  13.139  18.241  12.884 -0.1246  0.1922 -0.1788
18275W        W34084  16.324  16.298   2.727  0.1918 -0.1071 -0.3855
18276W        W34085  14.414  12.499   0.156 -0.0827 -0.1419 -0.2451
18277W        W34086   7.071   3.119   0.050 -0.1445 -0.0652  0.2260
18278W        W34087   1.877   6.899  14.765 -0.1346 -0.0906  0.0768
18279W        W34088  17.996   6.354  11.024 -0.2808  0.0983 -0.1315
18280W        W34089   3.435   2.252   2.921 -0.1553  0.0112  0.0768
18281W        W34090   5.260   2.269   2.027  0.2198  0.0135  0.2491
18282W        W34091  11.774  10.422  12.821  0.1520 -0.4424  0.0109
18283W        W34092  15.286  16.253   1.210 -0.0428 -0.0744  0.0344
18284W        W34093   2.467   6.408  10.512 -0.2751  0.1912  0.0608
18285W        W34094  16.146  17.922   3.138  0.0287  0.3759  0.1662
18286W        W34095  11.567  11.395   2.152 -0.0042 -0.0868  0.0093
18287W        W34096   0.774  16.530  15.181  0.1460 -0.0224 -0.1056
18288W        W34097   1.435  15.803   3.220  0.2787  0.1593  0.4066
18289W        W34098  14.160   8.557  10.528  0.0459  0.1132  0.2270
18290W        W34099   2.365   1.960  12.110  0.2366  0.2268  0.3403
18291W        W34100   9.753   1.306  14.084 -0.1752  0.1580 -0.2004
18292W        W34101   6.754  17.782   1.038 -0.0384  0.0495 -0.0592
18293W        W34102   9.178   9.694   4.414  0.1380  0.3281  0.2072
18294W        W34103  10.459   1.088  13.670  0.2176  0.1148 -0.0721
18295W        W34104  13.219  17.888   4.999  0.0222  0.1259 -0.0198
18296W        W34105   5.350   7.302  14.710 -0.5602  0.0858  0.0467
18297W        W34106   4.430  12.327  11.532 -0.0349  0.1670  0.0857
18298W        W34107  18.304  10.712   2.328  0.0461  0.2825  0.1887
18299W        W34108   4.902   7.665   1.142  0.1227 -0.5413  0.2611
18300W        W34109  10.086   8.458   4.930  0.0091  0.2846  0.0861
18301W        W34110   9.057   6.550  14.559  0.1310  0.3112 -0.0431
18302W        W34111   8.834  12.151  10.777 -0.2139  0.1099  0.1125
18303W        W34112   4.154   7.579  11.280 -0.2731 -0.3058  0.3371
18304W        W34113  16.445  10.402  14.436 -0.1461  0.0384  0.0171
18305W        W34114  14.058  16.081  10.912  0.0485 -0.0378 -0.0557
18306W        W34115   4.245  15.878  14.225 -0.0118  0.1427 -0.1039
18307W        W34116  15.653   1.228  14.041  0.1119 -0.1983 -0.3255
18308W        W34117   4.262   3.158   1.798 -0.0413  0.2052  0.1318
18309W        W34118   4.419   8.465  13.979  0.0625  0.2924  0.0574
18310W        W34119  17.212  18.191   1.712 -0.1296  0.0582  0.3173
18311W        W34120   1.914  16.239   1.270  0.1409  0.1480 -0.0519
18312W        W34121   4.463   8.195   9.935  0.3220  0.0987 -0.1522
18313W        W34122   8.214  16.142   0.950 -0.1418  0.2718 -0.3115
18314W        W34123  11.237   8.659   5.448 -0.0569 -0.0523  0.0180
18315W        W34124  17.532  14.346   1.421  0.1838 -0.2801  0.0189
18316W        W34125   4.907  13.779  11.228  0.1557 -0.4551  0.0646
18317W        W34126  16.754   3.394   5.611  0.1178 -0.3462 -0.0156
18318W        W34127   7.181  13.960  11.957 -0.2301 -0.0848 -0.0463
18319W        W34128   2.259   6.700  10.107 -0.2512 -0.3595 -0.4340
18320W        W34129   7.935  11.121  12.675  0.1948  0.2560 -0.2982
18321W        W34130  15.289   7.420  14.585 -0.1966  0.1039 -0.0408
18322W        W34131   9.374  17.205   4.935 -0.0448 -0.0345 -0.0049
18323W        W34132  13.048   8.700  15.112 -0.1249  0.1762  0.1931
18324W        W34133   9.281  11.604  13.720 -0.0268  0.3579 -0.4015
18325W        W34134  15.336   1.131   5.511 -0.0479 -0.0317 -0.0414
18326W        W34135   8.352   6.013  11.672 -0.0879  0.1312  0.0217
18327W        W34136   2.676  18.539  12.399 -0.1505  0.0201  0.1220
18328W        W34137  14.871   7.435   4.785 -0.0977  0.1741  0.0874
18329W        W34138  15.106  14.765   1.852  0.2576  0.0096  0.3554
18330W        W34139  14.616   9.744   1.944 -0.1174  0.0401 -0.0975
18331W        W34140   2.284  18.050   2.774 -0.1645  0.0444 -0.2736
18332W        W34141  16.948  18.872  13.835  0.0428 -0.3202 -0.1388
18333W        W34142   2.703   4.840   8.969 -0.4346  0.0885  0.0551
18334W        W34143   7.410  11.569   3.334  0.0436  0.1521  0.0434
18335W        W34144   6.512   1.248   3.114  0.2720  0.1898  0.3022
18336W        W34145   9.129   7.855   3.350  0.0117 -0.1984 -0.2119
18337W        W34146   1.608  18.311  12.899 -0.3016 -0.2846  0.1764
18338W        W34147   3.678  14.053   4.319 -0.0755 -0.0711  0.0218
18339W        W34148   3.848   3.963  13.159 -0.0419 -0.2263 -0.0400
18340W        W34149   6.530   2.561   3.833 -0.1095  0.0325  0.0105
18341W        W34150  17.375   2.539   5.131  0.3338 -0.1362  0.2369
18342W        W34151  15.564  15.890   0.718 -0.0895  0.2364 -0.1003
18343W        W34152   6.162   4.321  10.877 -0.0766 -0.1107 -0.0276
18344W        W34153   8.874   9.742   0.468  0.2569  0.1014 -0.1243
18345W        W34154  17.235   0.238  13.924  0.4084 -0.3005 -0.1158
18346W        W34155   9.160  16.031  10.454  0.0143 -0.2985  0.0232
18347W        W34156  10.558  15.620  14.781 -0.1116 -0.2807  0.1262
18348W        W34157   5.219   7.737   3.456 -0.1192  0.1682 -0.3086
18349W        W34158   9.327  15.275   0.340  0.0644  0.0472 -0.1180
18350W        W34159  18.748   1.870  12.027  0.1502  0.1115 -0.1030
18351W        W34160  12.385   4.646  12.866 -0.1521  0.0138  0.2822
18352W        W34161  14.841  10.553   2.815  0.1900 -0.0292  0.1253
18353W        W34162   6.911   3.246   1.971  0.2180 -0.0895 -0.3234
18354W        W34163  18.949  18.863   4.503  0.0638  0.0125  0.2436
18355W        W34164  18.745  13.649   4.253  0.0282 -0.1242 -0.2775
18356W        W34165  18.057  11.828  14.044  0.0474 -0.0505 -0.0938
18357W        W34166   9.174   7.260  11.899  0.1705 -0.1848 -0.0819
18358W        W34167  18.714  10.941   2.754 -0.0719  0.0889  0.1292
18359W        W34168   0.934   6.171  11.708 -0.1749  0.0624  0.3447
18360W        W34169   3.171   1.804   1.205 -0.2332 -0.2474 -0.1365
18361W        W34170  17.399   3.411   5.007 -0.1282 -0.1545 -0.1671
18362W        W34171   9.266   1.458  12.784  0.1546 -0.2158  0.3036
18363W        W34172   0.226   3.442   3.066 -0.2708 -0.0177  0.0110
18364W        W34173   8.946  18.790   4.042 -0.1349  0.0317 -0.0986
18365W        W34174  18.644   0.975   1.500  0.0336  0.0823 -0.0808
18366W        W34175   5.297   6.921  12.080 -0.1311  0.1145  0.1908
18367W        W34176   8.396   4.077   0.660  0.1219 -0.4469 -0.0213
18368W        W34177   5.794  17.797   1.376  0.1443  0.3589  0.0945
18369W        W34178  12.237  13.405   5.517 -0.0530  0.1173  0.2592
18370W        W34179   4.926  12.150   1.500 -0.1839  0.1228  0.0859
18371W        W34180   3.788   1.766  10.873 -0.2379  0.0519  0.1480
18372W        W34181  10.489   5.440  10.440 -0.0589  0.1402  0.1069
18373W        W34182  15.476  18.986   1.096 -0.0985  0.0980 -0.3921
18374W        W34183   6.119  16.717  11.373  0.3449  0.0917 -0.3883
18375W        W34184   6.495   4.071   0.910 -0.2199  0.1604 -0.0752
18376W        W34185  10.893  10.167  12.952 -0.2809 -0.0084 -0.0476
18377W        W34186   1.300   6.388   3.613  0.7222  0.3087 -0.0453
18378W        W34187   4.832  18.129   0.281  0.0942 -0.2473  0.1090
18379W        W34188  11.617  10.300   1.213  0.1076 -0.1121  0.4573
18380W        W34189   4.394  10.183   1.592  0.6607  0.0538  0.7171
18381W        W34190  15.395   0.579   0.141  0.1698 -0.1420 -0.0913
18382W        W34191   7.290   3.107   3.448  0.0075 -0.3517 -0.2348
18383W        W34192  14.363   5.268   1.616 -0.1694  0.3496  0.2788
18384W        W34193   5.635  11.653  13.824  0.0938 -0.0924  0.1251
18385W        W34194   1.902   6.368  12.827 -0.0102 -0.1310  0.0221
18386W        W34195   8.940   5.731  13.971  0.0697  0.3990 -0.0869
18387W        W34196  10.027   9.791  13.301  0.1379  0.2076  0.1835
18388W        W34197  13.860  11.017   1.433 -0.0230 -0.0351  0.2754
18389W        W34198  16.212   2.991  12.121 -0.3418 -0.3153  0.1896
18390W        W34199  16.450  15.001  15.144 -0.0387  0.0859  0.4766
18391W        W34200  10.153   3.249  13.139  0.1099 -0.0013 -0.0615
18392W        W34201  16.897  10.453  12.010  0.3296  0.0411  0.3540
18393W        W34202  17.248   6.166  12.073 -0.1008  0.1005 -0.2255
18394W        W34203   0.879   4.102  11.557 -0.0171  0.0430  0.0564
18395W        W34204  14.301   0.116   3.730 -0.2396  0.0929 -0.0330
18396W        W34205  13.946   1.400   3.976 -0.0808 -0.1947  0.1534
18397W        W34206   6.277  15.470  11.647  0.2617  0.2072 -0.0514
18398W        W34207  14.181   7.542  13.708 -0.1710  0.2002  0.1576
18399W        W34208   9.916  13.700  14.643  0.1225  0.2077  0.2492
18400W        W34209   9.496   9.010  13.221  0.0001 -0.2895  0.0600
18401W        W34210  16.502   4.875   1.425  0.0013 -0.1171  0.0367
18402W        W34211  14.582   0.237  12.015 -0.0811 -0.1519 -0.0377
18403W        W34212   4.209  18.860  14.356  0.2680  0.2046  0.0620
18404W        W34213  17.318  12.178  12.980  0.0826  0.1614 -0.1676
18405W        W34214  12.823  12.182  15.021 -0.0412 -0.1577 -0.0229
18406W        W34215   1.649  14.090   0.081 -0.0904  0.0116  0.0664
18407W        W34216   8.283   9.688  11.091 -0.0051 -0.3984  0.1942
18408W        W34217  16.667   2.128   0.926 -0.2430 -0.0615  0.0401
18409W        W34218   0.217   5.972   1.012  0.4689 -0.2604  0.1385
18410W        W34219   8.930  15.552   4.972 -0.0644 -0.2425  0.0172
18411W        W34220   2.873  10.047   4.185 -0.0785 -0.2072 -0.2130
18412W        W34221   2.529  18.934  13.865 -0.1981 -0.2700  0.0931
18413W        W34222  12.540  18.899   0.540  0.0798  0.3270  0.0104
18414W        W34223   0.395  13.640  14.224 -0.3916 -0.1960  0.0542
18415W        W34224   0.070  11.820  14.013  0.0844  0.0298 -0.2838
18416W        W34225   4.829  10.743   2.443  0.1381  0.0656 -0.0536
18417W        W34226  17.235  11.828   0.947  0.0706 -0.1013 -0.2550
18418W        W34227   8.060   1.501   5.486  0.0944  0.0672 -0.0100
18419W        W34228   1.128   6.551   0.782  0.1608  0.0124 -0.2388
18420W        W34229   8.340  10.090   5.808  0.1830 -0.2414  0.0770
18421W        W34230  17.722   0.309  11.971  0.0417 -0.0921  0.1821
18422W        W34231  14.888  12.026   1.663  0.0933  0.0429  0.0891
18423W        W34232   0.333   3.488  12.189 -0.3708  0.0363 -0.0067
18424W        W34233   2.001  11.565  10.237 -0.0189  0.1590  0.3627
18425W        W34234   8.413   2.813   0.905  0.1688 -0.4404  0.6179
18426W        W34235  13.948  11.031   4.164  0.0100 -0.3846 -0.0176
18427W        W34236   8.070  11.413  15.204  0.1042 -0.1477 -0.1288
18428W        W34237  11.242  10.475  14.072  0.1321  0.1827 -0.0665
18429W        W34238   3.169   2.450   3.694  0.1341 -0.1415  0.2515
18430W        W34239  16.342  15.542   2.154  0.2544  0.0976  0.0359
18431W        W34240   5.816  14.451  12.589 -0.2025  0.2314  0.2859
18432W        W34241  10.675   6.707   1.983  0.3548  0.0748 -0.0518
18433W        W34242   5.281  13.367  13.984 -0.0878  0.3673 -0.1796
18434W        W34243   6.519   2.891  12.104 -0.0921  0.1253 -0.1113
18435W        W34244   9.738   3.197  10.664  0.1844  0.0242  0.3567
18436W        W34245  10.181  18.789   1.444 -0.2640  0.3960 -0.0709
18437W        W34246  13.839  16.486   0.625 -0.1305  0.2757 -0.2104
18438W        W34247   7.275   8.774  10.551 -0.0873 -0.0974 -0.1324
18439W        W34248  11.751  11.894  12.881 -0.0123 -0.0928 -0.0238
18440W        W34249   0.376  17.835   5.173 -0.0814  0.1522 -0.4078
18441W        W34250  13.211   9.935  12.976 -0.2182 -0.5202  0.0164
18442W        W34251   5.728   8.382  13.041 -0.0623 -0.2534  0.1949
18443W        W34252  12.378  10.297  14.414  0.0764  0.0560  0.1763
18444W        W34253  19.062   8.631  13.324 -0.0323 -0.1065  0.0540
18445W        W34254   6.874   1.433  14.125 -0.1633 -0.1928  0.0963
18446W        W34255   4.774   2.082  13.311  0.7292  0.0547 -0.0856
18447W        W34256   9.395  14.718   0.317 -0.0163  0.0092 -0.1196
18448W        W34257  17.065   1.673   2.431  0.1452  0.0371  0.1140
18449W        W34258   9.845  14.931   4.080  0.1218 -0.0760  0.0657
18450W        W34259   2.826   0.736   2.684 -0.1010  0.0229  0.1821
18451W        W34260   9.597   1.429   3.945 -0.0176 -0.1420 -0.1380
18452W        W34261  12.488  17.446  10.808  0.0260 -0.0766 -0.2692
18453W        W34262   0.531  13.307   2.064  0.0220 -0.0365  0.1502
18454W        W34263   7.201   7.040  12.282  0.1048  0.0573  0.0227
18455W        W34264  12.540   2.450   4.152 -0.3961 -0.1522 -0.1411
18456W        W34265   4.086   4.692  11.867 -0.1319 -0.0288  0.1890
18457W        W34266   2.992   3.204  14.093  0.0371  0.0562 -0.3919
18458W        W34267   1.753   5.568   4.271  0.1933 -0.1664 -0.0902
18459W        W34268  15.391   9.745  12.226  0.0363  0.0119 -0.0581
18460W        W34269  15.454  16.071   4.875 -0.2559 -0.1814  0.2557
18461W        W34270   9.928  10.973   2.558  0.1392  0.1811 -0.1122
18462W        W34271  13.618   5.548   2.200 -0.1131 -0.1493 -0.1044
18463W        W34272  17.370   3.152  14.648  0.0591  0.0855  0.2620
18464W        W34273   9.975  14.911  13.131  0.0461  0.1200 -0.1514
18465W        W34274   8.906   4.791  14.258  0.0488 -0.2176 -0.0071
18466W        W34275   7.114   0.943   1.502  0.2046 -0.2173 -0.4795
18467W        W34276  17.125  12.568   2.232 -0.1974  0.0959  0.1584
18468W        W34277   5.947  14.351   0.500 -0.0429 -0.0999 -0.0795
18469W        W34278  10.537  16.039   4.737  0.2420 -0.2557 -0.0232
18470W        W34279   5.017   5.885   3.649  0.0991 -0.0287 -0.0810
18471W        W34280  11.619  10.759   2.105 -0.1125  0.2208 -0.1135
18472W        W34281   8.051  18.784   9.987 -0.1599 -0.1549  0.0231
18473W        W34282   4.516  16.186   2.759  0.0331 -0.1336 -0.1970
18474W        W34283   7.105   9.785   4.626 -0.0052  0.0552  0.2342
18475W        W34284   8.164   9.690  10.582 -0.3225 -0.0562 -0.0691
18476W        W34285  19.117   2.555   3.239 -0.3577 -0.1487 -0.0280
18477W        W34286  16.495   3.695   1.385  0.1066 -0.1942 -0.1889
18478W        W34287  11.290  11.403   2.589  0.1307 -0.1342 -0.2083
18479W        W34288   5.837   9.253   9.523  0.0160  0.0464 -0.0688
18480W        W34289  13.633   0.905   5.157  0.1597 -0.2768 -0.2667
18481W        W34290   9.316   3.309   1.603  0.0462  0.2397 -0.1235
18482W        W34291  12.102   8.982   1.825 -0.1683 -0.0777 -0.0036
18483W        W34292   4.862   3.980   4.592 -0.0696  0.0692  0.0091
18484W        W34293   3.976  14.229   4.790 -0.0230  0.0014  0.1240
18485W        W34294  15.190   7.875   3.321 -0.0945 -0.2016 -0.3424
18486W        W34295  17.501   9.458  13.751  0.0466 -0.0041 -0.0787
18487W        W34296  16.149   1.135  12.475 -0.0029  0.3083 -0.0392
18488W        W34297  16.116   9.008   2.307  0.0916 -0.1306  0.1295
18489W        W34298   2.347   7.591  12.824 -0.3655 -0.0300  0.1697
18490W        W34299   8.225  15.952   2.696 -0.0825 -0.0132 -0.0678
18491W        W34300   9.000   8.282  12.798 -0.0076 -0.2584 -0.2069
18492W        W34301   4.280   6.924  13.904 -0.0814  0.0609  0.0074
18493W        W34302  14.658  12.447   4.257  0.0734  0.3936  0.1619
18494W        W34303   7.132   5.760   5.629 -0.2385 -0.5367 -0.2928
18495W        W34304  17.865  16.448  11.916  0.1278 -0.0255  0.0928
18496W        W34305   9.686  13.316   0.428  0.2879  0.1292 -0.0916
18497W        W34306   9.724  14.292  11.126 -0.0681 -0.0145 -0.0808
18498W        W34307  12.151  17.011   3.421 -0.1189 -0.2078 -0.3062
18499W        W34308   4.317  15.757   3.054 -0.2276 -0.0803 -0.0726
18500W        W34309  11.556   0.010   0.596 -0.0150  0.1786  0.3677
18501W        W34310  18.317  14.900   1.853  0.1179  0.0403 -0.3517
18502W        W34311   7.622  13.566   3.506 -0.1982  0.0292 -0.0960
18503W        W34312   5.055  13.923   2.304 -0.1547  0.0890  0.1418
18504W        W34313  13.681  18.319  12.944  0.0419  0.3519 -0.0100
18505W        W34314  15.859  12.640  14.891 -0.0610 -0.0215  0.0474
18506W        W34315  15.753  17.918  11.451 -0.3487 -0.0291 -0.0858
18507W        W34316   2.508  11.586  14.677  0.3086 -0.2043  0.3570
18508W        W34317   5.632  14.228   3.443 -0.2800 -0.2211 -0.1756
18509W        W34318   9.487  17.907  10.306 -0.0823 -0.0590 -0.2257
18510W        W34319  17.107   3.011  12.449 -0.2284  0.0166 -0.0584
18511W        W34320   8.143   7.286   2.299 -0.0934  0.0524  0.2165
18512W        W34321  12.192  18.817   5.444  0.3197  0.3865 -0.1738
18513W        W34322  11.070   1.433   3.423  0.1185  0.1618 -0.1329
18514W        W34323   7.401   1.672   2.843 -0.1135  0.0722 -0.5509
18515W        W34324  15.866   3.334  14.690 -0.2311  0.0468 -0.1234
18516W        W34325   7.177  13.168  10.057  0.3901  0.1314 -0.3084
18517W        W34326  13.643   4.024   0.135 -0.3648 -0.1783  0.0298
18518W        W34327   0.989   9.439   3.634  0.0213 -0.1496 -0.2563
18519W        W34328  10.718   1.636  12.953  0.1224 -0.1755 -0.1263
18520W        W34329  11.403  15.201   0.015 -0.0631 -0.2257 -0.0901
18521W        W34330   0.141  17.726  12.852 -0.1437 -0.1170 -0.1428
18522W        W34331   2.967  15.266   1.342 -0.2678  0.0597  0.0492
18523W        W34332   5.735   2.099  11.591  0.3446  0.5222 -0.1843
18524W        W34333  15.666   9.102   2.116  0.2310 -0.3880  0.0885
18525W        W34334   4.022  16.111   1.589  0.3337  0.1068 -0.0771
18526W        W34335  11.366   2.887  15.167 -0.1576  0.4646  0.0463
18527W        W34336  16.181  16.435   0.481 -0.1142 -0.1205  0.4086
18528W        W34337  11.882  17.206  13.416  0.0203  0.0104  0.1167
18529W        W34338  18.551  10.315   1.540 -0.4168 -0.0898 -0.5597
18530W        W34339   8.326  18.011   4.377  0.0303  0.0197 -0.0164
18531W        W34340   7.023   2.989  10.901 -0.0205  0.0768  0.0508
18532W        W34341   1.918   3.806  10.719  0.1997 -0.2878  0.0875
18533W        W34342  11.393   9.995  12.210 -0.1505  0.3301 -0.2080
18534W        W34343   8.761  17.352  14.746 -0.0546 -0.0070  0.1072
18535W        W34344  12.260  15.503   1.193  0.2853  0.1684 -0.1177
18536W        W34345   0.778  18.138   1.779  0.2188 -0.1953 -0.0231
18537W        W34346   7.430   2.539  12.116  0.0753 -0.1290  0.1835
18538W        W34347   8.209   4.606   1.459  0.3743  0.0460  0.0553
18539W        W34348  12.545   6.917  11.272 -0.0519  0.1582  0.0968
18540W        W34349   7.301  16.276   0.820 -0.0285  0.1590 -0.2412
18541W        W34350  17.641   1.375  12.442  0.1736  0.1299  0.1940
18542W        W34351   5.971   9.734   9.236  0.1899 -0.0069 -0.1886
18543W        W34352  15.830   7.533   3.985  0.0053 -0.0012 -0.2004
18544W        W34353  17.902  15.089   5.726 -0.2466  0.1423  0.0936
18545W        W34354  10.413  11.812   4.064  0.3155 -0.2132  0.1650
18546W        W34355  13.038  10.272   1.804 -0.0749 -0.3779  0.2101
18547W        W34356   7.369  11.131  12.648 -0.2795 -0.1438 -0.2239
18548W        W34357   1.271   1.618   0.067  0.1161 -0.2179  0.4502
18549W        W34358  16.459  13.971   4.265  0.0504  0.1569  0.2155
18550W        W34359  11.835  15.883  11.484  0.3444  0.5755 -0.1373
18551W        W34360  10.957  16.205  12.238 -0.0609 -0.1137  0.3875
18552W        W34361   6.469   8.525  13.634 -0.0698  0.2688  0.1512
18553W        W34362  16.582   6.049   3.315 -0.4290 -0.1294  0.1867
18554W        W34363   3.338   3.074   1.008 -0.3082  0.3561  0.1130
18555W        W34364   4.261  17.122   3.352  0.2692 -0.3026  0.2371
18556W        W34365   8.773   0.916  13.820 -0.0432  0.0035 -0.0095
18557W        W34366  16.679   2.168  12.238  0.5013  0.1937  0.2654
18558W        W34367  16.889   2.063   0.075 -0.4913  0.1344  0.1779
18559W        W34368  10.157   5.320  14.285 -0.1025  0.0090  0.2788
18560W        W34369  10.251  13.683   2.256  0.0676  0.1244 -0.3068
18561W        W34370  15.857   4.835   0.228  0.1597 -0.1850 -0.3120
18562W        W34371   6.088  16.794   1.421  0.0456 -0.3269  0.1800
18563W        W34372  18.272  11.236  10.851 -0.5319  0.0925 -0.2251
18564W        W34373   5.692   1.907   2.201 -0.2108  0.2812  0.0932
18565W        W34374  18.087   5.325  10.844 -0.2098 -0.1799  0.1552
18566W        W34375  11.049  16.032   4.699  0.2734  0.1177  0.0026
18567W        W34376  16.550  12.479   2.245  0.0991  0.3484 -0.2431
18568W        W34377  18.497  12.899  11.386  0.1325 -0.0977  0.2274
18569W        W34378  15.259  13.676  13.922  0.0677 -0.0249 -0.3289
18570W        W34379  18.870  11.939  11.426  0.1287 -0.2239 -0.0638
18571W        W34380  17.060  14.576  12.660 -0.0243 -0.0980 -0.2061
18572W        W34381  14.014   1.576   0.692  0.0571  0.2857 -0.1376
18573W        W34382  14.884   2.988   5.105 -0.1458 -0.1019 -0.1407
18574W        W34383   6.651  18.877   2.159  0.0442 -0.1182 -0.1091
18575W        W34384  10.708   0.503   3.738  0.0125 -0.1290 -0.0885
18576W        W34385  11.308   9.489  10.628 -0.1494 -0.1350  0.3028
18577W        W34386  10.577  19.161  11.690 -0.4317  0.1026 -0.2406
18578W        W34387   3.102  17.828   0.168 -0.2703 -0.0412 -0.0165
18579W        W34388   3.191  13.205  12.300 -0.0566 -0.1817  0.0069
18580W        W34389  19.098   3.844  12.516 -0.0385 -0.1072 -0.0420
18581W        W34390   0.599  15.558  11.185 -0.3018  0.2188 -0.1140
18582W        W34391   4.873  11.875   2.006 -0.2551 -0.0613  0.3618
18583W        W34392   5.792  11.291  11.453  0.0429 -0.0511  0.0748
18584W        W34393  12.185  13.908  12.468  0.1526  0.3264 -0.1446
18585W        W34394   9.684   1.703  10.491  0.0882 -0.0396 -0.4701
18586W        W34395   4.716   5.411  13.125  0.2175 -0.0986 -0.0820
18587W        W34396   0.518   4.742   4.685 -0.0716  0.2635  0.0752
18588W        W34397   0.816   2.608   1.200  0.1238  0.0330 -0.2678
18589W        W34398   7.370   5.891   0.891  0.1759 -0.0911 -0.2444
18590W        W34399   6.650   8.375  12.897 -0.0653 -0.2182  0.0746
18591W        W34400   2.415  19.063  11.473  0.0787 -0.1693  0.2782
18592W        W34401   7.630   2.409  11.131 -0.0778  0.1412 -0.0777
18593W        W34402  16.946  17.000  14.715  0.1403  0.1329 -0.2201
18594W        W34403  16.810   2.380  14.077  0.1545  0.1345  0.0999
18595W        W34404   6.514  14.719  11.556 -0.2646 -0.4437 -0.0178
18596W        W34405   0.784  11.251   1.475  0.2994 -0.0942 -0.1696
18597W        W34406   3.738   8.835  12.346  0.1741  0.0209  0.2783
18598W        W34407  15.727  12.025   1.751  0.3578  0.0803  0.1635
18599W        W34408   1.278   2.815  13.267  0.1071  0.3043 -0.1079
18600W        W34409  12.524   0.495  14.307 -0.3067  0.1094 -0.1147
18601W        W34410  18.946   9.727  10.893  0.2782 -0.1616  0.0907
18602W        W34411   7.672   9.818   1.888 -0.1166 -0.0319  0.0971
18603W        W34412   4.639  10.211  11.662 -0.1551 -0.1424  0.0421
18604W        W34413  11.467  17.078  13.126 -0.0508 -0.0440 -0.1215
18605W        W34414  17.913   6.132  13.401 -0.3586 -0.5793 -0.0039
18606W        W34415   5.705  10.735   2.878  0.0851  0.0808  0.2611
18607W        W34416  10.555   8.136   1.087  0.1607 -0.2943  0.5390
18608W        W34417   6.215   5.403   3.151  0.0281 -0.1780 -0.2613
18609W        W34418   1.403   0.203   1.845 -0.2827  0.0401  0.1681
18610W        W34419  13.172   5.222   5.085  0.0809  0.2734  0.0027
18611W        W34420   5.458  14.254  14.420 -0.1316  0.0075 -0.1262
18612W        W34421  16.197  18.508  13.678  0.1395 -0.3104 -0.1339
18613W        W34422   1.226   8.095   0.547  0.0106 -0.3916  0.0340
18614W        W34423   2.671  15.052   2.393 -0.0147 -0.2028 -0.3717
18615W        W34424   0.950  12.683  11.602 -0.1506  0.0540 -0.3493
18616W        W34425   8.765  13.942   1.404 -0.0640  0.2019  0.1066
18617W        W34426   0.076  14.226   1.569  0.1800 -0.2586 -0.2073
18618W        W34427  18.504  18.041   3.389 -0.0158 -0.1212 -0.2368
18619W        W34428  12.283   6.432   3.776 -0.2453  0.3118  0.0132
18620W        W34429   1.348   9.498   4.122 -0.1401 -0.0517 -0.0410
18621W        W34430  11.977  17.170  10.858 -0.1033 -0.1621 -0.3096
18622W        W34431  12.517  18.136   4.935 -0.0834  0.2111 -0.1381
18623W        W34432  10.550   9.541   3.547 -0.3386 -0.4104  0.0982
18624W        W34433  10.591  13.192   0.773 -0.2149 -0.1700 -0.0745
18625W        W34434   0.101  10.928  13.208 -0.0739  0.0402  0.0571
18626W        W34435   0.924   9.206   4.096 -0.0343  0.2203  0.2714
18627W        W34436  15.672  14.217  12.480 -0.0607 -0.1211 -0.0069
18628W        W34437  12.824   2.807  11.439 -0.1124  0.0103 -0.3973
18629W        W34438   1.180   7.191  12.930  0.3229  0.5288 -0.0018
18630W        W34439   9.170  18.354   4.255  0.0430  0.0338 -0.1990
18631W        W34440  17.577   2.102  14.818  0.1121 -0.1506 -0.3241
18632W        W34441   0.123  12.807   9.993 -0.0053 -0.0642 -0.0313
18633W        W34442   8.668  12.492  12.890  0.0022 -0.2019 -0.0346
18634W        W34443  13.096   2.452  10.700  0.0740 -0.0523 -0.1907
18635W        W34444  10.550  12.686   2.956  0.0863  0.0786 -0.2420
18636W        W34445  17.173   9.277   3.065 -0.2095  0.3391  0.0600
18637W        W34446  16.583  12.646   1.439 -0.1082 -0.1034  0.2068
18638W        W34447   5.476   7.051   0.446 -0.1199 -0.0444 -0.3955
18639W        W34448   7.897   5.967  11.226  0.1101  0.2645  0.0317
18640W        W34449  11.016  13.069  15.204 -0.1699  0.0038 -0.1576
18641W        W34450   5.815  18.920  11.692  0.0355 -0.1757 -0.1922
18642W        W34451   9.681  13.402  10.970  0.0006 -0.2796 -0.1180
18643W        W34452  12.583   2.314   1.809  0.2884 -0.0121  0.0179
18644W        W34453  16.039   4.295  11.740  0.0975  0.4246 -0.1107
18645W        W34454   4.600  13.259  10.990  0.1094  0.0205 -0.0262
18646W        W34455  10.949   9.753   3.849 -0.0120 -0.0557 -0.0680
18647W        W34456  11.442   1.148  12.424  0.2067  0.2504 -0.1425
18648W        W34457  17.055  11.474   4.516 -0.1402 -0.0952  0.1574
18649W        W34458  17.066  17.944   3.571 -0.0617 -0.3013  0.0793
18650W        W34459   9.578  13.119  12.682  0.0115 -0.1558  0.4559
18651W        W34460   7.302  10.278  10.807 -0.1304  0.3875  0.0868
18652W        W34461   9.619  15.188  13.903 -0.1895  0.2156 -0.1024
18653W        W34462  12.842   1.291   0.486  0.0230  0.0176 -0.0263
18654W        W34463   0.508   5.794  13.393  0.1102  0.0404 -0.3070
18655W        W34464   7.793   6.528   0.071 -0.1125 -0.1841 -0.1815
18656W        W34465   1.953   6.807   9.721  0.1638  0.0912  0.0058
18657W        W34466   5.148   8.865  10.295  0.2173 -0.2573  0.1837
18658W        W34467   6.584   1.038  11.776 -0.4821  0.1477 -0.3208
18659W        W34468  11.430  18.814   5.916  0.1118 -0.0735 -0.0066
18660W        W34469   7.929  15.761   1.236 -0.2267  0.0493  0.1199
18661W        W34470   4.582  13.713   0.541  0.0620 -0.3618  0.2106
18662W        W34471  15.220   0.512   0.790 -0.0111 -0.4064 -0.2350
18663W        W34472  12.218  16.842  13.710 -0.2265  0.3210  0.2259
18664W        W34473  16.533   4.758  11.226  0.0878 -0.1763 -0.0400
18665W        W34474  10.209  15.898   5.961 -0.3780 -0.3126  0.1215
18666W        W34475   6.997   2.610  15.116 -0.2528 -0.1870 -0.0239
18667W        W34476   4.482  15.304   0.593 -0.0910  0.4148  0.3348
18668W        W34477   1.403  16.362   3.831 -0.0273  0.5496  0.1298
18669W        W34478   5.365   2.749   0.499 -0.0606 -0.1842  0.0110
18670W        W34479  16.636  13.588  11.540  0.2842  0.0170 -0.0201
18671W        W34480  17.178  16.870   2.516  0.1536  0.2254  0.1933
18672W        W34481  11.650  11.945   4.299  0.1728  0.1041  0.3823
18673W        W34482   2.610  10.781  12.680  0.0516  0.2084 -0.5215
18674W        W34483   4.165   3.899   4.259 -0.3225 -0.0781 -0.0292
18675W        W34484   6.244   2.231  11.650  0.0564 -0.1375 -0.1720
18676W        W34485  16.228   6.587  13.164  0.1480 -0.0733 -0.2099
18677W        W34486   0.142   5.186  12.732 -0.0856 -0.4106 -0.1042
18678W        W34487  18.577  16.067  12.250  0.1477  0.1491  0.1050
18679W        W34488  10.661   2.788  14.011  0.2878  0.0363  0.1397
18680W        W34489   6.896   9.317  11.315  0.0853 -0.2025  0.0625
18681W        W34490  15.666   9.815   3.835  0.2785  0.0916  0.0844
18682W        W34491   9.103   5.467   2.462 -0.1782 -0.0979 -0.0490
18683W        W34492   0.328  12.801   5.168  0.1754  0.1264  0.3361
18684W        W34493   0.562  11.169  11.593  0.0529 -0.1830 -0.5669
18685W        W34494   6.920  12.772   2.225 -0.2143  0.0718  0.3504
18686W        W34495  10.744   4.608   1.956 -0.1173 -0.2535 -0.1981
18687W        W34496   4.521   8.219  12.625  0.2091  0.2103  0.1924
18688W        W34497  15.775   0.996   4.205  0.1176  0.0916 -0.1107
18689W        W34498   1.063   0.681  11.481 -0.0663  0.0500  0.0435
18690W        W34499   1.072  13.979  11.367  0.2778 -0.1907  0.0988
18691W        W34500   7.315  12.125  13.763 -0.0483 -0.1103 -0.2841
18692W        W34501  13.503  10.189   4.021  0.1819 -0.0280  0.3891
18693W        W34502  11.936   0.171  12.884  0.0706 -0.5536 -0.4706
18694W        W34503  10.571  10.174   9.760 -0.3138 -0.0772 -0.0850
18695W        W34504  18.393   5.346   0.478  0.0889 -0.2297  0.1699
18696W        W34505  17.424  15.506   2.505  0.0654  0.1404 -0.0377
18697W        W34506   9.880   7.421  15.083  0.5423  0.1562  0.1015
18698W        W34507   4.193   2.186   3.571  0.2877  0.2776 -0.0439
18699W        W34508   3.431   2.166  10.309  0.0089 -0.2602 -0.0227
18700W        W34509  14.062   7.504   4.217 -0.2093  0.1924  0.2598
18701W        W34510   7.429  12.773  14.268 -0.0744  0.0668 -0.2436
18702W        W34511   5.655   7.211   4.291 -0.0705 -0.1434 -0.0772
18703W        W34512  17.291   3.814   4.731  0.1903 -0.0344 -0.0051
18704W        W34513  16.329  13.455   2.817  0.3955 -0.0091  0.1621
18705W        W34514  17.786  15.641   3.602 -0.0587  0.4461 -0.0359
18706W        W34515   4.259  14.825  15.077  0.0529 -0.1838  0.0942
18707W        W34516   7.708   9.907  14.039  0.1104  0.0995 -0.2085
18708W        W34517  12.766   4.397   0.147  0.1818 -0.0163 -0.2613
18709W        W34518  13.072   5.638  11.822  0.2523  0.1948 -0.4838
18710W        W34519  18.635   0.973   3.790  0.2887 -0.2136  0.2299
18711W        W34520   0.829   5.567   0.545  0.3218 -0.0476  0.1189
18712W        W34521   6.289  12.504  13.092 -0.1944 -0.3163 -0.1275
18713W        W34522   0.160  18.736   2.541  0.3331 -0.1131  0.0588
18714W        W34523  15.855  13.739  12.334  0.2439 -0.2043  0.1934
18715W        W34524   3.467   2.984  10.078 -0.0488  0.0294 -0.1574
18716W        W34525  10.661  14.571   1.736 -0.1152 -0.5386  0.1991
18717W        W34526   1.376  17.608  10.907 -0.0174 -0.5327  0.1082
18718W        W34527  11.491  13.594  11.364 -0.0373  0.1043 -0.1393
18719W        W34528  15.854  12.467  13.878 -0.1444 -0.0799  0.1976
18720W        W34529  14.824  18.596   3.014  0.1878  0.0141  0.0919
18721W        W34530  12.353  13.947   3.181 -0.6141 -0.2794  0.2211
18722W        W34531   7.202  12.954   0.564 -0.2082  0.0309 -0.0239
18723W        W34532   6.749  13.242  11.208 -0.1337  0.0266 -0.0333
18724W        W34533  18.782  11.343  11.066 -0.2442  0.0327  0.1421
18725W        W34534  16.700   5.152  14.346 -0.3222 -0.3950 -0.1099
18726W        W34535  17.586  11.062   5.238 -0.0389 -0.0750  0.1053
18727W        W34536  16.654   8.171   2.307  0.4011  0.0923  0.1582
18728W        W34537   0.011   8.286   1.883 -0.2709  0.0008 -0.1451
18729W        W34538  11.618   1.318  15.059  0.2969 -0.0490  0.2480
18730W        W34539  11.567  10.881   0.745 -0.2071  0.2080  0.2491
18731W        W34540  16.369   3.824  14.664 -0.1835  0.1518  0.0257
18732W        W34541   5.065   2.251   2.475  0.0358 -0.3792  0.0723
18733W        W34542   6.560   7.462  14.900 -0.1312  0.1076  0.1546
18734W        W34543   8.473   7.316  13.952 -0.0868 -0.1577 -0.0294
18735W        W34544  10.239  14.260  11.085 -0.1596  0.0401 -0.0284
18736W        W34545   7.492  16.835   0.533  0.0480  0.3863  0.0051
18737W        W34546   1.848  10.318   4.175 -0.0667 -0.1815 -0.0024
18738W        W34547  18.125   8.278  13.064  0.3285 -0.0519 -0.0500
18739W        W34548   7.658  12.056   0.704 -0.0502  0.0965 -0.0249
18740W        W34549   7.442  13.259  10.811 -0.0834  0.0251 -0.2004
18741W        W34550   3.379   7.897  13.563  0.1100  0.0836 -0.1968
18742W        W34551   8.532   0.568   2.441 -0.1071  0.1504 -0.2610
18743W        W34552   8.511  14.851  12.739 -0.0975  0.3463 -0.1430
18744W        W34553  14.995   3.854   3.520 -0.3314 -0.0735  0.1794
18745W        W34554   9.562   4.909   3.848  0.0907  0.1253  0.0038
18746W        W34555   4.340  11.912   0.945 -0.0656  0.0213 -0.1157
18747W        W34556  11.168   3.925  14.544 -0.0600  0.0025  0.0550
18748W        W34557  14.663  12.717   5.650 -0.1280 -0.1030  0.1778
18749W        W34558  15.007   5.564  13.414 -0.0961  0.0674 -0.0151
18750W        W34559   2.030  10.817  14.013 -0.0052 -0.0368  0.0054
18751W        W34560  12.560   1.431   4.577 -0.0690  0.0792  0.1128
18752W        W34561  16.085   2.510  10.828 -0.0161  0.0845 -0.2081
18753W        W34562  13.635   1.405   5.441 -0.1813 -0.0739 -0.1091
18754W        W34563  13.333   3.146   2.196 -0.0625  0.1719 -0.1095
18755W        W34564  18.749  14.677   4.730  0.0296  0.0609  0.1517
18756W        W34565   4.180  13.923   0.197 -0.0746  0.1585 -0.4518
18757W        W34566  13.453   0.119   4.779 -0.3098  0.2228  0.1102
18758W        W34567  12.622  17.783   3.892  0.1197 -0.0316 -0.0099
18759W        W34568  15.299  13.647  12.052  0.1272  0.0270  0.4832
18760W        W34569   4.236  10.153   3.944  0.2783 -0.3451  0.0643
18761W        W34570  13.514   7.568  12.433 -0.1791  0.1620 -0.0652
18762W        W34571  11.655   7.761   0.984  0.1094  0.0768 -0.1735
18763W        W34572   9.248   2.767  12.851 -0.2242  0.1377 -0.0620
18764W        W34573   5.185  14.178   0.999 -0.0462 -0.1571 -0.2445
18765W        W34574   2.183   6.338  12.358 -0.2450  0.0447 -0.2421
18766W        W34575  17.500   2.679  11.284 -0.4863  0.3823  0.1876
18767W        W34576  18.666  13.482   1.954 -0.1410 -0.1987  0.0132
18768W        W34577  10.955  10.486   3.719 -0.3429  0.2901 -0.0978
18769W        W34578  15.456   4.188  10.738 -0.1414  0.0386 -0.0666
18770W        W34579  13.204   0.223  14.354  0.1714 -0.0643  0.2056
18771W        W34580   1.561  15.091   4.150 -0.0895  0.1639 -0.2209
18772W        W34581   0.735  10.440  11.097  0.1269  0.0303 -0.0561
18773W        W34582  10.660   8.086  13.200  0.5598  0.1154 -0.0042
18774W        W34583  13.096   7.521  14.404  0.0919 -0.2830  0.1554
18775W        W34584   2.410  16.682  12.164 -0.3143  0.0539  0.1573
18776W        W34585  16.342   7.396  15.093  0.0031  0.3313 -0.0370
18777W        W34586   4.117  13.691   1.682  0.0618 -0.0962  0.0067
18778W        W34587   8.578   3.244   0.592  0.1241  0.2533 -0.0529
18779W        W34588   7.489   4.580  12.305  0.0581  0.1547  0.2106
18780W        W34589   4.516   1.347  14.543  0.0301  0.0467  0.3392
18781W        W34590  12.350  14.811  14.404  0.1834 -0.1096  0.3818
18782W        W34591   3.789  14.768  14.927 -0.1411  0.0941 -0.2227
18783W        W34592   3.945   7.624   9.815 -0.1318  0.1467  0.0920
18784W        W34593  16.671  15.520   0.552  0.1323  0.3984  0.4186
18785W        W34594  17.450   4.072   3.161 -0.0604  0.2300  0.1117
18786W        W34595   0.524  15.616   2.724  0.1625  0.0035 -0.1400
18787W        W34596  15.458  10.785  13.592 -0.1367  0.0502 -0.0081
18788W        W34597  10.304   6.096  11.126  0.1392  0.0796  0.0772
18789W        W34598  16.837   9.233   0.771  0.2382  0.2539 -0.0277
18790W        W34599  12.870   1.532   3.958 -0.0696  0.0475  0.0175
18791W        W34600  14.992   5.968  14.348 -0.0444  0.0403 -0.0016
18792W        W34601   5.715   3.389  12.138 -0.0645  0.1813 -0.2589
18793W        W34602   1.392   3.072   4.807 -0.0681  0.0158 -0.0075
18794W        W34603   8.650   7.235   2.073 -0.0859  0.1465  0.1772
18795W        W34604   5.327  18.807   0.100 -0.0480 -0.2943  0.1579
18796W        W34605   7.482  18.217  11.425  0.0733 -0.1195  0.0463
18797W        W34606   5.480  13.220   4.409  0.0958  0.0477 -0.0697
18798W        W34607  12.354  11.039   1.587  0.1964 -0.0754 -0.0337
18799W        W34608  19.118  13.903  13.211  0.2942  0.0158 -0.0631
18800W        W34609   2.955   3.236  12.908  0.1434 -0.2426  0.0582
18801W        W34610   6.709  12.215  13.153  0.2136 -0.4010 -0.1687
18802W        W34611  19.111   0.610  10.896  0.0038  0.0377 -0.0585
18803W        W34612  17.613  16.706  13.435  0.0020 -0.0404 -0.0788
18804W        W34613   4.666  17.791  13.787  0.0891 -0.0844 -0.3429
18805W        W34614  16.160  18.479   3.381  0.1555 -0.0354 -0.2032
18806W        W34615   0.041   9.442   1.225  0.0125  0.0750 -0.0819
18807W        W34616  15.325  16.976   3.640  0.1328  0.1727 -0.1302
18808W        W34617   8.410   2.536   5.100 -0.0516 -0.0467  0.2314
18809W        W34618   4.732  16.840   2.142  0.0163 -0.3600 -0.3159
18810W        W34619   2.696  13.522   3.110 -0.0010  0.4027 -0.2027
18811W        W34620   1.692  15.060  12.558 -0.2736 -0.1714  0.0322
18812W        W34621  10.508  14.864  12.388 -0.2428 -0.0687 -0.0921
18813W        W34622   1.506   8.685  14.243  0.0155 -0.1059 -0.0178
18814W        W34623   0.128  18.202  10.742 -0.0400 -0.0975  0.1444
18815W        W34624   7.055  13.345  13.923 -0.1184 -0.1156  0.0546
18816W        W34625  16.059   6.508  13.592  0.1320  0.1577 -0.0102
18817W        W34626  13.086   9.808   5.884 -0.0448 -0.2511  0.0612
18818W        W34627  17.024   6.977   3.123  0.1259  0.0094 -0.2143
18819W        W34628  14.571  12.330  12.567  0.1537 -0.2531  0.2622
18820W        W34629   1.561  19.069   3.195 -0.0354  0.2609 -0.0135
18821W        W34630  15.896   4.616  13.272 -0.0041  0.0468 -0.2812
18822W        W34631  16.515   8.083  14.015  0.3248 -0.3998  0.0343
18823W        W34632  17.740   4.966   4.499 -0.2849 -0.0112  0.4173
18824W        W34633  14.173   6.060   3.458 -0.0952  0.4248  0.1389
18825W        W34634  12.626  16.860   0.253  0.0343 -0.2193  0.2126
18826W        W34635  14.878   0.543  14.077  0.0590  0.0361  0.0344
18827W        W34636   2.614  11.982  13.741  0.1364  0.1399 -0.1498
18828W        W34637  18.095  13.776  11.488 -0.1044  0.1475  0.4164
18829W        W34638  11.171   1.586  14.797 -0.1156  0.1309 -0.4153
18830W        W34639  11.806   9.902  12.647 -0.1128 -0.1268 -0.1314
18831W        W34640  11.605  16.417   2.947  0.0680  0.0785 -0.0215
18832W        W34641  15.821   5.212  12.079 -0.0225  0.1432 -0.4154
18833W        W34642  11.224  12.711  11.696 -0.0209 -0.1736 -0.2814
18834W        W34643  14.209   8.128  14.440 -0.1240 -0.2973  0.3908
18835W        W34644   7.818  19.038  12.115  0.2184 -0.1166 -0.0356
18836W        W34645  12.142  18.454  10.585  0.2824 -0.1266  0.1927
18837W        W34646  11.665   9.558  12.078  0.2618  0.3566 -0.0638
18838W        W34647   0.692  18.750  13.014 -0.3875 -0.1631 -0.1829
18839W        W34648   4.788  11.960   3.816  0.3815  0.0495  0.3439
18840W        W34649   0.712   6.228   3.708  0.0014  0.1984 -0.1097
18841W        W34650  12.283   5.086   1.813 -0.1719  0.1310  0.3150
18842W        W34651  18.109   9.424  13.773  0.0394  0.0022 -0.2714
18843W        W34652   4.412   6.663  12.494  0.1024 -0.1841 -0.3462
18844W        W34653   3.167   9.688   0.372 -0.2307 -0.1253 -0.0838
18845W        W34654  14.727  10.563  14.917 -0.0840  0.2057 -0.0825
18846W        W34655   1.536  10.116   2.898 -0.0255  0.1339 -0.0804
18847W        W34656  12.183  13.567   4.140  0.0501  0.0606 -0.0001
18848W        W34657  11.000  18.090   1.689 -0.1288  0.0763 -0.0616
18849W        W34658   7.465  11.951  11.417  0.0347  0.0868 -0.1429
18850W        W34659   8.262  16.217   2.165 -0.2963 -0.1187 -0.1574
18851W        W34660  10.674   3.748  13.633  0.1237  0.0934  0.1932
18852W        W34661  15.180   0.597   1.631  0.0962 -0.1351  0.0349
18853W        W34662   5.447   2.655  12.738 -0.4493  0.0874  0.0599
18854W        W34663   9.780   2.663   5.749  0.1829 -0.2043  0.1787
18855W        W34664   9.910   2.024   0.026  0.2714 -0.2720 -0.2856
18856W        W34665   7.585   8.757   1.811 -0.1252  0.2463  0.1201
18857W        W34666   5.285  18.706   2.458 -0.0363 -0.0541 -0.2485
18858W        W34667   3.683   1.185  11.239 -0.0737 -0.2272  0.0895
18859W        W34668   2.355   1.633  14.815  0.0887 -0.0337  0.0271
18860W        W34669   0.287  17.967  12.032  0.1368  0.0475 -0.0332
18861W        W34670   8.233  16.378   2.887  0.0577  0.0732  0.2556
18862W        W34671   8.431   5.480   3.789 -0.1516  0.0723  0.2069
18863W        W34672  14.968  18.425   4.020  0.1515 -0.0464 -0.0476
18864W        W34673  11.535   4.425   2.380  0.2909  0.1566  0.1375
18865W        W34674   0.343   2.088  12.075  0.0120  0.1272  0.3174
18866W        W34675   4.349  14.454  11.585 -0.1336  0.2435  0.0693
18867W        W34676   2.080   4.491   0.537 -0.0329  0.2302  0.1397
18868W        W34677  17.078   6.524   4.361  0.0557  0.2016  0.0417
18869W        W34678   0.865   9.156   2.772  0.0873 -0.1600 -0.1100
18870W        W34679   1.709   5.668  11.745 -0.0268  0.0001  0.2594
18871W        W34680   3.782   4.321  11.535 -0.1163  0.0971 -0.1007
18872W        W34681   6.562   1.835   9.503 -0.0263  0.2280  0.3190
18873W        W34682  16.201  12.922   2.871 -0.3004 -0.0078  0.3036
18874W        W34683  16.752   0.863   2.613 -0.1170 -0.2592 -0.3670
18875W        W34684   3.915   2.083   1.608 -0.0212 -0.1205 -0.0563
18876W        W34685   7.836   2.432   5.188  0.3527 -0.4425 -0.1086
18877W        W34686  12.300  10.072  12.581 -0.2546 -0.0288  0.1245
18878W        W34687  16.321   9.717  13.170  0.0452  0.0309 -0.3605
18879W        W34688  12.320   8.946  13.818  0.0371 -0.0306  0.0472
18880W        W34689  14.696  15.464  14.433  0.0972  0.1201 -0.1830
18881W        W34690  15.309   1.458  11.407 -0.1001  0.2620 -0.3158
18882W        W34691  15.805   8.342  15.056 -0.0784  0.1733 -0.0991
18883W        W34692  15.246  13.947  13.473 -0.1367 -0.1984 -0.0869
18884W        W34693  17.729  11.888   2.808 -0.1245  0.0816 -0.0649
18885W        W34694  11.114   8.293   0.332 -0.1203  0.2266 -0.1057
18886W        W34695  11.873  10.799   0.240 -0.1295 -0.0685  0.2302
18887W        W34696  13.126  13.894   5.270 -0.1635 -0.0843 -0.2705
18888W        W34697  15.594  15.553  14.066 -0.1655  0.0888 -0.3051
18889W        W34698  11.276  13.029   2.018  0.4001 -0.3160  0.2063
18890W        W34699   7.174  12.838  13.456 -0.1502  0.1718 -0.1490
18891W        W34700  16.495  10.955   2.532 -0.4660 -0.0780 -0.1159
18892W        W34701   2.684   5.140   0.591  0.2275  0.1609 -0.0884
18893W        W34702  14.930   3.544  12.212  0.1743  0.2721 -0.2927
18894W        W34703   6.425   8.879   5.187 -0.1120  0.1636 -0.0166
18895W        W34704   5.829  12.017  12.539  0.2156 -0.1346  0.0827
18896W        W34705  16.824  10.577  11.410 -0.2238 -0.1058  0.0290
18897W        W34706   1.608  14.448   3.660 -0.4217 -0.0809  0.1444
18898W        W34707   9.940   2.734   5.247  0.1564  0.1056 -0.4819
18899W        W34708  14.505   2.955   2.094  0.2008  0.3231  0.1484
18900W        W34709   2.417  12.094   4.815 -0.1977 -0.1420 -0.0528
18901W        W34710   6.813   5.221  13.116  0.0405 -0.0889  0.2163
18902W        W34711  14.859   9.937  11.755  0.2944 -0.0600  0.1283
18903W        W34712   8.079  16.234   3.457 -0.0053  0.1341  0.0332
18904W        W34713  10.959  11.233  12.321 -0.0099  0.0966  0.0831
18905W        W34714   7.456   9.731  12.505  0.1874 -0.0497  0.0040
18906W        W34715  18.349  14.584   0.511  0.2529  0.1270 -0.2485
18907W        W34716   1.052   7.541   3.110 -0.3353 -0.0009 -0.2621
18908W        W34717   1.637  10.104   3.432  0.0858 -0.0163  0.1408
18909W        W34718   5.107   5.793  14.282  0.1911  0.0077 -0.0157
18910W        W34719  10.882  11.742  14.068 -0.1532 -0.0294 -0.0952
18911W        W34720  13.494   8.988   0.002  0.2209 -0.2022  0.0922
18912W        W34721   1.259  15.762   0.139  0.0843 -0.3213 -0.1698
18913W        W34722  18.161  10.739  10.955  0.0262  0.0939 -0.1443
18914W        W34723  13.577  13.671   3.075  0.1017 -0.3846 -0.1399
18915W        W34724  16.988   0.294   4.872 -0.2155  0.0865 -0.2948
18916W        W34725   9.886  10.275   0.343  0.2778  0.0915 -0.1646
18917W        W34726  16.350  13.299   4.167  0.1428  0.0910  0.2855
18918W        W34727  12.781   9.127   1.990  0.0004  0.4304 -0.1916
18919W        W34728   2.125   3.010   2.490  0.1397 -0.0809  0.1138
18920W        W34729  12.380   0.939  12.474  0.0929 -0.0877 -0.3306
18921W        W34730  11.674   2.320  13.724 -0.2151  0.1791  0.2741
18922W        W34731   9.941   0.621  11.154 -0.0448  0.1298  0.0092
18923W        W34732   5.914   4.170   3.272  0.2803 -0.1023 -0.0452
18924W        W34733  18.072   1.240  13.301 -0.0512  0.2349 -0.1120
18925W        W34734   0.258  12.382   2.904  0.2205 -0.0217 -0.0269
18926W        W34735  10.027  10.685  14.711 -0.2735  0.1188 -0.0091
18927W        W34736   2.864   1.820  12.093  0.0435  0.2721  0.2681
18928W        W34737  14.521  10.059   3.965 -0.0251 -0.2069 -0.4463
18929W        W34738  10.061   4.072   2.411 -0.1757  0.4773  0.0353
18930W        W34739   9.073   2.605  10.521  0.4309  0.5107  0.1190
18931W        W34740  12.790  14.587  14.702 -0.0743  0.0849  0.0775
18932W        W34741  12.744   6.187   0.380 -0.0025  0.2598  0.1890
18933W        W34742  18.794  18.098  13.312 -0.1541  0.1221  0.0358
18934W        W34743   7.150   0.162  14.474 -0.0668  0.2847 -0.1909
18935W        W34744   9.433   0.003   1.329  0.1872 -0.2035 -0.1023
18936W        W34745  13.727   9.161  11.292  0.0956 -0.1223 -0.2888
18937W        W34746   0.875   1.376  13.593 -0.0835  0.0435  0.1610
18938W        W34747  14.289  15.312   0.588 -0.1198  0.0055 -0.3094
18939W        W34748   8.908  13.345  13.433  0.0795  0.0072 -0.0355
18940W        W34749  12.949  14.148   0.783 -0.0181 -0.1362 -0.3907
18941W        W34750  14.413   9.091  14.032  0.1313 -0.1517  0.0465
18942W        W34751  13.480  14.401   3.221 -0.2197  0.0215 -0.2524
18943W        W34752   5.734  13.586   1.408 -0.0445 -0.0768  0.2508
18944W        W34753  10.102   8.094   0.057  0.1516 -0.1133  0.1729
18945W        W34754   9.068   2.992   3.658  0.0916  0.0768  0.1058
18946W        W34755  16.428  10.468   2.691  0.0383 -0.0225  0.0668
18947W        W34756   0.222  16.619   1.062  0.3069  0.0753  0.0808
18948W        W34757  18.260  13.189   0.066 -0.3664 -0.1856 -0.1141
18949W        W34758  12.834   8.847   1.504  0.0629  0.1989  0.2400
18950W        W34759  18.696   6.756   1.390 -0.3050 -0.2497 -0.2098
18951W        W34760   6.596   9.157  12.241 -0.0049 -0.1482 -0.0879
18952W        W34761   9.732   7.320  11.226 -0.4144  0.1491  0.1061
18953W        W34762   8.256  11.509   1.424 -0.1026  0.0683 -0.3863
18954W        W34763  15.771   9.518   5.106 -0.0737  0.1195  0.6149
18955W        W34764   9.187   7.897   1.080 -0.0888  0.0584  0.1211
18956W        W34765   3.139   9.620   2.111  0.0343  0.0547  0.0827
18957W        W34766   1.691  18.006  10.711  0.0687 -0.0955  0.0276
18958W        W34767  12.623  14.576  13.454 -0.0098  0.2438 -0.1050
18959W        W34768  16.996  11.495  11.360  0.2860  0.5593  0.2854
18960W        W34769   3.378  16.352  14.259  0.1007 -0.1890 -0.2400
18961W        W34770   8.105  14.661  11.570  0.3019  0.0963  0.2694
18962W        W34771   5.018   2.366  14.789 -0.0701 -0.0437  0.1115
18963W        W34772  18.373  19.012   1.800  0.1751 -0.1178  0.0438
18964W        W34773  12.962  17.938  13.446 -0.1090 -0.0105 -0.1194
18965W        W34774   0.555  18.292  13.943  0.0093 -0.0173  0.1047
18966W        W34775   5.123   8.839   1.882  0.2302  0.1803  0.3296
18967W        W34776   6.572  11.514   0.227  0.1397  0.0652 -0.1236
18968W        W34777   8.364  18.698   0.234  0.4395  0.4719 -0.1686
18969W        W34778   4.166   4.009   5.083 -0.0285 -0.1550 -0.3170
18970W        W34779  10.619   2.170  10.683  0.2115 -0.2247  0.3895
18971W        W34780  10.612   9.923  11.471 -0.1312 -0.1103  0.0506
18972W        W34781  12.730   1.841   4.329  0.0519 -0.1676  0.1448
18973W        W34782   1.239   6.725  10.390  0.1322  0.4134 -0.1878
18974W        W34783   9.081  16.857   1.358  0.1898 -0.2238 -0.1463
18975W        W34784   5.115  17.892  13.467 -0.1781 -0.2088  0.0165
18976W        W34785   8.757  14.219  13.493  0.2482 -0.5950 -0.2103
18977W        W34786  16.357   7.919   3.072  0.0262 -0.0882  0.1639
18978W        W34787   3.337   6.992  14.157  0.1335 -0.2776 -0.0672
18979W        W34788  16.463   6.438   1.115  0.0868 -0.0675  0.1292
18980W        W34789   6.215   5.945  14.634  0.0013  0.0448 -0.0632
18981W        W34790  17.793  16.156  10.797 -0.1584  0.0239  0.1664
18982W        W34791   3.962  11.071  14.500  0.1582 -0.3061  0.0274
18983W        W34792  17.027   9.701  12.655  0.1400 -0.0965  0.0135
18984W        W34793  10.385   2.041   1.080 -0.0866  0.1838 -0.0192
18985W        W34794   2.186  11.108  13.654  0.0609  0.4725  0.0375
18986W        W34795   3.035   4.010   4.703  0.1324  0.0076 -0.0922
18987W        W34796  12.625  12.161  11.371  0.1962 -0.0063 -0.1391
18988W        W34797   4.618   2.425   3.397  0.0092 -0.1977  0.2344
18989W        W34798  11.836  10.107   4.664  0.0795  0.1887 -0.1437
18990W        W34799   6.434   9.534   3.931  0.0079  0.1310 -0.0942
18991W        W34800  15.001  12.155  14.491  0.0160 -0.0107 -0.1288
18992W        W34801  14.569   2.892   3.759  0.0665 -0.1194 -0.0653
18993W        W34802  18.524   7.296  13.799  0.1081 -0.1806  0.2245
18994W        W34803   6.783  15.648  14.310 -0.0739 -0.2281  0.1338
18995W        W34804  14.499   3.545   9.723 -0.1096 -0.1327  0.0662
18996W        W34805   8.149  18.785  10.460 -0.0387 -0.3690  0.4940
18997W        W34806  12.676  14.852  12.725  0.0950 -0.1733 -0.1721
18998W        W34807  17.731  11.933  13.057  0.4003  0.0061  0.0530
18999W        W34808  14.637   9.421  13.557  0.0709 -0.2185  0.1570
19000W        W34809  11.688   8.144   0.041 -0.1494 -0.1511  0.0347
19001W        W34810   5.135  12.836   4.468  0.1485  0.1588 -0.0755
19002W        W34811  18.779  16.499   4.752  0.2180 -0.0640  0.0063
19003W        W34812   0.907   0.779  13.817  0.3770 -0.4917 -0.1058
19004W        W34813  10.599  17.654  13.605  0.4315 -0.1272  0.1825
19005W        W34814  16.257   8.901  11.613  0.1248  0.0428 -0.2468
19006W        W34815  15.650  15.793  11.295 -0.0151  0.2622 -0.0074
19007W        W34816   1.871  12.051   5.526  0.0642  0.1182 -0.1902
19008W        W34817  12.953   2.202  11.558  0.1141 -0.1488  0.1671
19009W        W34818  10.502  10.788   5.494  0.1321  0.0939 -0.0148
19010W        W34819   6.141  10.844  14.933  0.1032 -0.1335 -0.4348
19011W        W34820  15.013  17.988  12.747 -0.2094 -0.0136 -0.0100
19012W        W34821   5.438  16.901  14.648  0.3090 -0.5799 -0.3207
19013W        W34822   6.038  17.096   1.838 -0.0759  0.3108 -0.0918
19014W        W34823   4.122  18.774   1.780  0.1662  0.1103 -0.0455
19015W        W34824  12.864  16.132   3.620 -0.1236 -0.0049 -0.1655
19016W        W34825   8.208  16.207  10.789  0.0209 -0.3626 -0.0571
19017W        W34826  13.837   6.264   2.957 -0.2369  0.3021 -0.2110
19018W        W34827   5.962   6.879  13.498  0.3895  0.1752 -0.0218
19019W        W34828  10.154  10.418  15.167 -0.0201 -0.1993  0.3796
19020W        W34829   8.404  15.857   5.770 -0.2157  0.0491  0.1257
19021W        W34830  14.235  15.547  12.694  0.0237  0.3239  0.1153
19022W        W34831  16.483  11.727  12.938  0.1450  0.6660 -0.2079
19023W        W34832  13.676   4.122  13.046  0.1465 -0.0166 -0.2452
19024W        W34833  18.699   7.005   4.953  0.0436  0.0990  0.5261
19025W        W34834  16.873  14.417  13.114 -0.2258  0.0969  0.1324
19026W        W34835  14.262   0.170  10.236  0.2074  0.0800  0.3436
19027W        W34836  16.053   8.232   3.518  0.2607 -0.0212  0.0538
19028W        W34837  16.732  11.069  13.833  0.1033  0.1791 -0.0034
19029W        W34838  14.220   7.060  10.932  0.0733 -0.5751 -0.3703
19030W        W34839   7.669  17.760   2.675  0.1420  0.1734 -0.2118
19031W        W34840   7.692   8.724  12.465  0.2325 -0.3024  0.0008
19032W        W34841  10.483   4.181   0.134  0.2076  0.1597  0.0475
19033W        W34842   8.384   7.501  12.013  0.0800 -0.0688  0.0769
19034W        W34843  14.329   7.090   3.343 -0.3585 -0.2226 -0.1745
19035W        W34844   8.537  12.496  11.985 -0.0909 -0.1934  0.1605
19036W        W34845  18.305   2.186   3.224 -0.3110 -0.0977 -0.1279
19037W        W34846   3.909  10.382  15.148  0.2501  0.0082  0.0607
19038W        W34847  13.546  16.899  12.515 -0.2404  0.1818 -0.0385
19039W        W34848  11.655  17.237   2.206  0.0380  0.0939 -0.0752
19040W        W34849  10.569  11.461   3.348  0.1781  0.0347  0.2440
19041W        W34850  11.453   0.267   1.539  0.0098  0.1201  0.3503
19042W        W34851  18.748  15.427  12.674  0.2754  0.0931  0.1179
19043W        W34852   3.994   1.549   0.211  0.0993  0.4130 -0.1278
19044W        W34853   1.966  14.425   2.442 -0.0708 -0.3294  0.1717
19045W        W34854   7.484  10.717   3.289  0.0003 -0.2797  0.1570
19046W        W34855  14.297  17.122   1.609 -0.1174 -0.1005 -0.1907
19047W        W34856   0.258  13.731  11.019  0.0952 -0.2827  0.0787
19048W        W34857  10.302   4.973  10.462  0.0072  0.0148 -0.0479
19049W        W34858   5.544   1.461   9.355 -0.1609  0.3062 -0.0729
19050W        W34859  15.292   6.470  15.116  0.0981 -0.2457  0.2424
19051W        W34860   6.517  17.817  12.438  0.0999  0.0993  0.0095
19052W        W34861   6.635  13.354   2.943 -0.0865 -0.1019  0.1676
19053W        W34862   0.517  12.632   3.313 -0.0177 -0.1838 -0.2052
19054W        W34863   1.121   9.724   0.771 -0.3239  0.4412 -0.1213
19055W        W34864   9.645   7.447  11.741 -0.0933  0.3395 -0.0941
19056W        W34865  13.932   4.673  13.055  0.1556  0.4523  0.0125
19057W        W34866   4.525  16.029   1.459 -0.2135  0.0781 -0.1194
19058W        W34867  18.104   4.441   3.647  0.3232  0.0664  0.1105
19059W        W34868  13.550  15.257   0.296  0.0066 -0.0342 -0.2760
19060W        W34869  17.040   4.177   4.976 -0.1172  0.2270 -0.0751
19061W        W34870  13.667  14.133   9.916 -0.2819 -0.0599 -0.1279
19062W        W34871  17.968  13.800   2.667 -0.1132 -0.1809 -0.2039
19063W        W34872   7.544  17.060   3.418 -0.1154 -0.1794  0.1022
19064W        W34873  17.933   9.011   1.559 -0.2971 -0.1447 -0.1019
19065W        W34874  15.931   7.001   2.230 -0.2530  0.1060 -0.2341
19066W        W34875   2.340   0.031  10.330 -0.0732  0.0628  0.1712
19067W        W34876   5.906   1.604   4.707 -0.0479  0.1822 -0.2172
19068W        W34877   4.895   8.343   1.891  0.0053 -0.3555  0.5036
19069W        W34878  17.024   2.163   3.129 -0.0504 -0.2337 -0.2447
19070W        W34879  12.782  18.202   0.054  0.0251 -0.3809 -0.3711
19071W        W34880   5.010  17.749   0.007 -0.0406  0.3507  0.1579
19072W        W34881   9.396  12.051  14.523  0.0469 -0.3618  0.0367
19073W        W34882   7.768   2.858  14.711 -0.0431 -0.3020 -0.0776
19074W        W34883  10.708  14.861   0.838  0.1772  0.2309 -0.0232
19075W        W34884  12.858  14.931  14.345 -0.1266  0.0727  0.0850
19076W        W34885  18.539  18.744   4.855  0.0096  0.2211  0.0208
19077W        W34886   5.478  14.936  10.164 -0.2317 -0.2054  0.0127
19078W        W34887  19.125   7.284  13.552  0.3533 -0.1618  0.0181
19079W        W34888   0.905   4.563   3.077  0.2141  0.2115  0.0003
19080W        W34889  17.360  15.127   5.606 -0.2857 -0.2434 -0.3475
19081W        W34890  12.713  17.469   2.635  0.3317 -0.0108  0.0607
19082W        W34891   7.287  18.553   3.854 -0.1930 -0.2694  0.2548
19083W        W34892   7.132   6.457   3.536  0.0765  0.0177  0.1414
19084W        W34893   7.501   1.463  14.750  0.0539 -0.3169  0.1107
19085W        W34894   4.423  14.491   9.622  0.0019  0.1650  0.2307
19086W        W34895  16.366   5.162   3.994 -0.2213  0.2168  0.0398
19087W        W34896   7.896  10.069  12.320 -0.0097 -0.2062 -0.0137
19088W        W34897   6.716  11.597   5.455  0.0378 -0.0410  0.0865
19089W        W34898   3.550   8.451  12.911  0.2598 -0.1234  0.0680
19090W        W34899   7.093  18.842  13.983 -0.2294  0.1707 -0.2269
19091W        W34900  10.236  16.985   2.498  0.0019 -0.0977 -0.2107
19092W        W34901   6.219  15.736  13.119  0.0184  0.0445 -0.0158
19093W        W34902  12.522  11.251   2.328  0.1159  0.1439  0.0078
19094W        W34903  13.390   9.875  11.977 -0.0747  0.2169 -0.1835
19095W        W34904   9.374   3.722   4.757  0.1894 -0.1554 -0.2324
19096W        W34905   6.097   5.728   2.208  0.1135  0.0415 -0.2579
19097W        W34906  14.193   8.891   4.201 -0.1007 -0.1000 -0.2344
19098W        W34907   1.280  13.661   4.002 -0.2798 -0.0268  0.0687
19099W        W34908   6.412   6.077  11.356 -0.0144  0.1619 -0.3202
19100W        W34909  14.654  14.421   0.738  0.4129  0.0825  0.3656
19101W        W34910   6.828  17.489   0.252 -0.1060 -0.1021  0.3407
19102W        W34911   0.640   7.394   1.484 -0.2291  0.0455  0.0203
19103W        W34912  12.750   4.044  12.699  0.1001  0.2145  0.0515
19104W        W34913  13.869  14.244  12.586 -0.5149 -0.1197 -0.0747
19105W        W34914   5.186  14.174   3.047  0.0895  0.2946 -0.3727
19106W        W34915  18.696   7.063   2.815  0.1490 -0.0674  0.1795
19107W        W34916  10.049   9.525   3.907 -0.2841  0.3367  0.0798
19108W        W34917  15.839   2.519  11.965 -0.1136 -0.0354 -0.4528
19109W        W34918  15.370  15.039   0.292 -0.1479 -0.2796  0.1889
19110W        W34919   1.929   8.758   3.683 -0.0332  0.1809 -0.0976
19111W        W34920  18.644  14.517  13.897 -0.0096 -0.0643  0.2538
19112W        W34921   6.825   0.375  13.644 -0.0130 -0.0360 -0.0670
19113W        W34922  11.668   4.471  13.818 -0.3623 -0.0586 -0.3514
19114W        W34923   0.420  13.988   1.822 -0.0733  0.0420 -0.0266
19115W        W34924   1.013   3.318   3.738 -0.5089  0.1537 -0.0924
19116W        W34925   3.794   1.127   1.928 -0.1406  0.2780 -0.1581
19117W        W34926   3.212   0.782  13.854 -0.1731 -0.1659 -0.0170
19118W        W34927   7.986   6.215   2.887 -0.1551  0.0728  0.0045
19119W        W34928   2.611  14.392  12.753  0.1603  0.1137  0.0500
19120W        W34929   0.837  19.025   1.332  0.4446  0.0864 -0.0273
19121W        W34930   5.568  19.159  13.206  0.2120  0.0340 -0.0572
19122W        W34931   4.247  16.965   3.800  0.3806 -0.1430  0.0088
19123W        W34932  14.128  16.388  14.124  0.0085 -0.0427 -0.2748
19124W        W34933   6.403  18.334  12.593  0.0416 -0.0064 -0.0880
19125W        W34934  17.890  14.330  12.707  0.0787 -0.0835  0.0034
19126W        W34935  16.611   7.462  13.292  0.1080 -0.0110 -0.0604
19127W        W34936   7.279   8.200   3.792  0.0304 -0.0377  0.1632
19128W        W34937   6.172   8.645  12.837  0.0630  0.2323 -0.1260
19129W        W34938  12.468   0.886  13.518  0.0116  0.1631  0.5258
19130W        W34939   3.840   4.928  14.198  0.1074 -0.2717 -0.0579
19131W        W34940  10.479  17.514  11.247 -0.1005  0.0255  0.2365
19132W        W34941   7.857  15.054  11.279  0.3448 -0.0036 -0.1079
19133W        W34942  11.157  12.677   2.328 -0.4880  0.1083  0.1398
19134W        W34943  15.243  17.676   2.840 -0.1555 -0.0929  0.1139
19135W        W34944   0.703   3.925  10.565 -0.1773 -0.2659  0.1876
19136W        W34945  13.610  12.399  15.122 -0.0908  0.0102 -0.0618
19137W        W34946  13.935   4.450   4.287  0.0020  0.0474 -0.1019
19138W        W34947  13.600  14.420   1.787 -0.2270  0.3361  0.1306
19139W        W34948   4.955   3.836  12.245 -0.1069 -0.2214 -0.1153
19140W        W34949   5.694   9.623   1.151 -0.0139 -0.1803  0.2547
19141W        W34950  17.806  12.426   3.094  0.2461  0.1613  0.0731
19142W        W34951   1.423   3.890  14.137 -0.1519 -0.1467  0.1961
19143W        W34952   2.404   3.590   2.038  0.2669  0.1510  0.2696
19144W        W34953   7.515  17.118  14.642  0.1465  0.1730  0.2153
19145W        W34954   5.180  10.132   1.176  0.0092 -0.0117  0.1023
19146W        W34955   7.121   9.300  12.212 -0.1162  0.0094  0.4869
19147W        W34956   5.342   6.750   1.333  0.0123  0.1748 -0.2173
19148W        W34957  16.886   3.329   0.325  0.0013 -0.0850  0.3954
19149W        W34958   1.324  10.865  15.052  0.0517 -0.2651  0.0061
19150W        W34959   7.777  14.969   2.527  0.1777 -0.1785  0.0718
19151W        W34960   5.960  10.408  11.868  0.1197  0.1349  0.0520
19152W        W34961   0.068  17.435   5.357 -0.4465 -0.2155 -0.0712
19153W        W34962   7.036  17.344  12.844  0.1926 -0.3322  0.0128
19154W        W34963   3.134  15.858  14.913  0.4072 -0.0223 -0.0696
19155W        W34964  18.678  15.556  12.204  0.0627  0.2405  0.1157
19156W        W34965   6.853   2.811   4.928  0.0379  0.0898 -0.1994
19157W        W34966   1.946  12.095   4.871  0.0402 -0.0463  0.1428
19158W        W34967   5.628   1.807   1.736  0.0349 -0.0651  0.0236
19159W        W34968  11.974  15.199   4.762  0.1941 -0.2751 -0.1868
19160W        W34969   3.394  18.777   4.362 -0.0902 -0.1132 -0.0930
19161W        W34970  12.544  13.705  12.783 -0.0647 -0.2337 -0.1934
19162W        W34971  13.499  17.381  15.061 -0.1948  0.0948 -0.1239
19163W        W34972   5.798   3.970   3.725  0.5266  0.0701  0.0197
19164W        W34973  11.422  14.444  14.512  0.1242  0.4201  0.2550
19165W        W34974   2.724  11.506   1.604 -0.1007 -0.2156 -0.1585
19166W        W34975   7.694   9.121  12.108 -0.0442 -0.1743  0.2708
19167W        W34976   1.392  15.012  14.114 -0.1356  0.0596  0.3022
19168W        W34977   7.501   9.112  10.253  0.1541 -0.1538 -0.3034
19169W        W34978  16.665   4.048   2.189 -0.1682  0.1851  0.2032
19170W        W34979   7.977   0.578   1.946  0.1299 -0.2246 -0.1659
19171W        W34980   2.816   4.903   1.481  0.0929 -0.4301 -0.1394
19172W        W34981   3.001  17.746  12.772 -0.0698 -0.3098 -0.0609
19173W        W34982  13.727   8.026  14.395 -0.0154 -0.0445 -0.0081
19174W        W34983   0.772   3.095   2.322 -0.1221  0.0400 -0.0736
19175W        W34984   9.582   2.806   2.482 -0.1665  0.0657 -0.4197
19176W        W34985   9.128  14.671  10.901  0.0732 -0.0982 -0.0218
19177W        W34986  18.360   1.318   0.397  0.0985 -0.1272 -0.0075
19178W        W34987   5.581  11.392   1.501  0.0874  0.3131  0.1626
19179W        W34988  12.142   8.961  12.390  0.1170 -0.2667 -0.1703
19180W        W34989  17.482   6.571  13.460  0.0391  0.1595  0.2135
19181W        W34990  12.009  17.498  10.003  0.2379 -0.0522 -0.2509
19182W        W34991   5.813  18.780   1.152  0.0342  0.0636 -0.0190
19183W        W34992  10.388  10.483   3.840  0.1847  0.3877 -0.6308
19184W        W34993  11.117   1.178  15.050 -0.2026  0.2190  0.0554
19185W        W34994   9.826  10.200  14.930  0.0057 -0.0433  0.2087
19186W        W34995   2.255   7.793  11.853 -0.3405 -0.3473  0.3517
19187W        W34996   5.148   8.907  12.614 -0.2944 -0.1146  0.0684
19188W        W34997   2.190  11.561  13.408 -0.0686  0.1577  0.1839
19189W        W34998  12.202   9.275  14.664 -0.2533  0.3071  0.1950
19190W        W34999  15.660  19.071   2.763  0.0877  0.1810  0.0089
19191W        W35000  18.357  13.748  14.336  0.0705 -0.2263 -0.0715
19192W        W35001  11.451   4.455   0.753 -0.1065  0.0710  0.2130
19193W        W35002   1.471   2.199  13.842  0.1327  0.2952 -0.1806
19194W        W35003  12.819  16.988  10.996 -0.0493  0.1519  0.1049
19195W        W35004  17.123  12.096   3.885 -0.3329 -0.2433  0.3183
19196W        W35005  15.425   2.865   2.592  0.0087  0.1043  0.1109
19197W        W35006   6.140   8.119  14.116 -0.1529 -0.3150 -0.1772
19198W        W35007   6.421   6.717   0.863  0.0045  0.1136 -0.1429
19199W        W35008   2.767  15.048   1.951 -0.0951  0.1434 -0.2084
19200W        W35009  17.005   8.805   5.450  0.0100  0.1907 -0.0395
19201W        W35010   2.383   4.074   1.771 -0.0395  0.4064 -0.0376
19202W        W35011  15.974   6.074   4.820  0.2159 -0.2073 -0.1591
19203W        W35012   7.071   8.359  15.108 -0.1316 -0.0142  0.2466
19204W        W35013  14.297  17.216   5.888 -0.1382  0.1323 -0.4541
19205W        W35014  18.000   6.044   2.415  0.0085  0.3455  0.1548
19206W        W35015   6.471  11.813  11.128 -0.0816  0.1228 -0.1255
19207W        W35016  10.409   7.752  14.501 -0.1856 -0.2841  0.0206
19208W        W35017   3.174   8.004  13.020 -0.2673  0.2065 -0.2015
19209W        W35018   7.688   3.759   0.196 -0.0905 -0.0926  0.1693
19210W        W35019   2.065  16.605  10.801 -0.0662 -0.0113  0.0554
19211W        W35020  17.951   0.193   3.683 -0.0727 -0.2184 -0.4377
19212W        W35021   8.328  15.840   3.172  0.1837 -0.0356  0.1955
19213W        W35022  13.971  13.251  14.819  0.2654  0.1672  0.1209
19214W        W35023  17.650   6.590  11.434  0.2811  0.0028  0.0343
19215W        W35024   6.547   0.938   4.538  0.0552 -0.0842  0.1785
19216W        W35025  10.501   5.923   3.987 -0.3378 -0.0175 -0.0658
19217W        W35026   2.540   1.190   4.546  0.1442  0.0118 -0.0969
19218W        W35027   6.330   4.248   0.193  0.2009  0.3912 -0.0664
19219W        W35028   8.406   8.211  11.406 -0.2861  0.0937  0.0584
19220W        W35029  18.151  18.454   2.529  0.0218  0.1222  0.2106
19221W        W35030   6.959  14.715   1.535 -0.1755 -0.1435 -0.1624
19222W        W35031   1.614   0.913  14.125  0.0568 -0.2244  0.1613
19223W        W35032  15.370   2.881  11.098 -0.1236  0.1438  0.0073
19224W        W35033  13.178  12.709  15.095 -0.0264 -0.0556 -0.0633
19225W        W35034  16.869  12.666  12.963  0.3676  0.1216  0.0922
19226W        W35035  12.875  11.335   1.926  0.2300 -0.2924 -0.2472
19227W        W35036  18.082  14.847   4.037  0.1138 -0.1421 -0.0370
19228W        W35037  16.347   8.713   5.131 -0.2669  0.2916  0.0685
19229W        W35038  11.504  15.338   3.444  0.2036 -0.0776 -0.1146
19230W        W35039  18.274  13.248   1.650 -0.0230  0.0445  0.0102
19231W        W35040  10.183   8.603  14.572 -0.2635 -0.3465 -0.2533
19232W        W35041   7.324  10.560   4.712  0.0556 -0.0106 -0.2975
19233W        W35042  10.588  11.076  14.905  0.0116 -0.2150 -0.4904
19234W        W35043   1.933   1.607  11.728 -0.0277  0.2095 -0.1396
19235W        W35044  16.709  11.250   4.793 -0.0988  0.0189 -0.0907
19236W        W35045   1.516  10.146   1.534 -0.1351 -0.0089  0.3350
19237W        W35046   7.862   7.743  11.396  0.1247 -0.0674 -0.1033
19238W        W35047  14.464   3.157   4.722 -0.1127 -0.3187 -0.3415
19239W        W35048   1.400  16.193   9.969  0.0556  0.0833  0.1251
19240W        W35049  12.672  10.064   5.733  0.1052 -0.0662  0.1240
19241W        W35050   4.677  13.681   1.987 -0.0880  0.3936 -0.2147
19242W        W35051   6.883   0.011  12.188 -0.2181  0.1477 -0.1433
19243W        W35052  10.921   2.509  11.955  0.0276 -0.3219  0.2589
19244W        W35053  15.623  14.267   4.626  0.0276  0.0868 -0.1284
19245W        W35054   7.807   2.714  12.748  0.1502  0.1733  0.0345
19246W        W35055   0.926   6.112  13.385 -0.0151 -0.0442  0.0629
19247W        W35056   2.730   8.742   0.270  0.0660 -0.1762  0.4409
19248W        W35057   3.231   9.960   9.782 -0.3121 -0.1124 -0.2106
19249W        W35058   4.281   3.431   0.112  0.0318 -0.1750 -0.1500
19250W        W35059   6.209   5.517   8.972 -0.0460  0.0946 -0.0508
19251W        W35060   0.831  16.008   1.653  0.0058 -0.0132  0.2670
19252W        W35061   7.815   9.979   2.780 -0.1438  0.1146  0.3058
19253W        W35062   6.063   5.319  13.711 -0.0429  0.1148  0.0572
19254W        W35063  11.951   5.913   1.473 -0.2972 -0.0405  0.1325
19255W        W35064  17.872   0.130  14.043 -0.2391  0.2715  0.2022
19256W        W35065   1.343   6.481  13.535 -0.3182  0.0948  0.2451
19257W        W35066  13.140   6.170  10.052  0.3024  0.2177 -0.2844
19258W        W35067   1.014  16.726  12.910 -0.0603 -0.1904 -0.2004
19259W        W35068  18.423  13.258  12.230  0.1897  0.2146 -0.0132
19260W        W35069  12.641  13.296  13.689 -0.1529 -0.0010 -0.3649
19261W        W35070   5.242   5.150  10.229  0.0253 -0.0477 -0.3689
19262W        W35071  13.254   3.401   1.440  0.0033  0.1862  0.0414
19263W        W35072  12.480  16.575   5.228  0.2558  0.1917  0.1303
19264W        W35073  13.135  12.095   1.476 -0.3218  0.2063 -0.0777
19265W        W35074  13.747  15.296   1.454  0.0032  0.1022  0.2528
19266W        W35075   3.109  11.262   4.673  0.2328 -0.0409 -0.1464
19267W        W35076  15.182  11.946  11.690 -0.3510 -0.1603 -0.4936
19268W        W35077   9.844  15.274   1.387 -0.3730 -0.1743  0.0491
19269W        W35078   5.506   3.436  10.188  0.0820  0.0700 -0.0644
19270W        W35079   5.992   4.382   3.954  0.1397  0.0353 -0.0002
19271W        W35080   4.399   3.090  12.228 -0.2206 -0.0550  0.1348
19272W        W35081  17.436   4.837  12.142  0.3809 -0.2723  0.1067
19273W        W35082   6.762  13.608  12.121  0.0736  0.0897  0.0599
19274W        W35083  12.764   5.533  13.712 -0.0280 -0.1973  0.0937
19275W        W35084   6.782   4.246  13.397  0.1171 -0.1812 -0.2821
19276W        W35085  11.309  17.687  10.596 -0.2748  0.1756  0.0379
19277W        W35086   4.154   1.405   9.170  0.0168 -0.0185 -0.3426
19278W        W35087   1.495   3.972  10.036 -0.1545  0.2430 -0.0245
19279W        W35088  18.475   4.244  12.818  0.0514  0.0384 -0.1734
19280W        W35089   4.860  18.954   3.586  0.2298 -0.0822 -0.2994
19281W        W35090  10.998   6.281  14.336 -0.0529 -0.3184 -0.2016
19282W        W35091  11.485   2.428   9.685 -0.0858  0.2213 -0.0475
19283W        W35092  14.379  13.152  13.016 -0.0540  0.1054 -0.1992
19284W        W35093   4.806  17.289   2.537  0.0195  0.2212 -0.0727
19285W        W35094  16.619  18.697  12.844  0.1408  0.1272  0.0980
19286W        W35095   4.819   3.371   0.975 -0.1681  0.5503 -0.3176
19287W        W35096   6.983  14.306   3.398  0.2505 -0.0091 -0.3983
19288W        W35097  16.414  16.659  14.481  0.0433  0.3176  0.2461
19289W        W35098   9.469  11.921   4.942  0.4646  0.4910 -0.0347
19290W        W35099   9.826  10.033  12.898 -0.3548  0.0415  0.1926
19291W        W35100   4.269   0.059  13.505 -0.0720  0.0254  0.0612
19292W        W35101  11.429  11.646   4.715 -0.0067 -0.4077  0.1380
19293W        W35102  14.785  16.356   5.055  0.1165  0.2393 -0.2723
19294W        W35103  11.823   8.055  11.579  0.4426  0.1227 -0.0604
19295W        W35104   5.686  13.177  12.258 -0.1021 -0.1928  0.1849
19296W        W35105  12.434   4.831   1.403 -0.1719 -0.0817 -0.0101
19297W        W35106  18.403  15.332  13.581  0.2437 -0.0205 -0.0437
19298W        W35107   1.162  12.263   2.121 -0.0375 -0.0905 -0.1841
19299W        W35108   3.444   6.508   5.552 -0.1201  0.0827  0.1467
19300W        W35109  11.956   2.049  11.522 -0.0645 -0.2197  0.0327
19301W        W35110   0.204  10.745   4.467  0.0569  0.4326 -0.1026
19302W        W35111   8.410  10.971   5.338  0.0952 -0.0233  0.2670
19303W        W35112  17.774  18.876   2.591 -0.4732 -0.1772  0.0514
19304W        W35113  17.245   6.317  11.427  0.0916  0.2317  0.1116
19305W        W35114  18.961   4.502  14.055 -0.1854  0.1555  0.0031
19306W        W35115  11.981   8.128  11.069  0.1608 -0.1458 -0.1197
19307W        W35116  15.631  13.617  11.164 -0.4068  0.2825 -0.1483
19308W        W35117  16.895   0.923  10.886  0.1013  0.0412 -0.0312
19309W        W35118  16.938   6.507  15.096 -0.0555 -0.1500 -0.0175
19310W        W35119   6.497  11.171   1.051  0.0621  0.1097  0.2160
19311W        W35120   6.298   7.688  12.096 -0.0756  0.1581 -0.0977
19312W        W35121   1.554   3.615  12.172 -0.4158 -0.2594 -0.0574
19313W        W35122   3.593   7.767  13.975 -0.2416 -0.0422 -0.1053
19314W        W35123   2.743  11.162   3.284  0.0022 -0.4676  0.0057
19315W        W35124   6.364  15.936  13.538 -0.0680 -0.2817 -0.2492
19316W        W35125   6.125   6.149  10.374 -0.2275  0.1645  0.0965
19317W        W35126  14.234   2.045  14.991  0.0226  0.1402 -0.3698
19318W        W35127   3.365  17.727   2.436  0.1402  0.0012  0.0744
19319W        W35128   1.947  10.415   9.931  0.1843 -0.0343 -0.3196
19320W        W35129   8.458   0.333   1.097 -0.1981 -0.0581 -0.0419
19321W        W35130   2.875  13.068   9.798 -0.1759  0.1875 -0.0490
19322W        W35131  16.010  18.574  12.006 -0.2133  0.1232 -0.1044
19323W        W35132  12.287  11.560  10.648 -0.1617 -0.0722  0.4327
19324W        W35133   6.679   2.775   2.741  0.5034 -0.1758  0.0383
19325W        W35134   3.337  17.148   2.397 -0.1327  0.1858 -0.2540
19326W        W35135  16.888   6.968  13.597 -0.1165 -0.2049 -0.2116
19327W        W35136  16.095   2.893   3.641  0.0732  0.2249 -0.1784
19328W        W35137  10.676   7.439  12.923  0.1632 -0.1184 -0.2496
19329W        W35138  10.916  18.638   0.986 -0.2553  0.5002 -0.0232
19330W        W35139  18.509   6.449  12.547  0.0829 -0.1334 -0.0434
19331W        W35140  10.039  17.781   1.735 -0.2421  0.1252  0.0391
19332W        W35141  14.863  10.012   5.246 -0.2244 -0.0453  0.1865
19333W        W35142  12.746  10.432   3.581 -0.0189 -0.1617  0.2871
19334W        W35143   2.230  16.427  10.226 -0.2697  0.1572 -0.2119
19335W        W35144   8.633  13.003   0.111  0.0590  0.0760  0.0016
19336W        W35145   7.749  11.631   1.608  0.1268 -0.1506 -0.1030
19337W        W35146  15.758  16.176  12.157 -0.4717 -0.1702  0.5079
19338W        W35147  14.905   4.828   4.989  0.1627  0.0638 -0.0296
19339W        W35148  12.553  15.253   0.295 -0.4671 -0.1695  0.3803
19340W        W35149  16.223  12.144  14.756  0.1663 -0.6856  0.0379
19341W        W35150  10.965  12.310   1.090 -0.1231 -0.0551 -0.1847
19342W        W35151   3.937   8.601  11.280 -0.0936  0.3321 -0.4078
19343W        W35152  18.440   7.432  12.196  0.0021  0.0671  0.1090
19344W        W35153  13.891   2.634   2.962  0.2718  0.2449  0.0054
19345W        W35154   6.670   9.033  15.102 -0.0428 -0.3049  0.2109
19346W        W35155   3.441   5.875  11.796  0.0194  0.3591 -0.3471
19347W        W35156  17.944  12.236  14.381 -0.0427  0.5161 -0.0753
19348W        W35157  14.863  14.391   1.543  0.2194  0.1543 -0.0811
19349W        W35158  18.434  13.673   2.969  0.3938  0.1357  0.1889
19350W        W35159   4.289  13.396   2.230  0.1137 -0.0965 -0.0735
19351W        W35160   7.622  18.705   4.462  0.3043 -0.1983  0.1148
19352W        W35161   7.107   4.495   0.589  0.0190 -0.0646 -0.1539
19353W        W35162  19.013   3.764  13.399  0.1994 -0.0535 -0.0073
19354W        W35163   4.964   0.693   3.761  0.6245 -0.1122  0.0348
19355W        W35164   0.874  18.726   0.783 -0.1004  0.0869 -0.2377
19356W        W35165   6.779   3.753   1.762 -0.2298  0.1124 -0.0170
19357W        W35166  11.457  10.875   3.414  0.3963 -0.2895 -0.2671
19358W        W35167   1.779   6.298  13.283 -0.2159 -0.0703 -0.1354
19359W        W35168   9.638   2.060  13.506 -0.1069 -0.3491 -0.0440
19360W        W35169  13.496   8.306  14.063  0.2811  0.2877  0.1339
19361W        W35170  10.476  10.003  15.179  0.2173  0.1143  0.0746
19362W        W35171  14.357   4.241   1.418 -0.0706  0.2577 -0.5197
19363W        W35172   6.716   5.058  10.123 -0.1041 -0.0972  0.1257
19364W        W35173   3.330   3.032   1.688  0.0745 -0.1323  0.0544
19365W        W35174   0.062   5.243  14.486  0.2523 -0.0688 -0.0841
19366W        W35175   3.398  15.798   3.340 -0.1044  0.0979 -0.1418
19367W        W35176  17.560   8.735  10.108 -0.0297  0.0713 -0.4471
19368W        W35177  11.642  15.057  11.242 -0.2683 -0.2859 -0.2255
19369W        W35178   7.150   8.380   2.946  0.0822  0.2139 -0.1885
19370W        W35179   7.551  15.360   2.289  0.1514 -0.1522 -0.3040
19371W        W35180  13.647   6.751  14.906  0.1484  0.0185  0.0477
19372W        W35181  13.131  16.460   2.331 -0.0820  0.4814  0.1880
19373W        W35182  18.563   4.564   3.466  0.1857  0.1375  0.0924
19374W        W35183   1.061  15.454   2.742  0.0686 -0.0111  0.5137
19375W        W35184  17.770  10.333   1.079 -0.1538 -0.2075 -0.1665
19376W        W35185  16.762   2.746   3.877  0.3097 -0.0434  0.0393
19377W        W35186  13.451  13.658   6.051 -0.0341 -0.2099 -0.2751
19378W        W35187  15.066   9.081   3.325  0.1627 -0.2075 -0.1838
19379W        W35188   1.452  12.158  13.251 -0.0127  0.0874  0.1702
19380W        W35189  12.348  14.463  12.573 -0.1488 -0.0288 -0.2112
19381W        W35190   7.950  15.514   2.666 -0.0827 -0.0443  0.0958
19382W        W35191   1.861   8.949  12.111 -0.0681 -0.1389  0.1680
19383W        W35192  18.552  10.744   5.082 -0.0848 -0.2905 -0.1032
19384W        W35193   7.345   6.806   2.053 -0.1265  0.2211 -0.0180
19385W        W35194   5.536   6.103   4.204  0.1403  0.0410 -0.1656
19386W        W35195   6.183   2.863   0.998 -0.1693 -0.1715  0.0149
19387W        W35196  13.267  13.241  11.044  0.2955 -0.0729 -0.0355
19388W        W35197   1.128  15.531  12.657 -0.1806 -0.2724 -0.1520
19389W        W35198   6.375   4.547   2.448  0.0097 -0.1219 -0.0036
19390W        W35199   6.459   3.351   1.723 -0.1679 -0.3285  0.1334
19391W        W35200  18.474  17.073  11.407  0.3883 -0.0098  0.4463
19392W        W35201   5.345   7.562   0.246 -0.2251 -0.0497 -0.2138
19393W        W35202   7.911   1.208  12.643 -0.4645  0.3060  0.0555
19394W        W35203   6.400   5.145  14.739 -0.0094 -0.3065  0.0450
19395W        W35204   7.067  12.859  11.001 -0.1929 -0.1103  0.1585
19396W        W35205   5.297  17.882   9.788  0.0855 -0.2649 -0.2021
19397W        W35206  10.207   4.853  12.300  0.0009 -0.0607 -0.4523
19398W        W35207  18.439   9.100   1.450 -0.0649 -0.0735  0.3367
19399W        W35208   8.451   0.627   0.655  0.0930  0.3554  0.0963
19400W        W35209   7.309  18.274   4.575  0.0920 -0.1303  0.1163
19401W        W35210  18.043   5.597   0.116 -0.0425  0.0610 -0.2158
19402W        W35211  18.489   1.327   1.883 -0.2154 -0.2441  0.1527
19403W        W35212  19.122   7.463  14.899  0.1664 -0.0921  0.1446
19404W        W35213   5.791  17.099  10.803  0.2687 -0.2376  0.1035
19405W        W35214  16.984  15.074  11.854  0.1495 -0.1040 -0.0138
19406W        W35215   1.062  10.279  14.440 -0.1593 -0.0684 -0.0672
19407W        W35216   7.469  11.232  13.938 -0.1860  0.0413 -0.3325
19408W        W35217   9.596  12.698   4.556  0.1017 -0.2613  0.0324
19409W        W35218  15.999   7.659  11.536 -0.1908  0.2105  0.0572
19410W        W35219   0.324  11.592   2.782  0.0102 -0.4762 -0.1062
19411W        W35220   6.814   8.060   3.623 -0.0912 -0.0108  0.1029
19412W        W35221   0.825   9.743   5.373  0.0599 -0.2324 -0.1720
19413W        W35222   7.432  11.901  13.309 -0.0459 -0.1242 -0.1627
19414W        W35223  13.126  11.583   0.366  0.1243  0.2707  0.2257
19415W        W35224  18.597   5.829  14.537 -0.0061 -0.3138 -0.0873
19416W        W35225   5.109   6.294  11.051  0.0191  0.1991 -0.1423
19417W        W35226  12.037  17.703  12.508  0.2766  0.4174 -0.2273
19418W        W35227   6.171  16.623  14.004  0.0983 -0.1239  0.2720
19419W        W35228  16.712  17.573  14.588  0.0364 -0.3229  0.0789
19420W        W35229   1.863  11.709  12.115 -0.2748  0.1089 -0.2539
19421W        W35230  14.551   2.786  13.771  0.0996  0.4161  0.0934
19422W        W35231   4.497  17.550  10.773 -0.1486  0.3518 -0.0463
19423W        W35232   0.992   8.290  14.062 -0.0574  0.1462  0.1933
19424W        W35233  16.252   6.021   0.716  0.2214 -0.2526  0.1045
19425W        W35234   4.589   1.605  13.185  0.2857  0.2387  0.0653
19426W        W35235   1.206   9.647  11.002 -0.0472  0.1641 -0.1530
19427W        W35236   3.293  13.191  10.074 -0.0524  0.3252  0.0285
19428W        W35237   7.366  14.007  14.235 -0.2551 -0.1182  0.0334
19429W        W35238  11.195  18.369   4.765 -0.1521 -0.2419 -0.3066
19430W        W35239   2.693  18.327  14.025  0.0956  0.0045 -0.0252
19431W        W35240  16.856   2.477   9.609 -0.2866 -0.3731 -0.1089
19432W        W35241   6.798   9.323   4.467  0.1624 -0.0702  0.0348
19433W        W35242   5.319  18.246   2.745  0.0486 -0.3189  0.2361
19434W        W35243  14.681   8.332   4.481  0.0442  0.1030 -0.2377
19435W        W35244  16.427  13.584   5.161 -0.0984  0.3166 -0.2298
19436W        W35245  19.012   3.329  12.400  0.0414 -0.1712 -0.1823
19437W        W35246  18.763  14.832   1.497  0.0057 -0.1641  0.0573
19438W        W35247   6.873  17.442  11.464  0.1475  0.0773  0.2533
19439W        W35248  12.724   6.806  14.403  0.0344  0.1594 -0.0951
19440W        W35249  11.992   2.273  14.092 -0.0334  0.2688  0.0397
19441W        W35250  12.670  13.635   3.441  0.3533 -0.0321  0.0488
19442W        W35251  14.066  18.482  14.449  0.0899  0.2209  0.1095
19443W        W35252   9.457   1.761   5.592 -0.2808 -0.1167  0.0898
19444W        W35253   8.880   5.108   0.902  0.0591  0.0918  0.2274
19445W        W35254   1.558  16.450  12.992  0.1769  0.4188 -0.1714
19446W        W35255  16.786  11.998   2.987  0.2994 -0.1013  0.1002
19447W        W35256   1.448  13.045   0.462 -0.1324  0.0355  0.1442
19448W        W35257   1.668   8.830   0.682  0.1058 -0.1025  0.2243
19449W        W35258  14.594  18.397  10.712 -0.0275 -0.0080 -0.1573
19450W        W35259   5.292   4.591   4.261  0.2279  0.3720 -0.1122
19451W        W35260  10.126  14.938   4.588  0.3026 -0.5885 -0.1094
19452W        W35261  10.516   1.849   2.790  0.1120  0.3185 -0.0119
19453W        W35262  18.833  11.950   1.456  0.1159 -0.1892 -0.0828
19454W        W35263  15.060  13.592   1.349  0.1270 -0.1034 -0.1582
19455W        W35264  18.640   4.450   2.964 -0.4801  0.1864 -0.1242
19456W        W35265   1.257   6.486   1.562 -0.2691 -0.1251 -0.1797
19457W        W35266   2.165   9.319   1.466 -0.2316 -0.0021 -0.0020
19458W        W35267  13.280  12.151   4.587 -0.2477  0.0337 -0.2070
19459W        W35268  18.693  10.980   3.689  0.0628  0.0708 -0.0146
19460W        W35269   7.941   7.407  11.833  0.2799 -0.1279 -0.0625
19461W        W35270  19.144  14.086  10.764 -0.2599 -0.0369  0.1631
19462W        W35271   8.394  16.910  11.649 -0.0654 -0.1860  0.1020
19463W        W35272   1.477   1.164   5.808  0.0007 -0.2995 -0.0472
19464W        W35273  10.098   9.717   5.014 -0.0939  0.0075 -0.0411
19465W        W35274  14.184   9.672   1.704  0.1387 -0.6507  0.0758
19466W        W35275  18.209   4.175  14.605  0.0254 -0.0953  0.2204
19467W        W35276   8.332  11.281   2.368 -0.0757  0.2577 -0.1725
19468W        W35277   2.473  18.622   0.528  0.0610 -0.2559 -0.0003
19469W        W35278  13.526  14.588   0.302  0.0162  0.2269  0.2298
19470W        W35279   7.175  15.711  15.166  0.0803 -0.0371  0.0499
19471W        W35280  11.786   8.280   1.084  0.2528  0.1163 -0.0804
19472W        W35281  15.193   8.832   1.952  0.1290  0.1926  0.0958
19473W        W35282   3.669  11.779  14.946  0.0187 -0.3234  0.0826
19474W        W35283   6.582   0.582  13.992 -0.0340 -0.0773  0.1774
19475W        W35284   8.928  12.865   2.216 -0.0065 -0.2112 -0.0572
19476W        W35285   5.347   4.109   5.141 -0.2423  0.3143  0.0194
19477W        W35286  11.832  10.373  11.370  0.0805  0.3133  0.2134
19478W        W35287   9.625  17.728  13.436  0.3200 -0.0998 -0.1073
19479W        W35288  14.724  11.844   4.251  0.1714 -0.0256 -0.1945
19480W        W35289  17.817   7.006   2.297 -0.2929  0.1807 -0.0846
19481W        W35290  14.153   6.409   0.602  0.1618  0.1471  0.0569
19482W        W35291   4.325  17.876   4.408  0.0355  0.2025 -0.2541
19483W        W35292  13.225   3.164   4.495 -0.0049 -0.0645  0.0721
19484W        W35293  10.175   8.883   2.960 -0.1375 -0.1180  0.2563
19485W        W35294  15.997   6.182   5.588  0.0066 -0.1465  0.4971
19486W        W35295  11.665  18.186  11.256 -0.1105  0.1075  0.3047
19487W        W35296  17.942   3.047   4.502 -0.0504  0.0439 -0.1078
19488W        W35297  14.165  10.651   3.386 -0.0592 -0.2421  0.0648
19489W        W35298  10.499   4.824  11.857 -0.2547  0.1791 -0.0816
19490W        W35299  11.976   5.737   0.987 -0.1043 -0.1861  0.1111
19491W        W35300  16.163  13.437   2.347 -0.0532  0.1075  0.1720
19492W        W35301  17.713   7.656   4.444 -0.1638  0.0385 -0.0056
19493W        W35302  18.201   5.925  14.147 -0.0595  0.2578 -0.1440
19494W        W35303   0.234  15.560  10.122 -0.2958  0.0674 -0.2521
19495W        W35304  13.526  10.787   0.536  0.1049 -0.0466  0.0024
19496W        W35305   5.884   3.838  13.156  0.1252 -0.2093 -0.2105
19497W        W35306   9.771   9.439  13.038  0.0524  0.1757  0.0560
19498W        W35307  12.030  16.839  10.544 -0.0359  0.2465  0.2934
19499W        W35308   8.767   0.922   1.500  0.1488  0.3719 -0.3536
19500W        W35309   8.509  17.502   2.175  0.1406  0.2239 -0.0490
19501W        W35310   0.656  16.210   0.375  0.0419  0.2756 -0.2891
19502W        W35311   6.318   0.425   4.861 -0.0388  0.1259 -0.1363
19503W        W35312   7.091   5.788   2.056  0.2336  0.2110  0.0163
19504W        W35313  11.554  17.920  13.334  0.2773 -0.3628  0.0107
19505W        W35314  10.068   3.512  14.589 -0.3623  0.3778  0.0009
19506W        W35315   1.579   1.362   3.544  0.0767 -0.2433  0.0138
19507W        W35316  15.591   7.487   2.251  0.2262  0.2442 -0.0684
19508W        W35317   4.500  10.494   4.357  0.0930 -0.1603  0.0322
19509W        W35318   9.373  18.805   5.108  0.4919 -0.0160 -0.0476
19510W        W35319   9.993  13.828  11.076  0.2189 -0.0944 -0.0031
19511W        W35320  10.357  12.888   3.474  0.1486 -0.0496  0.3068
19512W        W35321  18.717   9.554   1.411 -0.2195  0.1331  0.1071
19513W        W35322  16.013   9.358   3.433 -0.2304  0.3984 -0.0001
19514W        W35323   7.481  16.637  14.730 -0.1970 -0.1097  0.1699
19515W        W35324   2.512  18.140  11.004 -0.0106  0.2710 -0.1349
19516W        W35325  12.733  15.699  12.311 -0.1424 -0.0712 -0.4112
19517W        W35326   4.551  17.208  11.317 -0.3020 -0.0829  0.0001
19518W        W35327  16.094   9.867   0.600  0.0074 -0.3796 -0.0210
19519W        W35328  15.171   8.136  11.945  0.2379 -0.1918  0.2929
19520W        W35329  17.124   0.554   2.916 -0.0142 -0.0540  0.0562
19521W        W35330  12.878   7.129   1.934  0.0087  0.2833  0.1046
19522W        W35331   9.434  17.586  14.795 -0.0808 -0.1802  0.0540
19523W        W35332   6.300   3.259  10.817 -0.0004 -0.1149 -0.1280
19524W        W35333   7.266  14.600  13.675 -0.0123  0.1172 -0.2442
19525W        W35334  17.470  13.504   2.690 -0.0496 -0.2261  0.0903
19526W        W35335   0.139   4.720  14.329 -0.2701  0.1409 -0.3532
19527W        W35336   8.962  14.699   4.089 -0.1352 -0.0078  0.2346
19528W        W35337   9.804  18.107   4.742  0.1012 -0.0945 -0.3262
19529W        W35338   5.779   5.643  13.019  0.1308 -0.0741  0.1069
19530W        W35339   2.504  17.620  14.589 -0.3794  0.4003 -0.0994
19531W        W35340   8.616  18.202   1.544 -0.2345  0.0651 -0.0985
19532W        W35341   4.945  18.477  10.386  0.0912  0.2930  0.2054
19533W        W35342  15.031   8.257   1.552  0.2209 -0.0891  0.0397
19534W        W35343   1.553   6.289   2.502  0.1084  0.1920 -0.2153
19535W        W35344   2.222  18.345  13.758 -0.1408  0.0680 -0.0774
19536W        W35345   6.271  15.653  11.197  0.0159 -0.2839  0.1437
19537W        W35346   6.842   3.439   1.421  0.2261  0.0694  0.0987
19538W        W35347  12.237   9.762   5.610  0.1341  0.0267 -0.3858
19539W        W35348   8.632   2.900  10.477  0.0761 -0.6415 -0.2822
19540W        W35349  10.968  13.273  12.893  0.2992  0.3432  0.2015
19541W        W35350  13.997   4.903  13.953  0.1212  0.1432 -0.0285
19542W        W35351   1.417   5.713   0.384 -0.0630 -0.1472 -0.2513
19543W        W35352  16.838   9.667  14.073  0.0030 -0.2444 -0.0846
19544W        W35353  12.212  10.127   3.397 -0.0513 -0.3904 -0.1885
19545W        W35354   0.506   4.300  11.035  0.0730 -0.2239 -0.1112
19546W        W35355   6.607  13.250   2.110 -0.1295  0.0124 -0.1384
19547W        W35356  13.679   9.358   3.544 -0.0154 -0.0021 -0.0179
19548W        W35357   7.218  11.678  15.168  0.2397 -0.4216 -0.1943
19549W        W35358  11.055   9.572   0.497  0.1937  0.3119 -0.3172
19550W        W35359  16.977  11.437  10.436  0.2501  0.1120  0.0116
19551W        W35360  15.518  15.008   1.251 -0.2594  0.2267 -0.0977
19552W        W35361  15.315   7.565   4.701 -0.2389 -0.0011 -0.1260
19553W        W35362  13.990  14.879   4.463 -0.3989 -0.1016  0.0118
19554W        W35363  12.397   4.842  11.848  0.5016 -0.2077  0.0822
19555W        W35364  10.560   2.365  12.249  0.2085 -0.0280  0.0012
19556W        W35365   1.070  11.015  12.802 -0.0670 -0.1487  0.1337
19557W        W35366  19.053  10.250  10.673 -0.2243 -0.3023  0.1209
19558W        W35367   6.425  13.570   2.523 -0.0630  0.0326  0.2510
19559W        W35368  10.463  13.082  15.103 -0.0754 -0.0560  0.0043
19560W        W35369  10.272   8.342   3.369 -0.0575  0.0141  0.2467
19561W        W35370  16.514  10.341   0.565 -0.0252  0.2033 -0.1164
19562W        W35371  12.092  11.765  11.966  0.0661  0.1956  0.1420
19563W        W35372   2.716  14.254   9.050  0.2505  0.0454 -0.3947
19564W        W35373  18.741  18.246   2.562 -0.3647 -0.0431  0.0631
19565W        W35374   2.698   6.194  13.190 -0.1064 -0.0252  0.2686
19566W        W35375   3.187   7.115  10.769  0.0222 -0.3048 -0.0727
19567W        W35376  11.304   9.048  13.509  0.0756  0.1703 -0.2354
19568W        W35377  10.663   6.496   3.374  0.0919  0.0654 -0.1728
19569W        W35378  12.822  15.359  11.932 -0.0099 -0.2025 -0.0701
19570W        W35379  18.400   3.777  14.825 -0.1455 -0.2456  0.1158
19571W        W35380  11.650   0.075   3.448  0.0851  0.1507  0.2370
19572W        W35381   4.555   4.575   3.959  0.1416  0.0209 -0.1746
19573W        W35382  16.424  11.393  14.652 -0.1004 -0.1292 -0.1802
19574W        W35383  15.560   8.904  10.671 -0.1299 -0.2327  0.0133
19575W        W35384   9.477  16.238  12.000 -0.2721 -0.2978 -0.0942
19576W        W35385  12.718  16.460   1.418  0.1843  0.2389 -0.0846
19577W        W35386   3.975   2.903   2.300 -0.0458 -0.3434  0.0376
19578W        W35387  16.071   1.010   1.010  0.1731 -0.0078  0.0323
19579W        W35388   8.480   1.687  12.204  0.1132  0.3514 -0.3974
19580W        W35389  15.965   8.324   1.015  0.1389 -0.3067 -0.0499
19581W        W35390  18.730   7.717   2.158  0.0556 -0.1447  0.0490
19582W        W35391   4.093  11.858  13.925 -0.0629  0.2838  0.2753
19583W        W35392   7.739  12.507   4.058  0.1835  0.1187 -0.2940
19584W        W35393  14.716  12.309  11.010  0.4291 -0.1778 -0.0115
19585W        W35394  15.033  13.219  12.372 -0.1043 -0.1515  0.0955
19586W        W35395   0.640   7.559   4.776  0.0606 -0.0339 -0.2892
19587W        W35396  15.714   5.019  13.398  0.1332 -0.1672  0.0845
19588W        W35397  17.087  15.484   1.969 -0.0758  0.2943  0.1113
19589W        W35398   1.678   6.495  13.910 -0.1859 -0.1946  0.3014
19590W        W35399   3.116   0.075   3.794  0.0102 -0.1685  0.1168
19591W        W35400   3.345   8.091   4.305 -0.2351  0.1270 -0.2316
19592W        W35401   2.020  12.364  14.695 -0.1982  0.0727  0.2792
19593W        W35402  16.220   7.391   0.883 -0.1650  0.1004  0.3053
19594W        W35403   9.092   1.926  12.692  0.0155  0.1897  0.0515
19595W        W35404   3.241   4.136  13.845 -0.0715 -0.1188 -0.2172
19596W        W35405  10.180  18.158   2.811 -0.1380  0.1006  0.3406
19597W        W35406   1.610  11.109  14.457 -0.3071  0.3674 -0.0634
19598W        W35407   7.738   2.633   0.347  0.1166 -0.1556 -0.1866
19599W        W35408   7.002  13.867  11.184 -0.0878 -0.2087  0.2052
19600W        W35409   8.391   0.252   4.983  0.0069 -0.2896  0.1452
19601W        W35410   9.310  15.012  14.297  0.3535 -0.1664  0.0911
19602W        W35411  12.947  17.205  11.570  0.1584 -0.1177  0.2619
19603W        W35412  14.676   5.663  14.538 -0.0097 -0.2104  0.1808
19604W        W35413  18.508   0.520   3.705 -0.0206 -0.1436  0.2375
19605W        W35414   2.055  15.393  12.772 -0.0651 -0.2267 -0.2695
19606W        W35415   7.967   9.602  12.517  0.0986 -0.0161  0.1653
19607W        W35416  15.327   1.569  12.098 -0.1453  0.0344  0.0659
19608W        W35417  17.888   9.531   2.470  0.0752  0.1560  0.4064
19609W        W35418   8.315   0.949   1.747 -0.0380 -0.1633 -0.1510
19610W        W35419   9.399  15.196   2.906 -0.1298 -0.0254 -0.0615
19611W        W35420  11.867   0.415   4.194  0.0414 -0.2166 -0.4583
19612W        W35421  11.476   7.923   4.279 -0.2614  0.2299 -0.3377
19613W        W35422  18.899  16.846   0.066 -0.2609 -0.0510 -0.1244
19614W        W35423   2.463  11.037   5.367  0.0469 -0.1607 -0.1215
19615W        W35424   4.703  17.287   0.121  0.0466  0.1207  0.1997
19616W        W35425  18.299  15.973   1.478 -0.0651 -0.0927  0.1211
19617W        W35426  16.869   1.063  13.653  0.1854 -0.1605 -0.0347
19618W        W35427  19.055   2.563   1.865 -0.1557 -0.3043  0.2147
19619W        W35428   3.620   9.430  11.198  0.0063  0.0834 -0.1616
19620W        W35429   4.727   3.002   4.913 -0.3798 -0.0887  0.2839
19621W        W35430   9.221  10.861  14.386 -0.1143  0.0691  0.1333
19622W        W35431   9.515   8.017   1.454 -0.1662 -0.1559  0.0613
19623W        W35432   6.195   6.332  12.410  0.1559 -0.2312  0.3017
19624W        W35433  14.703   6.871   5.535  0.2366 -0.3038 -0.0363
19625W        W35434  16.675  16.428   0.137  0.2066  0.2855  0.2025
19626W        W35435   2.299   2.321   0.176 -0.2437 -0.3774  0.0085
19627W        W35436   0.976  14.133  14.553 -0.3117  0.3315  0.1220
19628W        W35437  17.274   5.259   2.431 -0.0046  0.0904  0.1498
19629W        W35438   0.511  14.801   0.473  0.1226  0.2964 -0.3197
19630W        W35439  15.124   0.664   2.989  0.1290  0.0218  0.0565
19631W        W35440   6.809   0.103  14.038 -0.1893  0.3657  0.0806
19632W        W35441   1.046   9.692   3.178  0.1484 -0.0952  0.1546
19633W        W35442   9.583   7.466  14.665 -0.2623 -0.0503  0.0377
19634W        W35443   2.946   2.967  11.070  0.0603 -0.2350  0.1311
19635W        W35444   8.316  11.301  12.402  0.2517 -0.2135  0.0616
19636W        W35445  17.906   3.539  12.483 -0.3952  0.0340 -0.0895
19637W        W35446   0.185   9.889   2.749 -0.1183 -0.2503  0.3442
19638W        W35447   0.021   6.630  15.123  0.1067 -0.0187 -0.1434
19639W        W35448   0.749   5.202  15.053 -0.1667 -0.0377 -0.0490
19640W        W35449  18.458   4.515   3.947  0.2063 -0.1856  0.0108
19641W        W35450   3.443  12.893  11.436  0.0941 -0.2875  0.0113
19642W        W35451   9.828   9.542   4.414  0.0390 -0.0815 -0.0935
19643W        W35452  15.075   9.410   1.944  0.0336  0.1567 -0.1364
19644W        W35453   2.998  18.359   3.988 -0.1855  0.3205  0.0976
19645W        W35454   6.971   1.042  12.187 -0.2660 -0.1084 -0.0979
19646W        W35455   1.162   1.128   1.871  0.0838 -0.1024 -0.2206
19647W        W35456   8.563  12.904  11.623  0.0337  0.1077  0.1950
19648W        W35457   2.784  15.580   2.649 -0.0289  0.2390 -0.0246
19649W        W35458  13.612  10.874   5.175  0.0185  0.0061  0.0224
19650W        W35459  14.464   7.282   5.526  0.1913 -0.1397  0.0129
19651W        W35460   1.388  11.804   1.835 -0.2559  0.1334 -0.1417
19652W        W35461  17.184   1.580  12.362 -0.4235  0.2445 -0.0837
19653W        W35462   2.632  11.832   5.164 -0.2666  0.1213 -0.0297
19654W        W35463  12.762  10.257   4.464 -0.1755  0.0723 -0.1495
19655W        W35464  17.401   6.148   4.382 -0.1625 -0.1366 -0.3576
19656W        W35465   9.554  11.681   1.729 -0.0429  0.2923  0.4435
19657W        W35466  16.041  13.448   6.582  0.0459  0.1196 -0.4221
19658W        W35467   6.289   7.669  11.308  0.3008  0.0591  0.1419
19659W        W35468  11.090   5.235  12.511  0.2067  0.0134 -0.3007
19660W        W35469  10.157  13.685   4.442 -0.2700 -0.1622  0.1340
19661W        W35470   6.818  11.895  12.457 -0.0713  0.0284 -0.0008
19662W        W35471   7.091  17.756  13.413  0.0054  0.2013  0.2609
19663W        W35472  11.442   6.185  12.468  0.0431 -0.1884 -0.0090
19664W        W35473   2.900  11.053   2.214  0.0465 -0.2289 -0.0524
19665W        W35474   4.195   8.025   1.594  0.3387 -0.0738  0.0393
19666W        W35475   8.412  11.827  13.873 -0.0314 -0.2805  0.0398
19667W        W35476   4.971  11.919   3.343 -0.1097  0.0910 -0.0080
19668W        W35477  13.804   9.914  10.795 -0.0403  0.3645 -0.0235
19669W        W35478  12.977   6.962   0.055  0.1277 -0.0678 -0.3516
19670W        W35479   2.058  11.858  14.586  0.0266  0.2253  0.0003
19671W        W35480  10.984   3.301   4.149 -0.1795  0.0900  0.1539
19672W        W35481   5.295  10.922   1.210 -0.1899 -0.3924 -0.4165
19673W        W35482  11.643  13.559   1.773 -0.0319  0.0354 -0.0289
19674W        W35483  16.333  12.366   4.904  0.1582  0.1251 -0.0801
19675W        W35484  16.064   9.528  13.562 -0.1485 -0.2774 -0.3392
19676W        W35485   5.070   3.029   2.872  0.0216 -0.3651  0.1565
19677W        W35486  17.040   1.017  11.369  0.2621 -0.2408  0.2372
19678W        W35487  17.024   4.513   4.134 -0.0871  0.0050 -0.2912
19679W        W35488   7.702  14.909   2.053 -0.1489 -0.1737 -0.3054
19680W        W35489   0.661  13.375   0.027 -0.1077 -0.0520  0.0844
19681W        W35490  14.854  12.802  13.352  0.0652  0.1930  0.1740
19682W        W35491  16.155  13.132   4.734  0.1327 -0.0751 -0.0359
19683W        W35492   1.267  19.052  11.558 -0.1000 -0.2413 -0.1419
19684W        W35493  14.857  15.237   3.496 -0.0465  0.0318  0.0116
19685W        W35494   5.855  12.283   0.971 -0.1259 -0.0832 -0.0481
19686W        W35495  18.680  11.266  10.571  0.1840 -0.1056  0.0726
19687W        W35496   8.893   1.140  14.665  0.0727  0.3512 -0.1897
19688W        W35497  10.297   1.980  14.926  0.2126 -0.2197  0.0267
19689W        W35498   3.033   8.034  14.991  0.0151  0.0534 -0.1454
19690W        W35499  15.467  12.856   5.768 -0.4868  0.1145  0.2206
19691W        W35500  12.589   6.527  13.604 -0.0707 -0.0435 -0.0630
19692W        W35501   5.274  12.192  13.459 -0.0530 -0.3479 -0.0288
19693W        W35502   4.167   4.750  14.911  0.2121 -0.0163 -0.2844
19694W        W35503  14.164   3.676  11.165 -0.0009 -0.2375  0.1274
19695W        W35504  16.836   0.367  12.060  0.3004  0.0908  0.3236
19696W        W35505   1.799   4.322   2.435  0.1618  0.1232  0.3268
19697W        W35506   4.708  15.678   2.731  0.4625  0.0804  0.0420
19698W        W35507  15.708  17.747   2.884  0.2355 -0.3070  0.1825
19699W        W35508   2.218  12.960   5.521 -0.0606 -0.2620 -0.0274
19700W        W35509   5.749  12.256   4.632 -0.2809  0.1892  0.0913
19701W        W35510  18.176   0.841   3.972 -0.2913 -0.0585 -0.0421
19702W        W35511   1.279  13.392  10.706 -0.3497 -0.0211  0.3169
19703W        W35512  11.878  19.106  12.164  0.1079 -0.1164  0.0790
19704W        W35513   3.965   5.174  14.654 -0.5573 -0.0226 -0.3623
19705W        W35514  17.610   5.682   2.388 -0.1999  0.0824 -0.3185
19706W        W35515  12.361  15.248   4.364 -0.3128 -0.1590 -0.1004
19707W        W35516  18.657  17.503  14.043 -0.1078 -0.0561  0.0663
19708W        W35517  12.217  14.441   0.263  0.0610 -0.1105 -0.0234
19709W        W35518  14.320  13.536   3.546 -0.2310  0.0934 -0.0823
19710W        W35519   6.860  18.394   1.285  0.1420  0.1626 -0.1142
19711W        W35520  10.147  15.424  14.899  0.1336  0.0115 -0.2368
19712W        W35521   5.079  14.816   0.431 -0.0511  0.1476  0.0049
19713W        W35522  11.093   9.158  12.744  0.3141 -0.2322  0.0772
19714W        W35523   0.595  15.979   3.725  0.2528 -0.4797  0.1021
19715W        W35524   7.452  14.480  10.236  0.0933 -0.1560  0.4070
19716W        W35525  17.628   5.184   4.032  0.0626 -0.1390  0.0249
19717W        W35526   6.233   3.579  13.960  0.0581 -0.1260 -0.3740
19718W        W35527   7.106   1.754   3.657 -0.0590  0.1194 -0.1326
19719W        W35528   2.837   2.041  12.977 -0.0026  0.3180 -0.0445
19720W        W35529   9.171   9.212  12.626 -0.1185  0.2035 -0.1115
19721W        W35530   6.849  11.563   4.047 -0.1082  0.2990  0.2732
19722W        W35531  16.011  17.023  14.343 -0.0032  0.1851  0.0079
19723W        W35532   5.036  11.395   2.027 -0.2022 -0.0639 -0.1604
19724W        W35533  13.164   9.224   1.671 -0.0735 -0.4231 -0.2452
19725W        W35534   8.881  11.932  11.325  0.0464 -0.1012 -0.2466
19726W        W35535  14.242  18.235  13.598  0.1533  0.1153  0.1440
19727W        W35536  10.027  16.419   1.901 -0.3220 -0.0073 -0.1729
19728W        W35537  16.899  13.684   4.460  0.0692  0.2334 -0.2966
19729W        W35538   7.100  15.682  11.611  0.0718 -0.0000 -0.2000
19730W        W35539   7.592  11.301  10.878  0.1738 -0.2514  0.3425
19731W        W35540  10.435  17.138  14.094 -0.1459 -0.0474  0.0218
19732W        W35541   8.292   9.896   4.298 -0.2531 -0.0546  0.0516
19733W        W35542   3.322   7.671   2.924 -0.0146 -0.0728 -0.1391
19734W        W35543   0.303   7.040   0.827  0.4111  0.3892 -0.0920
19735W        W35544  11.206  18.823   2.436  0.1378  0.0881  0.0850
19736W        W35545  14.828   6.984  12.038  0.0935 -0.2416 -0.1540
19737W        W35546   1.916   0.495  13.937  0.1397  0.4767  0.0271
19738W        W35547   8.429  13.583  12.942  0.2147  0.0044 -0.2914
19739W        W35548   5.813   6.831  13.055  0.1441 -0.0546 -0.0256
19740W        W35549   2.272   1.203   0.461  0.0532  0.2800 -0.1036
19741W        W35550   2.320   6.042   3.859 -0.2372  0.1562 -0.0244
19742W        W35551   9.553   8.777   4.968  0.0494  0.1320  0.6208
19743W        W35552  18.655   4.189   4.679 -0.0070  0.3899  0.2560
19744W        W35553   7.840  19.018  13.434  0.0308 -0.2242 -0.4627
19745W        W35554   4.392  15.785   4.219 -0.1192 -0.3565  0.1908
19746W        W35555   2.923  15.121   4.589 -0.3814  0.1944  0.0721
19747W        W35556   8.925  13.694  12.168  0.1936 -0.1243  0.1197
19748W        W35557  18.091   9.916   2.139  0.1071  0.0630 -0.1877
19749W        W35558   0.123   8.764   4.091 -0.0368  0.0846  0.0513
19750W        W35559   6.680  11.518  13.678  0.0836 -0.4420  0.3391
19751W        W35560   0.088   3.884   2.304 -0.1424  0.0052  0.2786
19752W        W35561   0.798   8.221  12.735 -0.1337  0.2289 -0.1108
19753W        W35562  14.957  11.839   5.799  0.0931 -0.0104  0.0516
19754W        W35563   4.216   5.561   3.675 -0.1118 -0.0201  0.1501
19755W        W35564   9.865   8.773   1.037 -0.0310  0.1668  0.1224
19756W        W35565   5.628  12.438   3.576  0.1069 -0.0169 -0.0365
19757W        W35566  16.284   4.275  13.086  0.2556  0.0868  0.1190
19758W        W35567  16.111   3.351   4.876  0.1208 -0.1049  0.1892
19759W        W35568  17.799   4.568  11.703 -0.0562  0.1837 -0.0351
19760W        W35569   6.874  11.070   0.094  0.1832 -0.1497  0.0618
19761W        W35570  16.777   4.187  13.872 -0.1998  0.1402 -0.6413
19762W        W35571  11.759   4.025  13.666 -0.3896 -0.3607 -0.1531
19763W        W35572  12.826   5.950   3.239  0.1786  0.3489 -0.2186
19764W        W35573   0.996   9.320  11.498  0.1698  0.0722 -0.1140
19765W        W35574  13.413  11.589   5.410  0.1641  0.2168 -0.0921
19766W        W35575   1.671   3.108  11.355 -0.1883 -0.0179  0.0090
19767W        W35576  16.056  14.008  14.236 -0.2216  0.0316  0.2861
19768W        W35577  15.642  18.757   3.226 -0.2919  0.0194  0.4230
19769W        W35578  16.717   7.957  13.111 -0.1771  0.0680 -0.0306
19770W        W35579   7.872  18.774  11.220 -0.0595 -0.0261 -0.0479
19771W        W35580   3.024  10.137   2.019  0.0050  0.2613 -0.1217
19772W        W35581  10.837  16.077   3.522  0.2751 -0.1626  0.1049
19773W        W35582   5.240  16.955   1.028 -0.2577  0.1801 -0.0218
19774W        W35583  17.022  12.244  14.631  0.2055 -0.2265  0.1873
19775W        W35584   2.868  17.581   3.848 -0.0319  0.2426  0.1619
19776W        W35585  11.249  13.180   1.545 -0.1788 -0.1206 -0.1177
19777W        W35586  16.776  16.705   3.757 -0.0709 -0.0428 -0.1627
19778W        W35587  16.949  14.653  14.449  0.0968  0.0427 -0.1986
19779W        W35588   0.633  16.595  14.102 -0.1303  0.0923 -0.0460
19780W        W35589   3.319   2.663   0.645  0.0861  0.0143  0.1097
19781W        W35590   1.920  17.187   1.766 -0.0637 -0.0035  0.2747
19782W        W35591  15.175   7.112   4.536  0.2131 -0.0476  0.0365
19783W        W35592  10.850  11.869   3.195 -0.0925 -0.1602  0.0873
19784W        W35593   0.587  14.423   1.650  0.2999 -0.0356  0.1608
19785W        W35594  10.052  16.342   4.567 -0.1380  0.1439  0.0058
19786W        W35595   1.237  14.830  14.534 -0.4531  0.1136 -0.2255
19787W        W35596   8.301   3.231  13.395 -0.0349  0.0602 -0.3581
19788W        W35597  12.587   8.167  12.938  0.0432  0.2440  0.2753
19789W        W35598   5.296  19.158  13.710  0.0171 -0.1335 -0.2063
19790W        W35599   0.999   8.718   1.965 -0.1586  0.0543 -0.1146
19791W        W35600   6.475   1.413   9.851 -0.0061  0.0564 -0.1746
19792W        W35601  12.465  11.668   3.306  0.0438  0.1930 -0.0033
19793W        W35602   1.931  11.489   1.655 -0.2380 -0.3525  0.1897
19794W        W35603  12.275  10.444  15.211  0.0569  0.2113 -0.0433
19795W        W35604   1.355  11.348  12.993  0.2119 -0.0243 -0.0531
19796W        W35605  17.793   5.605  14.421 -0.1109  0.0341 -0.1196
19797W        W35606   8.739   8.968  13.704 -0.0762 -0.0523  0.1069
19798W        W35607  12.368   7.814   9.908 -0.0286  0.0230 -0.2095
19799W        W35608  10.643  16.563  10.805  0.0631 -0.0425 -0.0810
19800W        W35609   2.572   6.734   4.921 -0.0842  0.3414 -0.0241
19801W        W35610  14.593   4.118  11.230 -0.2081  0.0945  0.0859
19802W        W35611  12.385   6.986   2.444 -0.0258 -0.0244  0.0677
19803W        W35612  15.609   7.825   3.643 -0.0300 -0.1893  0.1200
19804W        W35613  11.818   6.242  12.151 -0.0988 -0.3197 -0.1231
19805W        W35614  13.730   2.157   3.070 -0.0631  0.3171  0.2728
19806W        W35615  11.205   9.737   2.734 -0.2061  0.1255 -0.2039
19807W        W35616  10.712  16.926   5.163  0.1564  0.2533  0.0980
19808W        W35617   0.236  11.248  10.476  0.0974  0.0683  0.2054
19809W        W35618   8.268  17.391   4.386  0.3216  0.1614  0.0002
19810W        W35619  14.998   3.991  10.860  0.1904 -0.0509 -0.2088
19811W        W35620   3.613  11.184  11.974  0.1309  0.1991 -0.2671
19812W        W35621  11.574  11.805   1.882  0.0991  0.2826 -0.0683
19813W        W35622   5.817   2.711   3.367 -0.2617 -0.0419 -0.0587
19814W        W35623  17.920  12.218   1.754  0.0970  0.3542  0.1270
19815W        W35624  10.877   4.894  10.503 -0.1330  0.1635  0.2053
19816W        W35625  17.265   1.724  10.803 -0.0857 -0.3673 -0.0959
19817W        W35626  17.125   7.837  10.408 -0.1212 -0.0765 -0.5027
19818W        W35627  10.386   1.272   1.379 -0.0858 -0.0087 -0.0329
19819W        W35628  17.814   5.940   1.942  0.1469  0.1864 -0.0791
19820W        W35629  12.255   7.320  10.953 -0.1292 -0.0054  0.0697
19821W        W35630  17.959  15.766  12.129 -0.0647  0.3270  0.1486
19822W        W35631  16.297  17.273   4.685 -0.1078 -0.2990 -0.2477
19823W        W35632  14.574  10.776   3.162 -0.0173 -0.1447  0.2201
19824W        W35633   8.267  12.233  10.873  0.0649 -0.0466  0.1384
19825W        W35634  17.038  18.521   0.893  0.1181 -0.0811  0.2979
19826W        W35635   0.919  18.623   1.795 -0.1022 -0.1754  0.1118
19827W        W35636  11.550   7.768  12.672 -0.0723  0.0194  0.0461
19828W        W35637  15.829   7.339   3.517  0.1567  0.1756  0.0752
19829W        W35638  16.651   3.549   2.389  0.0233  0.1599  0.1283
19830W        W35639   5.164  12.352  12.966 -0.0161  0.2632  0.1547
19831W        W35640   7.046  12.396   1.911  0.5416 -0.0953 -0.1132
19832W        W35641  10.213   7.989   0.596 -0.2522 -0.1868  0.1080
19833W        W35642  17.960   6.728  13.609  0.3263 -0.0119  0.0538
19834W        W35643  12.216   4.642   3.574 -0.2504  0.0482  0.1876
19835W        W35644   4.664  15.920  12.661 -0.3537 -0.1122  0.0326
19836W        W35645   7.821   6.291   1.710  0.1117  0.1112  0.3668
19837W        W35646   4.083  19.063   4.896  0.3030 -0.2565  0.0696
19838W        W35647   0.143  16.425   4.525 -0.0946  0.1861  0.1334
19839W        W35648  13.260  12.988   0.968 -0.0307 -0.2147 -0.1384
19840W        W35649  17.502   6.311   0.503  0.2163 -0.1004 -0.1692
19841W        W35650  11.475   4.880   3.560  0.0999 -0.0523 -0.0514
19842W        W35651  10.247  10.149  11.094  0.1679 -0.0108  0.0002
19843W        W35652   0.490  10.571  13.062 -0.0232  0.5278  0.3538
19844W        W35653   2.139  12.902  10.744 -0.0269 -0.0281  0.2044
19845W        W35654  17.783   4.048  11.736  0.1242 -0.1512 -0.1912
19846W        W35655   3.164  18.195  11.914  0.3349  0.0897 -0.1298
19847W        W35656  15.431   2.144  13.646 -0.0138  0.0908  0.2318
19848W        W35657  11.637  13.612  14.441  0.2336  0.0220 -0.2508
19849W        W35658   9.498   8.829   1.660  0.2470  0.0070  0.5679
19850W        W35659  12.079  16.184  13.120  0.0044 -0.2317  0.0207
19851W        W35660   2.483  13.610  10.091 -0.0348 -0.2505 -0.0900
19852W        W35661   9.885   6.602   1.166 -0.1805 -0.4808 -0.1094
19853W        W35662   7.157   0.917   4.184 -0.1370  0.0331 -0.0539
19854W        W35663  12.260  13.816  13.290  0.0658  0.1141 -0.0437
19855W        W35664   8.751  12.176  13.842 -0.0857  0.0772 -0.3115
19856W        W35665   9.336   5.357   0.803  0.2265 -0.4153 -0.0836
19857W        W35666   3.469  14.441   2.365 -0.0211  0.3452 -0.0375
19858W        W35667   1.756  13.351  11.602  0.0523 -0.2505  0.1435
19859W        W35668  18.366   8.307  12.067  0.0476  0.1820 -0.2308
19860W        W35669  12.581   9.889  12.186  0.5022  0.1728  0.0350
19861W        W35670   9.287  11.740  12.841  0.2232 -0.1531  0.1067
19862W        W35671   7.028  17.369   4.522  0.2395 -0.2502 -0.1498
19863W        W35672  16.831  16.921   2.132  0.0935 -0.1609  0.0743
19864W        W35673  14.738  17.955   0.346 -0.2184  0.2180 -0.1090
19865W        W35674   7.897   6.756  11.736 -0.0218  0.1585  0.0718
19866W        W35675  13.142  10.838  12.812  0.1843 -0.0651  0.1152
19867W        W35676  13.886  15.911   2.326  0.0660 -0.0828 -0.0357
19868W        W35677  12.891   8.925  12.311 -0.0366  0.1333 -0.2153
19869W        W35678  12.206   2.654  10.693 -0.0052  0.1160 -0.2311
19870W        W35679  14.592  13.851  14.846  0.0963 -0.4208  0.1929
19871W        W35680  13.076  10.707  12.226 -0.1249  0.1457 -0.0106
19872W        W35681   4.018   8.733  15.138 -0.3539 -0.0338  0.0883
19873W        W35682  18.453   5.026  12.151  0.1433  0.2779  0.2897
19874W        W35683   8.742  11.128  11.846  0.0026  0.0247  0.4179
19875W        W35684   4.174   8.639   1.188  0.0967  0.2749 -0.0756
19876W        W35685   7.502   8.611  11.362 -0.1378 -0.1409 -0.2393
19877W        W35686   9.558  18.981  14.200  0.2463 -0.0307  0.1730
19878W        W35687  17.596  17.658   5.534 -0.0263 -0.0641 -0.1644
19879W        W35688   4.545  10.543  12.504  0.1381 -0.1461 -0.2540
19880W        W35689   1.818  10.155  12.266 -0.2206  0.1099  0.0468
19881W        W35690   4.729   7.017  14.313 -0.4570 -0.0899 -0.1118
19882W        W35691  12.395   6.731  14.012  0.0420 -0.0259 -0.1341
19883W        W35692   5.466  14.113   0.126  0.1012  0.0366  0.3068
19884W        W35693   8.675  10.204   2.197 -0.1682 -0.1863  0.0605
19885W        W35694   4.784   0.191   3.085 -0.3592  0.2119  0.0583
19886W        W35695  16.230   0.694   3.361 -0.0134 -0.2201  0.2965
19887W        W35696  10.420   4.481  14.336  0.0339  0.1597 -0.1930
19888W        W35697  18.524  15.337   2.274  0.0228  0.2022 -0.1453
19889W        W35698   6.937   6.603  12.945 -0.1829  0.0481  0.1883
19890W        W35699  13.343  16.742  10.826 -0.1411  0.2368  0.1395
19891W        W35700   7.063  16.958  14.465  0.2230  0.1564 -0.1083
19892W        W35701  14.331   6.224  11.326  0.3252 -0.0209 -0.3124
19893W        W35702   8.774   5.242   1.460 -0.2547 -0.1516  0.2965
19894W        W35703   9.300   7.243   2.443 -0.1126 -0.3658 -0.0502
19895W        W35704   4.814  18.636   3.997 -0.0990  0.0476  0.0503
19896W        W35705  14.938  18.711  13.374 -0.2764 -0.3296 -0.0724
19897W        W35706   2.726   7.231  13.496 -0.0292 -0.1212 -0.2225
19898W        W35707  10.215   6.148  11.642 -0.2543  0.0592 -0.0096
19899W        W35708   7.388  15.100  10.389 -0.1239 -0.1652  0.0560
19900W        W35709   0.534  11.002   0.581 -0.1260  0.0707 -0.1732
19901W        W35710   9.215   3.116   2.457  0.4958 -0.2503 -0.0814
19902W        W35711  14.614   2.670  12.678 -0.1920 -0.2540  0.0491
19903W        W35712  16.683   0.319   1.950  0.3101 -0.1392  0.2227
19904W        W35713   6.676   1.438  11.436  0.1278 -0.1653  0.1028
19905W        W35714  12.125   2.837   4.849  0.1747  0.1399 -0.2040
19906W        W35715  10.790  10.894   4.947  0.0770 -0.2939 -0.1336
19907W        W35716   5.255  18.493  14.223  0.6312 -0.1850  0.0378
19908W        W35717   5.062   6.146  11.596  0.0373  0.0827 -0.1514
19909W        W35718  16.954   7.030  12.142  0.3084  0.1978 -0.1882
19910W        W35719  16.751   4.080  14.388 -0.1572 -0.1606  0.1387
19911W        W35720   7.072  13.490   3.248  0.1937 -0.1862 -0.0576
19912W        W35721  16.886  16.687   1.498  0.1165 -0.6520  0.0764
19913W        W35722  14.885  15.018   4.600 -0.0113  0.2724 -0.0847
19914W        W35723  11.448  13.700   5.023  0.1042  0.0516  0.1393
19915W        W35724  18.980  15.883  10.938 -0.0124 -0.0073  0.0045
19916W        W35725  14.124  12.765  14.464 -0.0834 -0.0208 -0.1494
19917W        W35726   5.229   4.799  10.632 -0.0259 -0.1884 -0.1336
19918W        W35727   3.272  14.317  13.217 -0.0587  0.3270  0.1016
19919W        W35728  15.460  18.874  13.555  0.0231 -0.2077 -0.0425
19920W        W35729  12.213   1.284  10.850 -0.0479 -0.0729 -0.1965
19921W        W35730   2.027   4.897  11.203  0.2430 -0.0063  0.3641
19922W        W35731  11.633   2.659  14.127 -0.3531  0.2512 -0.1363
19923W        W35732  16.425  13.720  13.948 -0.0913 -0.1932  0.1853
19924W        W35733   8.333  17.670  11.269 -0.0002 -0.1399  0.1718
19925W        W35734   7.318  17.837  14.242 -0.0961  0.3064  0.1612
19926W        W35735   3.602   7.620   2.246 -0.1377  0.0215 -0.0620
19927W        W35736   6.444   1.759   1.223  0.1855 -0.1710  0.1280
19928W        W35737  10.982   0.692   0.094  0.2654 -0.1318  0.0741
19929W        W35738  17.709   2.382  10.541  0.1010  0.0748 -0.1131
19930W        W35739  16.660   7.827   3.564  0.3801  0.1247 -0.1428
19931W        W35740  12.212  12.933   4.800  0.2399 -0.0651  0.1614
19932W        W35741   6.843   4.201  12.863  0.4013  0.2048 -0.1952
19933W        W35742   0.169   2.040  13.579  0.1709  0.2324 -0.0699
19934W        W35743   2.562  15.037  11.975  0.0578 -0.1043  0.2353
19935W        W35744   1.516  10.523  11.807  0.0005  0.0359 -0.0262
19936W        W35745   2.807   0.522  10.048 -0.0741  0.3405  0.2996
19937W        W35746   4.591   8.902  15.172 -0.1383 -0.0393  0.0914
19938W        W35747   0.682  11.249  10.806 -0.0922 -0.0248  0.1760
19939W        W35748  10.250   6.606  14.903  0.0526 -0.0711 -0.1933
19940W        W35749   7.362  11.937   0.343  0.4483  0.0109  0.0941
19941W        W35750  17.112  13.477  11.341  0.0294  0.1754 -0.1054
19942W        W35751   2.915  14.510   2.526  0.0642 -0.0657  0.1104
19943W        W35752   9.643  12.211   4.460 -0.2828 -0.0235  0.2808
19944W        W35753  12.806   9.765  11.279  0.1234 -0.4043 -0.0023
19945W        W35754  15.234  15.508  12.997  0.1211  0.2671  0.0389
19946W        W35755  16.920   9.975   3.564  0.1957  0.2736  0.0209
19947W        W35756   5.270   4.033   1.881 -0.4046 -0.1367 -0.3239
19948W        W35757  17.099  16.481   5.003  0.1451  0.1151  0.0293
19949W        W35758  17.120   3.164  12.909  0.0218 -0.0240  0.2394
19950W        W35759   3.796  18.066   2.261 -0.1732 -0.4787 -0.1017
19951W        W35760   4.531   7.054   3.242  0.0741  0.0705 -0.1560
19952W        W35761   8.057  15.069  12.147  0.0295 -0.0523  0.2957
19953W        W35762  10.263   7.093  15.116  0.1418  0.2060  0.0658
19954W        W35763   0.260   1.178   3.363  0.1413 -0.1965  0.0697
19955W        W35764  16.907  12.645  14.878 -0.0001 -0.3484 -0.1961
19956W        W35765   4.881   9.993   5.030 -0.1845 -0.2394  0.2172
19957W        W35766  17.813  16.767   0.495 -0.0835  0.2839  0.1754
19958W        W35767   9.682   0.903   5.239  0.4041  0.1370 -0.1306
19959W        W35768   9.469   2.966  11.964 -0.0924  0.0599  0.2078
19960W        W35769  17.215   8.042  13.372 -0.1416 -0.2618  0.1228
19961W        W35770  11.324  11.380   1.037 -0.0998 -0.0539  0.2745
19962W        W35771   0.611   9.279   1.887  0.0204  0.1736 -0.0891
19963W        W35772  14.528   0.384   3.378 -0.1286 -0.2064  0.3055
19964W        W35773   2.690  13.117  10.816 -0.0170 -0.2769 -0.3742
19965W        W35774   0.642  13.771   5.692 -0.2535 -0.1235 -0.0777
19966W        W35775   2.841   4.308   0.842  0.0505 -0.1977 -0.0747
19967W        W35776  10.758  19.002   4.384 -0.3214  0.1955 -0.1673
19968W        W35777  13.189   3.061   0.549 -0.1328 -0.0039 -0.2943
19969W        W35778   0.006  12.743  14.513 -0.2987  0.0089 -0.0327
19970W        W35779  14.737  15.789   0.035 -0.0049 -0.1656  0.0711
19971W        W35780   5.002   9.634   5.544 -0.0729  0.0298 -0.4486
19972W        W35781   3.762  15.458   0.223  0.1345 -0.1417  0.0704
19973W        W35782   6.960   0.651  14.986 -0.3085  0.3992 -0.0510
19974W        W35783  16.067  18.075  10.961  0.4550 -0.2266  0.1115
19975W        W35784  16.283   3.492  14.980  0.0469 -0.0406  0.2224
19976W        W35785  12.910   0.203   4.860 -0.2189 -0.0893 -0.1378
19977W        W35786  19.091  11.748   9.938 -0.0998  0.5047 -0.0992
19978W        W35787  19.138   6.951   1.212 -0.0495 -0.2939  0.1070
19979W        W35788   0.509   7.335  13.420  0.0165  0.2211 -0.0203
19980W        W35789   8.648   6.492  13.097  0.0516  0.2059 -0.0246
19981W        W35790  14.089  14.640   3.748 -0.0548 -0.0916 -0.1336
19982W        W35791  13.934  12.290  13.848 -0.0983 -0.0616  0.2235
19983W        W35792   5.208  17.247  11.418 -0.0658  0.2854  0.3040
19984W        W35793  13.223   1.943   2.788  0.1424 -0.1553  0.0012
19985W        W35794  10.632   8.171   2.361  0.1228  0.2807 -0.0531
19986W        W35795   4.021  18.636   3.270 -0.0571  0.2656 -0.2205
19987W        W35796   8.687   9.356  11.256  0.3439  0.0763 -0.1441
19988W        W35797   9.363   6.787   1.904 -0.1737  0.1147  0.1234
19989W        W35798  12.406   5.743   3.558  0.3657  0.2828 -0.0853
19990W        W35799   7.435  14.464  14.157 -0.2518  0.0101  0.1840
19991W        W35800  14.667  13.359   2.240  0.0815 -0.2171 -0.0308
19992W        W35801   5.564  18.496  11.444 -0.0468 -0.0119  0.0760
19993W        W35802  18.373   4.443   5.028 -0.1108  0.0515  0.2053
19994W        W35803  16.410  16.327  11.210 -0.0492  0.0632  0.4097
19995W        W35804  10.927  17.761  12.999 -0.1000 -0.0046 -0.2519
19996W        W35805  12.143  12.336  11.398  0.1018 -0.2244  0.0311
19997W        W35806   8.191  12.303  14.244  0.4713 -0.1214  0.3001
19998W        W35807  15.582  19.021   1.654 -0.0918 -0.2490  0.1171
19999W        W35808  14.250  15.575  11.188  0.1872  0.3097 -0.3945
20000W        W35809  11.456  14.229  13.233  0.0362  0.1573 -0.1579
20001W        W35810  10.064   5.306   9.440 -0.1154 -0.1257  0.0247
20002W        W35811  12.748   9.404  13.950 -0.4522 -0.2030 -0.0832
20003W        W35812   4.012  14.990   2.427  0.0197  0.2372  0.1863
20004W        W35813   3.974  16.402   1.166 -0.1173 -0.1812  0.0492
20005W        W35814   9.819   5.094   4.682  0.2435  0.4322 -0.1896
20006W        W35815   8.439  16.399   0.009  0.1752 -0.0707  0.0887
20007W        W35816   8.822  11.523  10.978  0.1117  0.3176 -0.1780
20008W        W35817   4.324  11.681  10.109 -0.2364  0.0070  0.0453
20009W        W35818   7.693   6.993  12.686 -0.0086 -0.0972  0.0661
20010W        W35819  14.935  11.415  11.023 -0.3543 -0.1992 -0.3679
20011W        W35820  19.130   5.702  12.711 -0.3645  0.2818 -0.2993
20012W        W35821  19.155   9.169  15.192  0.3945  0.1421  0.2887
20013W        W35822   0.335   1.327   4.772  0.1638  0.0394  0.0214
20014W        W35823   8.881  12.796   1.672 -0.0235 -0.1885  0.3687
20015W        W35824  10.323   1.418   2.744 -0.1205  0.1657  0.1498
20016W        W35825  12.569   8.178   3.678  0.1585 -0.0408 -0.2580
20017W        W35826  17.047   8.826  11.492  0.3028 -0.0402 -0.0696
20018W        W35827  13.515  17.051   1.191 -0.0355 -0.1778 -0.0513
20019W        W35828  16.839   7.157  14.358  0.0627 -0.2852 -0.0382
20020W        W35829   2.946   7.559   4.268  0.0255 -0.0181  0.0696
20021W        W35830   4.255  12.891   2.017 -0.1226  0.1429  0.1590
20022W        W35831  12.035   1.840   3.838 -0.0368  0.0209  0.0681
20023W        W35832  17.037   1.918  13.882 -0.0391  0.0002 -0.0758
20024W        W35833  14.462  11.122  11.969  0.0409  0.1807  0.2786
20025W        W35834   8.856  17.154   3.008 -0.3092 -0.1339 -0.2958
20026W        W35835  11.666  10.649   5.271  0.1343 -0.1310  0.0462
20027W        W35836  17.411   4.828   5.411  0.1010 -0.1364  0.4330
20028W        W35837   1.372   4.412   4.326 -0.2495  0.0371  0.1164
20029W        W35838   7.618  18.082  12.108 -0.1658 -0.0333 -0.0386
20030W        W35839   9.739   9.988   1.650  0.0697 -0.4056 -0.1893
20031W        W35840   7.088   4.834  10.677  0.1114  0.3132 -0.0149
20032W        W35841  12.172  11.076   4.061 -0.2541 -0.3726  0.1185
20033W        W35842  11.140   3.601  10.581 -0.0764  0.2597 -0.3568
20034W        W35843  13.147  13.155   0.376 -0.3048  0.0162 -0.2259
20035W        W35844   5.534  15.580  11.003 -0.0725  0.2196  0.2328
20036W        W35845  15.341   2.379   0.966  0.0301  0.0549 -0.1861
20037W        W35846   8.912  13.596   0.622 -0.0808  0.1134  0.0572
20038W        W35847   5.069  17.123   3.692 -0.0796  0.0263  0.2387
20039W        W35848   3.467   4.689  15.134  0.5014 -0.0421  0.1444
20040W        W35849  15.766  12.151   5.070 -0.1024 -0.0578 -0.2077
20041W        W35850   7.817  16.501   0.000 -0.3155  0.0302 -0.0409
20042W        W35851   4.209   5.298  14.225 -0.1942  0.3216  0.3165
20043W        W35852   5.080  17.951  12.102 -0.0567  0.1320 -0.0300
20044W        W35853   2.316  16.042   0.008 -0.0865  0.1143  0.0960
20045W        W35854  14.427   3.986  13.585  0.3245 -0.0259 -0.3409
20046W        W35855   2.994  17.074   0.890  0.1133 -0.0507 -0.0467
20047W        W35856  11.644  15.686   4.737  0.1448  0.1663 -0.1179
20048W        W35857   4.635   1.405  12.730 -0.1814  0.0375  0.1004
20049W        W35858  13.358   2.473   2.885 -0.0718  0.1065  0.3014
20050W        W35859  17.584  12.736   4.467 -0.3102  0.0779 -0.2026
20051W        W35860   2.153  14.420   0.726 -0.2041 -0.2220  0.1302
20052W        W35861   1.959   4.457  14.165  0.2659  0.2758 -0.0698
20053W        W35862   5.066   9.124   0.105 -0.1312 -0.2489  0.1685
20054W        W35863   3.812  13.527   4.456  0.0384  0.1347  0.0538
20055W        W35864  11.122   8.069   2.329  0.2346 -0.1169  0.2337
20056W        W35865   5.749  15.583  11.806  0.1097  0.3339 -0.1575
20057W        W35866  10.041  11.222  11.127  0.2140  0.2821  0.0482
20058W        W35867   7.717  14.259   0.475 -0.1548  0.0885  0.0900
20059W        W35868  10.610   1.613   3.620  0.0007 -0.2454  0.1582
20060W        W35869   6.966   2.419   4.085 -0.2042 -0.1537  0.1609
20061W        W35870   4.720  18.887   1.787  0.1797  0.0213 -0.0280
20062W        W35871  15.459  17.642   4.942 -0.0097  0.1241  0.0353
20063W        W35872   6.655  16.162  14.461  0.1061  0.1718  0.0640
20064W        W35873   3.845   4.735  11.212  0.1351 -0.3010  0.1419
20065W        W35874  10.702  17.320  12.745  0.1264 -0.0939  0.0535
20066W        W35875   8.404   0.082   1.566  0.0015  0.0950 -0.0585
20067W        W35876  14.568  14.308  15.043  0.3237 -0.1589 -0.1092
20068W        W35877   8.360   2.296  12.207  0.2298  0.0599  0.0617
20069W        W35878   4.626   2.838  10.933  0.2131 -0.0103 -0.2048
20070W        W35879   7.132   8.868   2.028 -0.3614 -0.0352 -0.1193
20071W        W35880  11.371   9.428  13.087  0.1618 -0.1249 -0.2602
20072W        W35881  19.010   8.184  12.979  0.0496  0.0443 -0.0031
20073W        W35882  12.685   1.337  12.439 -0.0246  0.1155  0.5385
20074W        W35883  11.799   8.195  12.380  0.2522  0.1506  0.2698
20075W        W35884  18.208  18.889   3.664  0.0847 -0.1146 -0.2112
20076W        W35885   6.191   8.016   2.651 -0.0051 -0.0572  0.0429
20077W        W35886   0.575   8.104   2.769 -0.1544  0.0449  0.2266
20078W        W35887  17.360  14.540   1.899  0.1763  0.0924 -0.2471
20079W        W35888  14.209   3.110  14.016  0.2103  0.2606  0.0849
20080W        W35889  14.488   8.848   4.641 -0.1023 -0.0131 -0.1233
20081W        W35890   0.355  10.488  15.036  0.1544  0.2099 -0.0395
20082W        W35891   1.903  10.142   2.584 -0.4449  0.1639 -0.3206
20083W        W35892   1.574   2.295   1.006  0.1490  0.0400  0.2849
20084W        W35893   4.896  15.593   4.304  0.0894  0.3756  0.0240
20085W        W35894  17.357  10.068   0.970 -0.0597  0.1803 -0.0587
20086W        W35895  12.031  10.705   0.724 -0.0943  0.1154 -0.1188
20087W        W35896   2.152  11.843   0.721 -0.0782 -0.2213 -0.0238
20088W        W35897   3.063  17.241   4.223  0.0879  0.0153 -0.0529
20089W        W35898   8.612  13.481  14.104  0.0513  0.1465 -0.2748
20090W        W35899  13.496   6.870  12.027 -0.1962  0.1735  0.0402
20091W        W35900  17.311   1.259   1.438 -0.4270 -0.1665  0.1486
20092W        W35901   9.441  13.174  10.098  0.0215  0.2974 -0.1302
20093W        W35902  11.222  18.149  12.704  0.0725  0.0216  0.0663
20094W        W35903  18.683  14.002   1.554  0.2909 -0.2107 -0.0114
20095W        W35904  12.920  10.175  10.747 -0.4458 -0.0174  0.0958
20096W        W35905  10.729  16.423   0.127  0.1628 -0.4232  0.2095
20097W        W35906  16.263  10.326   3.250 -0.0337 -0.2966 -0.3123
20098W        W35907  17.886   7.975  12.146 -0.1179 -0.0727 -0.0451
20099W        W35908   4.745   8.937  14.706  0.4029 -0.1049 -0.0385
20100W        W35909  14.213  16.134  13.683 -0.1200 -0.3752 -0.0450
20101W        W35910  10.642   6.547   4.853  0.5191 -0.2505  0.0362
20102W        W35911   3.399  10.787   4.653 -0.0512 -0.2754  0.3023
20103W        W35912   4.976   5.013  13.096 -0.2657  0.1100 -0.1964
20104W        W35913   3.396  18.633  13.660 -0.1356 -0.2956 -0.1197
20105W        W35914  14.421   5.966  13.507 -0.2129  0.3155 -0.0777
20106W        W35915   1.605   1.703   1.849 -0.0452 -0.1140  0.2104
20107W        W35916  14.970   2.206   2.199  0.1181  0.2701  0.1419
20108W        W35917   6.182   4.631  14.917  0.1162  0.0699  0.3634
20109W        W35918  13.751   8.208  10.193 -0.0935 -0.1556 -0.0621
20110W        W35919   0.152  17.115   5.706 -0.2596 -0.0233 -0.2773
20111W        W35920   9.489   6.417   4.770 -0.1052 -0.3310  0.1246
20112W        W35921   2.494  18.006  11.518 -0.0639  0.0936 -0.3720
20113W        W35922  18.801  12.652  10.018  0.1821 -0.0952 -0.0278
20114W        W35923   4.449  17.604  11.596  0.3362  0.3805 -0.0407
20115W        W35924  12.061  19.118  11.107  0.0405  0.0014  0.0731
20116W        W35925   6.613   7.324  14.369 -0.0560 -0.3674  0.2229
20117W        W35926  11.550   4.545  12.827 -0.4894  0.1431 -0.0991
20118W        W35927  10.725  18.829   1.471  0.0605  0.0030 -0.1394
20119W        W35928  17.796  15.573  14.927 -0.0223 -0.1945 -0.1491
20120W        W35929   5.072   5.500  10.622  0.1772 -0.0395  0.1756
20121W        W35930  13.365  12.912   2.099 -0.0968 -0.1497 -0.1432
20122W        W35931   9.043  14.243  14.666  0.2174  0.3269 -0.1630
20123W        W35932   2.163   7.417  10.338  0.2798 -0.0468 -0.0686
20124W        W35933   4.837   5.258  13.812 -0.2835 -0.2719  0.2825
20125W        W35934  14.439  16.945  13.779 -0.3212  0.0086  0.0198
20126W        W35935   7.226   3.377  12.457  0.0279  0.1594 -0.1530
20127W        W35936  18.917  14.150  14.994 -0.0501 -0.0458  0.0255
20128W        W35937  11.036   4.055   1.344  0.0843  0.0721  0.1895
20129W        W35938   3.131   7.471   2.275  0.0224 -0.0423  0.3300
20130W        W35939  10.275   3.261   4.909 -0.1453  0.2924 -0.2305
20131W        W35940  11.350  10.052   4.577 -0.3111 -0.1274 -0.2178
20132W        W35941  17.275   0.334  14.904 -0.1053 -0.2234 -0.2372
20133W        W35942  14.593  18.964   3.316  0.0873  0.1635  0.0823
20134W        W35943  13.450   6.945  13.718  0.2054 -0.1089  0.2325
20135W        W35944  14.571  13.912  12.633 -0.1252 -0.0769 -0.2160
20136W        W35945   0.905  15.860   2.925 -0.0581 -0.3399  0.0672
20137W        W35946   0.780  12.204   3.515 -0.1908  0.1527 -0.0569
20138W        W35947   5.451   6.028   0.523  0.0095 -0.2270  0.0911
20139W        W35948  15.323  17.718  11.695 -0.0217  0.1377 -0.0456
20140W        W35949   6.544  17.461  12.809 -0.0890  0.0842  0.2853
20141W        W35950  10.610   5.088  11.368 -0.2636 -0.0921  0.2613
20142W        W35951  16.517   9.090  12.802  0.0415 -0.0718 -0.0034
20143W        W35952   2.122  12.256  11.593 -0.2143  0.1245  0.2927
20144W        W35953   0.767   8.894  14.962  0.1198 -0.0770  0.0665
20145W        W35954  17.114   1.762   3.710 -0.0630 -0.1756 -0.0621
20146W        W35955   2.767  10.912   9.966  0.1547 -0.0625 -0.0183
20147W        W35956   2.407  17.551   4.021 -0.0346 -0.3546  0.1624
20148W        W35957   4.248  17.803  13.527  0.0127  0.0739  0.1311
20149W        W35958   7.805  11.240  14.298 -0.2350 -0.2899 -0.0681
20150W        W35959  15.197  18.934   2.792 -0.1644 -0.1475 -0.2354
20151W        W35960   1.000   4.564  11.806 -0.0906  0.0593 -0.0549
20152W        W35961   8.571   2.952   2.385 -0.0773 -0.2623 -0.1786
20153W        W35962  12.931   1.214  11.938 -0.1054  0.2563 -0.5581
20154W        W35963  15.269  14.603  14.580  0.2432 -0.2114  0.0607
20155W        W35964   1.265   0.007   4.874 -0.2579 -0.1327  0.2438
20156W        W35965  16.862  10.102  13.622  0.1092  0.1085 -0.2140
20157W        W35966   1.813   9.717   1.600 -0.0950  0.3139 -0.2088
20158W        W35967  18.074  18.324  12.441  0.0636 -0.1626  0.0252
20159W        W35968  16.884  18.491   4.131 -0.2405  0.2025 -0.0929
20160W        W35969   4.512   7.749  14.971  0.0007  0.2129  0.0130
20161W        W35970   5.159   5.905  10.134  0.2324 -0.0107 -0.1489
20162W        W35971   5.026  18.466   3.419 -0.3983  0.1765 -0.0488
20163W        W35972   6.314  10.005  11.902  0.0761  0.3097  0.2383
20164W        W35973   9.392  18.960   4.325 -0.0894  0.6133 -0.0964
20165W        W35974  16.093   7.815   3.664 -0.0298 -0.1049 -0.2646
20166W        W35975   9.221   2.938  14.488 -0.0309  0.0582  0.3095
20167W        W35976  10.774  15.545  13.333  0.1761  0.0992  0.0131
20168W        W35977  14.014   6.098   1.162  0.0466  0.2126  0.1178
20169W        W35978  12.182  18.041  15.176  0.1720  0.2536  0.1125
20170W        W35979   7.734   2.264   0.731  0.1644 -0.2167 -0.1567
20171W        W35980  11.572  10.680   5.830 -0.1405 -0.0487 -0.1005
20172W        W35981  17.970  10.566  12.465 -0.1681  0.0672 -0.2690
20173W        W35982  11.328  13.843   1.453  0.0278 -0.1504 -0.3003
20174W        W35983   9.327  12.046  13.523  0.0486  0.1290 -0.0482
20175W        W35984  12.271   3.750   9.583  0.0749 -0.0124 -0.1313
20176W        W35985   2.103  17.657  12.439 -0.2240  0.0153  0.1432
20177W        W35986   8.747   9.410   5.104  0.3331  0.0364  0.2076
20178W        W35987   9.741  13.414   4.163  0.1920  0.3779 -0.0858
20179W        W35988   8.189   0.131  14.685 -0.1639 -0.1216 -0.3295
20180W        W35989   9.728   4.066  11.016 -0.4283 -0.1990 -0.0273
20181W        W35990  17.992   8.825  14.542  0.2452  0.2063  0.0762
20182W        W35991  12.236   7.887   2.488 -0.1741 -0.0879 -0.0539
20183W        W35992   2.984  10.611   3.717 -0.1003 -0.0575 -0.1896
20184W        W35993   1.402  15.327  14.505  0.1309 -0.1810 -0.0996
20185W        W35994   3.891   0.029  11.491 -0.0469  0.2729  0.1151
20186W        W35995   0.547   9.439   2.421 -0.2874 -0.3460  0.0271
20187W        W35996   8.502   3.955  10.838 -0.0298  0.1551  0.0086
20188W        W35997  16.105   9.175   5.855 -0.0614 -0.0291 -0.3943
20189W        W35998   0.355   0.841  14.664 -0.0754  0.0475  0.1048
20190W        W35999   7.054  16.125  12.335  0.1677 -0.2963 -0.1776
20191W        W36000   9.416  10.295   2.558 -0.2809  0.1433 -0.0643
20192W        W36001  11.995   0.363   3.746  0.2828 -0.0297 -0.1211
20193W        W36002  16.142  14.255  14.698  0.0111  0.2945 -0.5112
20194W        W36003   1.693  16.012  13.222  0.0351  0.0184  0.0662
20195W        W36004   1.805  16.853   4.176 -0.0763 -0.2064  0.3431
20196W        W36005  10.689  14.230  11.577  0.0034 -0.5405  0.1765
20197W        W36006   2.700   8.489  10.714 -0.0909 -0.1547  0.1077
20198W        W36007  14.549   1.365   3.230 -0.1879 -0.0051  0.3496
20199W        W36008  14.597  10.415   3.545  0.1578 -0.2073  0.0703
20200W        W36009   6.713   0.401   0.172  0.0550 -0.2326  0.2232
20201W        W36010   2.474  12.595  13.847 -0.0355 -0.0613  0.0313
20202W        W36011   6.423   6.760   1.851  0.2139  0.0651 -0.0294
20203W        W36012   4.146   6.037  10.156 -0.0949  0.1456  0.2865
20204W        W36013  14.672  12.229  13.276  0.0089 -0.1766  0.3232
20205W        W36014   3.689  12.703   0.187  0.3234  0.0612  0.3029
20206W        W36015  16.704  17.193   3.386 -0.1746  0.2774 -0.0139
20207W        W36016   4.451   9.330   1.449  0.0291  0.1610  0.1152
20208W        W36017   2.300   4.293   4.354 -0.0092  0.1915  0.2722
20209W        W36018   1.530   9.102   3.855 -0.0807 -0.0235  0.0244
20210W        W36019   8.263  17.052   1.003 -0.0552  0.0171  0.0447
20211W        W36020  12.472  15.013   2.704  0.0137  0.3517  0.1881
20212W        W36021  10.133  10.154   5.216  0.0292 -0.0051 -0.0667
20213W        W36022  11.090   9.656   4.765 -0.3116 -0.1798  0.1044
20214W        W36023   6.981  12.401   0.349 -0.3298 -0.0598  0.1630
20215W        W36024  13.145   8.601  10.777 -0.2001 -0.1560 -0.4207
20216W        W36025   9.646  10.180  13.612 -0.3047 -0.2564  0.4166
20217W        W36026   2.733   5.969   3.309  0.0202 -0.1444  0.0072
20218W        W36027  14.429   9.774  11.473 -0.4978 -0.1292 -0.0704
20219W        W36028  11.405  12.369   2.036 -0.2135  0.1125 -0.2913
20220W        W36029  13.817  10.319  12.118  0.1917 -0.2110 -0.1674
20221W        W36030   2.089  13.849  14.370 -0.1173  0.1440 -0.0180
20222W        W36031   4.677  10.099  12.153  0.2149 -0.1124  0.0819
20223W        W36032   3.105  15.462   2.277  0.0461 -0.0926  0.1484
20224W        W36033   2.900   1.896  13.540  0.0763  0.2816  0.1832
20225W        W36034  12.789  18.821  11.239  0.1207 -0.1715  0.1836
20226W        W36035  14.432  13.657  13.076 -0.1525  0.0131 -0.2115
20227W        W36036  14.049  16.635  13.645  0.0130  0.0194  0.4396
20228W        W36037  12.999   4.897   0.056 -0.1364 -0.2129 -0.3767
20229W        W36038   6.480  10.247   0.680 -0.4292  0.1266 -0.1576
20230W        W36039  17.161  17.654  10.882  0.1259  0.0631  0.1875
20231W        W36040   0.155  14.362  14.994  0.0013  0.1048  0.2480
20232W        W36041   1.447  13.662   9.848 -0.2135 -0.1253  0.1771
20233W        W36042  12.305   2.771  11.738 -0.0043 -0.1906  0.1064
20234W        W36043  17.049   8.899  12.198  0.0535 -0.2125  0.1172
20235W        W36044  10.778   3.786   4.131 -0.1963  0.0096  0.2157
20236W        W36045   4.097   3.236   3.703 -0.0692 -0.0814 -0.1425
20237W        W36046   7.042   4.394  11.289  0.1754  0.0205  0.1831
20238W        W36047  10.824   6.819   4.368 -0.2917 -0.1596 -0.4440
20239W        W36048   5.604   1.217   2.392 -0.0764  0.0344  0.3034
20240W        W36049  18.452  18.035  10.410 -0.0545  0.1599 -0.0442
20241W        W36050  16.938   1.084   1.730 -0.2042  0.0644  0.1259
20242W        W36051   9.829   0.013  11.715  0.1521 -0.1680 -0.0711
20243W        W36052  13.335   7.459   1.820  0.0606  0.2443  0.0706
20244W        W36053  16.582   5.707   1.025  0.2243  0.4124  0.0533
20245W        W36054   0.063   9.250   5.168 -0.3306 -0.1158  0.0988
20246W        W36055  10.293  15.480  11.612  0.2526  0.1589  0.1965
20247W        W36056  13.758   3.289  13.452  0.1986  0.0637 -0.0630
20248W        W36057   5.028  17.934  12.984 -0.1708  0.1143  0.0959
20249W        W36058  19.129  14.585  13.871 -0.1497 -0.0638  0.0734
20250W        W36059  14.035  14.665   1.463  0.0814  0.1434 -0.3345
20251W        W36060   3.997   9.859   0.750  0.2452  0.1844 -0.1521
20252W        W36061   6.261  16.639   2.047 -0.0938 -0.0452  0.2025
20253W        W36062   9.492   8.741  14.651 -0.1369  0.1364  0.1633
20254W        W36063  14.682   8.367  15.186  0.0390  0.1041 -0.1777
20255W        W36064  12.813   1.050   2.649 -0.2110 -0.2034  0.0115
20256W        W36065   6.995  15.452   2.630  0.1145  0.1142  0.1627
20257W        W36066  12.002  13.754   0.623 -0.2123 -0.2763  0.0247
20258W        W36067   6.391  17.611  11.615 -0.1501  0.0526  0.1885
20259W        W36068  10.856   6.386  14.886 -0.0074  0.0060 -0.0324
20260W        W36069  12.379   3.923  10.599 -0.1188 -0.3026 -0.3156
20261W        W36070  14.010   8.791  11.011  0.1766 -0.3454 -0.1790
20262W        W36071   5.557  16.211  14.305 -0.1003  0.1510 -0.1764
20263W        W36072  13.821  10.470   5.343 -0.5296  0.1032  0.1243
20264W        W36073  15.096   0.597   4.942 -0.2934 -0.3708 -0.0413
20265W        W36074   1.883  11.257  13.171  0.0441 -0.1130  0.0744
20266W        W36075  11.582   3.027   1.828 -0.1282  0.3957  0.2572
20267W        W36076  19.111   3.484  14.472  0.1140 -0.4352  0.3597
20268W        W36077   5.819   1.488   0.446 -0.0520 -0.1250 -0.3593
20269W        W36078  10.805  11.481   1.015 -0.0429 -0.1752  0.1027
20270W        W36079   5.071   5.440   4.493 -0.0281  0.2083 -0.0819
20271W        W36080   3.126   2.887  13.206  0.0408  0.0735 -0.1250
20272W        W36081  14.486   5.183   5.117 -0.1212  0.1571 -0.0432
20273W        W36082  13.374  11.340   2.073 -0.2251 -0.1449  0.0323
20274W        W36083  16.024  15.894  13.075 -0.1926  0.1409 -0.1204
20275W        W36084   9.596  16.383   0.769 -0.0310  0.1445  0.0727
20276W        W36085  12.015   7.432   5.271  0.3645  0.0987 -0.0199
20277W        W36086  17.655   5.319   0.082 -0.0743  0.2003 -0.1710
20278W        W36087  13.636  17.947   4.688  0.1358  0.1531 -0.2208
20279W        W36088   7.671   2.059   4.338 -0.2408  0.1867 -0.4436
20280W        W36089   4.798   2.330  11.210 -0.0157  0.3024  0.0334
20281W        W36090  14.443  10.369  14.566 -0.1751  0.1283  0.2475
20282W        W36091   2.212  12.951   4.489  0.0504 -0.2514  0.2793
20283W        W36092   1.537   7.794   1.842 -0.0167 -0.2333  0.2082
20284W        W36093  15.666  14.369   6.362  0.1727 -0.1780  0.2861
20285W        W36094  14.884  14.800  12.761  0.2420  0.2356 -0.0528
20286W        W36095   7.901  18.200   5.200  0.0672  0.1036  0.0304
20287W        W36096   9.850  15.570  12.545 -0.1732  0.3082 -0.1108
20288W        W36097   9.055  13.111   1.314  0.4578  0.0944  0.0312
20289W        W36098   4.392  13.476  12.283  0.5729  0.0020 -0.1372
20290W        W36099  18.342   3.231   3.231 -0.1061 -0.2631 -0.0954
20291W        W36100   7.028   7.749  14.284 -0.0631  0.1397  0.2153
20292W        W36101   7.245   0.387  12.400 -0.3457 -0.1049 -0.2529
20293W        W36102   0.727  18.831  12.514 -0.0758 -0.0932  0.1839
20294W        W36103   5.360   6.978   5.403 -0.1492 -0.0590 -0.3244
20295W        W36104   8.295  17.271   5.387 -0.2262  0.1709  0.0299
20296W        W36105   0.552   9.145   3.793  0.1091  0.1281  0.1495
20297W        W36106   6.751   1.126   4.109 -0.0143  0.1013 -0.1908
20298W        W36107  17.716   6.402  12.855 -0.1054  0.0268 -0.2323
20299W        W36108  14.016   0.382   0.309  0.1208 -0.1659 -0.1519
20300W        W36109  14.998  14.011   5.188 -0.2337 -0.0793 -0.2420
20301W        W36110  11.514  18.776  14.172 -0.0334 -0.0907 -0.0584
20302W        W36111  17.692   2.567   4.295 -0.1557  0.1393 -0.2738
20303W        W36112   4.227  10.328   5.575 -0.0689  0.1992  0.0549
20304W        W36113  14.496  15.981   1.073 -0.0508 -0.4445 -0.0399
20305W        W36114   1.652   1.750   2.651 -0.1491  0.1625  0.2573
20306W        W36115  16.575   9.765   4.772  0.1175  0.0572  0.0075
20307W        W36116  10.925  12.253  11.539  0.0667 -0.3066  0.0793
20308W        W36117   8.435  13.722  12.470  0.0134 -0.0592  0.1644
20309W        W36118   8.197  13.638  14.583 -0.0393 -0.3122  0.2206
20310W        W36119   1.102   1.591  11.952 -0.1545  0.0826  0.1711
20311W        W36120  15.414   3.242   2.233  0.1218  0.0682  0.1016
20312W        W36121   0.690   0.504  11.061  0.0956  0.1877  0.2679
20313W        W36122   4.822   4.476   4.393  0.2907 -0.0672  0.1318
20314W        W36123   3.648   5.599   2.840  0.2316  0.1350 -0.2916
20315W        W36124  11.191  15.442   1.701 -0.0050 -0.1718 -0.1340
20316W        W36125   8.655  13.493  15.128 -0.1556 -0.2396  0.0890
20317W        W36126   8.187   2.737   1.991  0.2805  0.1641  0.1118
20318W        W36127  10.221  10.843  12.751  0.2606  0.0219  0.1591
20319W        W36128  12.473   3.100  10.612  0.0549 -0.2079  0.0742
20320W        W36129   5.499  14.317  10.710 -0.1543  0.0374  0.0686
20321W        W36130  15.283  16.636  13.886 -0.2117 -0.1037 -0.0859
20322W        W36131  17.612   3.720  10.248 -0.0356  0.2135 -0.0772
20323W        W36132   6.103   9.631   2.029  0.2746  0.2905 -0.0374
20324W        W36133  16.221   6.868   1.368  0.2596 -0.2633 -0.3937
20325W        W36134  16.109   1.944   2.435  0.2953  0.0789 -0.0899
20326W        W36135  14.855   6.009   9.791 -0.2630 -0.3156 -0.2695
20327W        W36136   9.318  16.463  10.326 -0.2123 -0.1425  0.3667
20328W        W36137  13.665   8.718  10.250 -0.2658  0.1110  0.2753
20329W        W36138  14.498   2.892   1.073  0.0293 -0.1407  0.1846
20330W        W36139  12.174  10.942  14.348  0.0983 -0.0417  0.0910
20331W        W36140   2.016   2.228   2.667 -0.1584 -0.0592 -0.0587
20332W        W36141   7.065   0.824   4.721 -0.1755  0.1091 -0.0678
20333W        W36142  11.889  18.068   1.580 -0.0915 -0.1258  0.0495
20334W        W36143  13.113  16.071   0.186 -0.0771  0.1930  0.0023
20335W        W36144  14.111  13.745   0.294  0.4480  0.1728  0.3241
20336W        W36145  12.228  17.137  13.076  0.2382 -0.3503  0.0171
20337W        W36146   5.178   1.900  14.653  0.3414  0.0961  0.2460
20338W        W36147   4.272  12.295  12.540 -0.0745  0.2701 -0.1963
20339W        W36148   5.679  10.674  12.250  0.1804 -0.2969 -0.0300
20340W        W36149  11.528   1.658  12.633  0.3173 -0.2149  0.0834
20341W        W36150   4.321  13.538   5.131 -0.2891 -0.0261  0.0589
20342W        W36151  15.181  17.057   2.033 -0.2189 -0.2783  0.0757
20343W        W36152   0.863   1.993  11.143  0.0960  0.4147 -0.1570
20344W        W36153   7.617   4.909   0.928  0.0528  0.0970 -0.1442
20345W        W36154  13.472   0.366   2.236  0.1959  0.0283  0.0007
20346W        W36155   6.389   2.301   1.637  0.1884 -0.1069 -0.1439
20347W        W36156  15.603  15.990  14.452  0.0864  0.1025 -0.1502
20348W        W36157  16.143   0.655  10.428 -0.1224  0.2325  0.0727
20349W        W36158  15.668   0.841   1.650 -0.0336  0.1527  0.0096
20350W        W36159   1.340   9.410   2.841 -0.2839 -0.1597  0.0543
20351W        W36160   6.851   4.271  10.187 -0.2004  0.2574  0.0767
20352W        W36161  14.125  13.775  12.712 -0.0377  0.0362  0.2207
20353W        W36162  12.293  15.862  12.727  0.0220 -0.1423 -0.1316
20354W        W36163  10.286  14.157   0.330  0.0002 -0.0354 -0.0968
20355W        W36164  13.076  16.733   1.642  0.1616  0.1871  0.1763
20356W        W36165   2.567   5.721  13.053  0.0301 -0.2855  0.1448
20357W        W36166  12.007  16.006   1.981 -0.1833 -0.3781 -0.2024
20358W        W36167   6.905  14.885  12.268 -0.1305  0.0714  0.1680
20359W        W36168  17.387  14.253   0.506  0.4783 -0.2152  0.0802
20360W        W36169   4.113   4.071  12.659  0.0047 -0.1893 -0.0206
20361W        W36170   2.193   5.885   1.519  0.3249 -0.0122 -0.2300
20362W        W36171  16.403   5.395  14.686 -0.0417  0.2691  0.0367
20363W        W36172   7.562  13.567  14.940  0.0066 -0.1039  0.3919
20364W        W36173  18.568  17.817  11.868  0.1513  0.1975 -0.0040
20365W        W36174  13.601   4.645  10.308 -0.1368 -0.2375 -0.0383
20366W        W36175   1.205   4.919  10.517  0.1804 -0.1228  0.0555
20367W        W36176   7.613   1.429  11.253  0.0296  0.0304  0.2515
20368W        W36177  15.684   8.243  10.287  0.2039 -0.0646 -0.0092
20369W        W36178  17.619  18.178  14.694 -0.3239 -0.0028 -0.3028
20370W        W36179   1.238   9.146  14.840 -0.2278 -0.0486  0.3157
20371W        W36180  11.736   1.096   2.077  0.0254  0.0559  0.0126
20372W        W36181   2.231   8.552   0.148 -0.0948 -0.0593  0.0867
20373W        W36182   3.736  13.707  12.938  0.2873 -0.0910 -0.0952
20374W        W36183  16.938   2.309   3.673  0.3034  0.1526 -0.0983
20375W        W36184  14.354   6.666  14.123  0.1133  0.1271 -0.1506
20376W        W36185   6.961  13.776   0.361  0.0120  0.2243  0.1529
20377W        W36186  12.173   1.050   4.298 -0.0235  0.1293  0.1849
20378W        W36187   8.775  14.105   0.524 -0.2651  0.0365  0.1329
20379W        W36188   4.344   9.452   3.303  0.3437 -0.1680  0.3748
20380W        W36189   1.441  18.762   8.919 -0.0918 -0.1697  0.1176
20381W        W36190  13.159   1.665   0.461  0.1134  0.0459 -0.1627
20382W        W36191   1.240  11.950   4.180 -0.1834 -0.2435  0.0827
20383W        W36192   5.682   0.713  10.056 -0.0081  0.0300 -0.1802
20384W        W36193   2.357   2.467  12.298 -0.0742 -0.4576 -0.1509
20385W        W36194   8.747  12.547   5.716  0.1038 -0.0571  0.0814
20386W        W36195   4.444   5.379  14.987  0.1338  0.0232 -0.2478
20387W        W36196   8.335  17.795  12.736  0.0768 -0.0370  0.0650
20388W        W36197  12.019   4.367   1.427  0.0266 -0.2038  0.0488
20389W        W36198  13.692  18.837   0.907 -0.2074  0.1741 -0.0483
20390W        W36199   0.373   3.148  11.650  0.2180  0.1041 -0.0467
20391W        W36200  14.282   9.368   2.913  0.0441 -0.3234  0.3252
20392W        W36201  12.895  16.260  12.094 -0.0138  0.1864  0.1663
20393W        W36202  16.132   5.927   2.286  0.0279  0.0306 -0.0408
20394W        W36203   5.301   5.954  12.176  0.2444 -0.0554 -0.1634
20395W        W36204  18.349   0.232   0.538  0.0077 -0.3637  0.0088
20396W        W36205  10.676   4.765  10.092 -0.3516 -0.1557 -0.0271
20397W        W36206   5.326   9.307  12.910 -0.0723 -0.0023 -0.1849
20398W        W36207  13.870   4.380   2.407 -0.1783 -0.1504 -0.0178
20399W        W36208  10.116  17.730  13.569 -0.0388  0.0613 -0.2162
20400W        W36209  18.939   1.289  12.116  0.0098  0.1723 -0.6086
20401W        W36210   6.406   1.443  14.965 -0.1933 -0.0540  0.2375
20402W        W36211   2.145  17.964  10.549 -0.0256  0.1050 -0.3175
20403W        W36212  13.252   0.072  14.927 -0.2099 -0.3083 -0.1913
20404W        W36213  18.586   9.242  15.152  0.0673 -0.1230 -0.1385
20405W        W36214   0.401  13.524   3.304 -0.0956  0.2403 -0.2659
20406W        W36215   9.111  18.436   5.477 -0.1375 -0.1742 -0.0551
20407W        W36216   4.995   8.237   2.521 -0.2488  0.1250  0.0268
20408W        W36217  18.563   2.861   9.563  0.1005 -0.1259 -0.0307
20409W        W36218   0.588  12.056   4.688 -0.4462  0.4393  0.2611
20410W        W36219   6.579  10.557   3.323 -0.0676 -0.0957 -0.4428
20411W        W36220   0.941  13.221  11.560 -0.0469  0.3128  0.1349
20412W        W36221   5.382   8.953  10.896  0.1362 -0.2096  0.0238
20413W        W36222  16.929  16.974  11.152  0.0170 -0.0478  0.2030
20414W        W36223  17.872   9.151   0.115 -0.0535 -0.5257  0.0066
20415W        W36224  17.385  14.660   2.747  0.0888  0.2895  0.0596
20416W        W36225   8.526   1.785   5.446 -0.1473  0.1022  0.0911
20417W        W36226  14.578   8.952   1.316  0.1882  0.0078 -0.1324
20418W        W36227  10.102  13.564   0.457 -0.0698  0.0601 -0.1840
20419W        W36228   7.729   5.306  10.451  0.4314  0.1401  0.2852
20420W        W36229   5.199   3.095  10.553 -0.0526 -0.0316 -0.1303
20421W        W36230   3.899   0.521  14.175 -0.0280 -0.0886  0.3931
20422W        W36231  16.323  14.774   5.397  0.0584  0.0356  0.1488
20423W        W36232   5.315  17.646   5.313  0.0004  0.1725  0.1741
20424W        W36233   2.494   6.121   0.487 -0.2872 -0.1940  0.0175
20425W        W36234   9.769  18.734  12.894 -0.1596  0.0442 -0.0888
20426W        W36235   9.860  12.958  14.972 -0.0608  0.0457 -0.1339
20427W        W36236  11.929   0.217   1.176 -0.0305 -0.0678  0.0838
20428W        W36237   4.610   6.600  14.750 -0.0695 -0.0141  0.0272
20429W        W36238   4.978   4.047   1.437  0.2345 -0.0077 -0.1602
20430W        W36239  18.374  15.145  12.255 -0.2653  0.1266  0.1100
20431W        W36240   8.500   9.931  12.212  0.0155 -0.0767  0.1114
20432W        W36241   2.265  16.191   9.275  0.2350 -0.3983 -0.2677
20433W        W36242   0.432  11.101   4.100 -0.0664 -0.0456  0.0415
20434W        W36243   0.198   9.855  14.922  0.3238  0.0973 -0.0068
20435W        W36244  15.061  14.117   4.675  0.0258  0.0941 -0.1974
20436W        W36245   2.016  15.744   0.957 -0.0860 -0.0379 -0.1553
20437W        W36246   3.340   0.110   5.300 -0.0092  0.1307 -0.2291
20438W        W36247  14.679   7.518  12.240 -0.0366 -0.0533 -0.0995
20439W        W36248  14.454  14.378  13.903 -0.0298 -0.1827  0.0027
20440W        W36249   8.076  14.156  14.643 -0.0561  0.1523  0.2428
20441W        W36250  17.715   7.140  11.588  0.2390  0.3037  0.2980
20442W        W36251  10.415  10.649  11.382 -0.0986 -0.0763  0.1450
20443W        W36252  14.970  17.984   3.775 -0.0218 -0.1284 -0.1263
20444W        W36253   4.269  13.479  11.301  0.1277  0.1285 -0.3787
20445W        W36254   9.645  15.839   1.549  0.1581  0.0681  0.1352
20446W        W36255   4.993   2.882   0.242  0.0510  0.0624 -0.0388
20447W        W36256   0.936  16.210  14.323  0.1108 -0.0478 -0.3544
20448W        W36257   7.008   7.929   3.176 -0.2033 -0.0479  0.2213
20449W        W36258  18.464   5.549   2.809  0.1765 -0.0880 -0.1593
20450W        W36259   3.246   4.078  15.123 -0.0220 -0.3414 -0.1404
20451W        W36260  11.225   8.133  12.514  0.0388 -0.2998 -0.0382
20452W        W36261  11.446  13.643  13.116 -0.0222 -0.2765  0.0750
20453W        W36262  12.057   9.558   4.794  0.0602 -0.1602 -0.0730
20454W        W36263  16.490  13.492  13.267 -0.3593  0.2840  0.1115
20455W        W36264  15.497   5.689  14.027  0.1192  0.2663 -0.1770
20456W        W36265   1.705   0.870   9.996  0.1618  0.0693 -0.3210
20457W        W36266  16.686  11.554   3.150 -0.1571  0.0607  0.2619
20458W        W36267  12.833  18.127  11.717  0.2105 -0.1526 -0.1889
20459W        W36268   8.248  12.756  12.792 -0.2623 -0.0366 -0.0927
20460W        W36269  15.303  11.158  11.158 -0.0561 -0.1498 -0.0217
20461W        W36270   9.267  12.418   4.222  0.0245 -0.3059  0.3005
20462W        W36271  15.308  18.578   1.435  0.1503  0.0962  0.0658
20463W        W36272   3.865  13.566  10.616  0.2996 -0.1104  0.2039
20464W        W36273   9.063   2.861  14.018  0.1658  0.3066 -0.1360
20465W        W36274   7.422  14.596   0.749  0.0135 -0.3752 -0.0139
20466W        W36275   7.530   1.831  14.394  0.2504  0.0824  0.0052
20467W        W36276  18.722  10.238   0.374  0.2183 -0.0038 -0.2349
20468W        W36277  16.419   0.788  12.238  0.5484  0.1307  0.2019
20469W        W36278   5.242  12.628   9.808  0.0259  0.2378  0.0638
20470W        W36279  10.457  18.565   2.689 -0.3328  0.3425 -0.0292
20471W        W36280  17.910  13.807  10.961  0.0011  0.2301  0.2633
20472W        W36281   7.613  13.084  13.367 -0.2870  0.1460  0.0464
20473W        W36282  14.858  10.115  13.211  0.2833 -0.0663 -0.0394
20474W        W36283   7.652  16.756   9.634 -0.3485 -0.3415 -0.1360
20475W        W36284   1.296   5.873  11.457  0.2983  0.1175 -0.0863
20476W        W36285  16.331  18.462   1.889 -0.0591 -0.1636  0.1098
20477W        W36286   4.743  13.376   0.156  0.0233  0.3384  0.0042
20478W        W36287   3.095   9.336   4.868  0.1650  0.0358  0.0216
20479W        W36288   9.441   8.384  10.605  0.2489 -0.1120  0.0203
20480W        W36289   7.719   3.084  13.779 -0.1291 -0.2568  0.1821
20481W        W36290  19.104  14.061   4.032 -0.0449  0.1719  0.2411
20482W        W36291   9.574   4.123   1.814 -0.0586 -0.0367 -0.0440
20483W        W36292  14.830  16.941   2.391 -0.1720 -0.2171  0.2110
20484W        W36293  18.422   2.643  13.028 -0.0657  0.1390 -0.2291
20485W        W36294  18.189  14.900   0.087  0.3255 -0.4779  0.1335
20486W        W36295   0.348  10.783   1.068 -0.0999  0.3453 -0.3487
20487W        W36296  16.576   5.630  12.002  0.1498  0.0601  0.0075
20488W        W36297   9.530  16.689  14.407 -0.1089  0.0757 -0.0478
20489W        W36298  15.688   3.514   1.932  0.1198  0.1940 -0.0198
20490W        W36299  17.470  17.331   1.890 -0.0765  0.3876  0.2888
20491W        W36300  12.931  12.692   2.265  0.1101  0.4872 -0.2849
20492W        W36301  14.113  15.749   5.439 -0.2643 -0.0220  0.2580
20493W        W36302   6.933   3.587   4.267 -0.2237  0.0743 -0.0312
20494W        W36303   6.193  15.750   1.499 -0.0711  0.0526 -0.3956
20495W        W36304   5.257  12.057  14.739  0.0621 -0.0788  0.2180
20496W        W36305   1.902  13.354  13.346  0.0208  0.0617 -0.3415
20497W        W36306   4.720   0.284   0.142  0.0554  0.1042 -0.3336
20498W        W36307   8.529  11.321   4.224 -0.0381  0.0025  0.1147
20499W        W36308   0.717  12.094   4.171  0.1565 -0.1941  0.0300
20500W        W36309   1.906  15.064   1.441  0.2379  0.2722 -0.2523
20501W        W36310  12.067  10.712  13.898 -0.2402 -0.5444  0.1731
20502W        W36311  14.453   3.610  15.194  0.0709 -0.4602 -0.0889
20503W        W36312  12.215  11.930  12.449  0.0221 -0.0124 -0.1228
20504W        W36313   4.943   4.796  10.213 -0.3438  0.0974  0.0943
20505W        W36314  17.777  19.076   5.641  0.1387 -0.0604  0.0675
20506W        W36315  15.405   2.630  14.433  0.0656 -0.0670  0.2437
20507W        W36316  13.415   0.942   4.685 -0.0487 -0.0795 -0.4419
20508W        W36317   2.135  10.185   3.724  0.2194  0.2669  0.0799
20509W        W36318   9.453   8.493  15.181 -0.0679  0.0187 -0.0740
20510W        W36319  14.212  15.281  14.035  0.2044  0.2314 -0.3015
20511W        W36320  15.511   5.383   4.483 -0.0005  0.1175 -0.4017
20512W        W36321   0.813  13.507   3.011 -0.0338  0.0597  0.2567
20513W        W36322  16.658   9.810  10.682 -0.0650  0.4432 -0.2438
20514W        W36323  11.795   6.260   9.778 -0.0758  0.3510 -0.1575
20515W        W36324  17.124   8.115   0.075  0.0285  0.0187  0.1507
20516W        W36325   1.766   5.296  14.472 -0.1702  0.0458  0.2206
20517W        W36326   9.726   5.989   4.615 -0.0413  0.1378 -0.0384
20518W        W36327   3.911   2.881  11.526 -0.3726 -0.2399  0.3089
20519W        W36328   4.123  13.071   2.831  0.4012 -0.3535 -0.1087
20520W        W36329  11.010   1.378  12.365  0.1343 -0.3737 -0.0042
20521W        W36330  18.482   1.055   2.838  0.1124 -0.0676  0.0821
20522W        W36331  11.739  16.696  12.894 -0.1702 -0.0970 -0.2301
20523W        W36332  11.461   4.533   3.929  0.0809 -0.2624  0.1267
20524W        W36333   6.437  12.494   0.287  0.0396  0.1171 -0.0423
20525W        W36334   7.463   0.019   3.383 -0.1192 -0.1417 -0.0863
20526W        W36335  16.526  18.823  14.786 -0.1078 -0.1267 -0.0312
20527W        W36336  16.484  13.263  12.040  0.0126 -0.3680 -0.1626
20528W        W36337   8.910   0.357   5.642  0.0934  0.0400 -0.1886
20529W        W36338  10.056  15.689   3.262  0.0869  0.2023 -0.0432
20530W        W36339  18.308  10.340   0.043 -0.1090 -0.0605  0.1820
20531W        W36340   7.796  12.880  12.921 -0.1008  0.1163  0.0559
20532W        W36341   9.719   9.872   3.993 -0.0957 -0.2942  0.2662
20533W        W36342  10.401   1.229  14.220  0.1429 -0.1317 -0.0739
20534W        W36343   3.737  19.141  10.274  0.1387  0.1130 -0.0114
20535W        W36344  12.947  18.854   3.861  0.2223 -0.0497  0.1582
20536W        W36345   6.646   9.859   4.700 -0.3163  0.3401 -0.0014
20537W        W36346   3.377   0.208  14.861 -0.0966 -0.1545 -0.2506
20538W        W36347  17.764   6.573   3.694  0.0173 -0.1035  0.2006
20539W        W36348   8.499  10.568   2.909 -0.0419  0.0973 -0.1697
20540W        W36349  17.042  13.906  13.107  0.2722  0.2656  0.2615
20541W        W36350   5.975   5.836  11.819 -0.0785 -0.4669  0.3377
20542W        W36351   3.130  10.363  13.709  0.1762  0.0299 -0.0410
20543W        W36352  14.458   3.795   0.497  0.0859  0.2360  0.1435
20544W        W36353  18.441  16.562   5.605 -0.0131 -0.0417  0.0171
20545W        W36354  18.125  12.110   5.214 -0.3579 -0.2039 -0.0764
20546W        W36355   8.239   1.080  14.665 -0.1196  0.0333 -0.1101
20547W        W36356   6.489   8.038   0.857 -0.3726  0.2212 -0.0411
20548W        W36357  15.661   7.611   9.613  0.1999  0.3820  0.0018
20549W        W36358  13.992   1.148  11.483  0.2482 -0.1813  0.1723
20550W        W36359   2.560  12.505   0.463 -0.0444  0.1563  0.0713
20551W        W36360   4.981   6.054   0.306 -0.2788 -0.2736 -0.2288
20552W        W36361  13.486   3.922  14.035  0.1369 -0.3553  0.0548
20553W        W36362   1.621   1.327   2.321  0.0527 -0.1648 -0.3781
20554W        W36363  12.346   7.936  11.492  0.2393 -0.0010  0.2899
20555W        W36364  13.503  17.503   4.889  0.1433 -0.3012  0.1211
20556W        W36365  18.459   8.459  15.189 -0.0009 -0.1453 -0.3258
20557W        W36366  17.868   7.086  14.380  0.0803 -0.0502  0.2660
20558W        W36367  11.894   3.426   1.437  0.2433 -0.0180 -0.1086
20559W        W36368   8.025  14.929  12.969  0.1430  0.2638 -0.1743
20560W        W36369   5.330  18.907   4.048 -0.1440 -0.2371 -0.1268
20561W        W36370   4.911   3.066   4.403  0.1077 -0.0560 -0.5797
20562W        W36371   1.807  14.866   3.484  0.0480  0.0577 -0.0398
20563W        W36372  15.337  10.928   4.782 -0.3215  0.2968  0.2321
20564W        W36373  13.750  11.841  14.357  0.0506  0.2771 -0.0284
20565W        W36374   0.031  11.028   0.527  0.1479 -0.2120  0.0002
20566W        W36375   0.771  19.140  10.156 -0.2490 -0.1322  0.4375
20567W        W36376   5.652  12.457   2.409 -0.0196  0.1706  0.0362
20568W        W36377   3.897  18.823   3.678 -0.1208  0.1505  0.2864
20569W        W36378   7.051  17.053   2.489  0.1680  0.4527  0.1060
20570W        W36379   9.885   8.745  10.538 -0.2945 -0.1592  0.0477
20571W        W36380   8.423  18.849  13.531  0.0278  0.0121  0.0424
20572W        W36381   0.077   5.878   3.169 -0.3760 -0.1312  0.0528
20573W        W36382   7.153   1.191   3.764  0.1593 -0.0223  0.0117
20574W        W36383   2.194  16.876   1.054 -0.1536 -0.1142  0.0873
20575W        W36384   2.650  12.117  13.060 -0.1673  0.1744  0.1250
20576W        W36385  10.910  15.525  12.710 -0.1364 -0.0009  0.0060
20577W        W36386  11.143   5.823  10.838 -0.1209  0.2485 -0.2731
20578W        W36387   6.876  10.757  11.770  0.6267 -0.0893  0.2776
20579W        W36388  18.913   5.773   3.587 -0.0450 -0.0310 -0.0152
20580W        W36389  13.234   0.999   4.185 -0.2072 -0.1107  0.1360
20581W        W36390   5.697  16.643   4.278 -0.0230  0.4654 -0.0088
20582W        W36391   9.720   8.246   0.316  0.0275 -0.1556 -0.0135
20583W        W36392  10.569   5.178  10.845 -0.1938  0.1780 -0.0757
20584W        W36393  16.584  16.068   5.423  0.1969  0.1893 -0.0117
20585W        W36394  18.944  10.234   2.830  0.3973  0.1470 -0.0782
20586W        W36395   7.754  11.750   3.024  0.2434 -0.3560 -0.2063
20587W        W36396   1.421   0.378   9.907 -0.0222 -0.0182  0.0805
20588W        W36397   2.154  12.974   5.012  0.2066 -0.2042 -0.2308
20589W        W36398  12.298   4.179   4.794  0.0495 -0.1077 -0.0462
20590W        W36399  17.213  13.086   0.783 -0.1617 -0.2255 -0.0213
20591W        W36400   2.107   2.747   4.331  0.1823  0.1640 -0.0091
20592W        W36401  15.072   8.410   4.869  0.3211  0.0475 -0.1874
20593W        W36402  10.888   0.406   1.223 -0.1202  0.0018  0.0798
20594W        W36403   7.704   1.229   0.887 -0.3433  0.3235  0.1722
20595W        W36404   5.365   6.870   4.187 -0.0156 -0.0054 -0.2219
20596W        W36405  17.281   3.668   0.417 -0.0041 -0.1668  0.1452
20597W        W36406   9.441   4.773  13.197 -0.2679 -0.0410  0.2813
20598W        W36407   4.232   9.228   4.784 -0.4005 -0.2330  0.0151
20599W        W36408  15.684  16.311   3.060 -0.1166 -0.1426  0.0796
20600W        W36409   5.700  11.202  13.735 -0.3138  0.2753 -0.3217
20601W        W36410   3.418   0.995   5.208  0.0691  0.0326  0.0911
20602W        W36411  19.012  13.446  13.112  0.5391  0.2031 -0.0170
20603W        W36412  16.095  13.008  14.555 -0.3029 -0.0168  0.0251
20604W        W36413   7.764  11.132   3.216  0.2456 -0.4423 -0.0842
20605W        W36414   6.859   2.664  11.759  0.1350  0.0808  0.1914
20606W        W36415  16.301   6.722  11.686  0.0551 -0.1494 -0.0590
20607W        W36416   9.474   8.201  10.041 -0.3185  0.1552  0.0456
20608W        W36417   8.260   2.468  12.767  0.0634  0.0578  0.0473
20609W        W36418   2.067  17.103   3.770  0.1710 -0.0295 -0.1697
20610W        W36419   3.375   0.444  14.252  0.0395  0.1873 -0.0039
20611W        W36420   5.522   8.648   1.576  0.0532 -0.0338  0.0894
20612W        W36421  18.747   7.556  11.331  0.0222  0.0150 -0.1711
20613W        W36422  17.962   6.500   2.159  0.0028 -0.1122  0.0253
20614W        W36423  18.926   3.050   3.004 -0.1703 -0.0905  0.0336
20615W        W36424  10.750  13.831  13.978 -0.0659 -0.2967  0.1781
20616W        W36425  13.434   4.172   2.060 -0.3479 -0.0667  0.2497
20617W        W36426  16.742   8.445   1.376  0.1742  0.2900  0.0883
20618W        W36427  12.086  15.664  14.592 -0.3629  0.1128  0.1032
20619W        W36428   7.772   4.480   1.350  0.0372  0.2569  0.0977
20620W        W36429  11.421  14.837   0.765 -0.1385 -0.1656 -0.0617
20621W        W36430  13.790  17.297   2.436  0.0860 -0.1081  0.2703
20622W        W36431  16.576  18.506   0.680  0.1825 -0.2887 -0.2533
20623W        W36432   7.005  15.742   4.708 -0.5491 -0.1941  0.0347
20624W        W36433   2.701  10.885  13.666  0.0992  0.0333  0.0870
20625W        W36434  13.674  11.726   0.326 -0.0535  0.0349  0.0263
20626W        W36435   7.711  13.760   1.979 -0.0937  0.0243 -0.3112
20627W        W36436   2.428   0.291  13.057  0.1496  0.0114 -0.3153
20628W        W36437   0.179  15.864   0.368 -0.0431 -0.1853 -0.0508
20629W        W36438   2.745   2.428   3.927  0.2877  0.0035  0.0165
20630W        W36439  18.246  11.281   4.052  0.0756  0.2400 -0.1775
20631W        W36440  15.546  18.781  11.258 -0.0074  0.5440 -0.1293
20632W        W36441   4.423  12.167   1.411  0.2465  0.1211  0.1853
20633W        W36442  17.648  13.078  12.964 -0.0044  0.0335 -0.0061
20634W        W36443   2.410   2.917   4.691  0.2409  0.1895  0.2075
20635W        W36444   7.701  12.048   5.047  0.0881 -0.1131  0.3019
20636W        W36445  10.158   9.947   0.903  0.1162  0.1602  0.0853
20637W        W36446   4.622   5.194   2.392 -0.0941  0.1473 -0.0912
20638W        W36447   8.607  18.300   2.015 -0.1417  0.0530  0.0628
20639W        W36448  10.066  18.505   2.324  0.3030 -0.0393  0.0355
20640W        W36449   3.858   1.914   5.294  0.2750 -0.1795  0.1519
20641W        W36450   4.002  18.947  11.072  0.0551 -0.1103  0.0838
20642W        W36451  13.693  15.158   5.363  0.1410 -0.0059 -0.2365
20643W        W36452  13.924  11.179  12.694  0.0467  0.1085  0.1009
20644W        W36453  11.751  10.565   3.163 -0.0159  0.2782 -0.2706
20645W        W36454   6.103  13.748  11.146 -0.2373  0.1830  0.2207
20646W        W36455   1.607   6.068  12.426 -0.3079 -0.5254  0.0062
20647W        W36456   4.106   3.553  12.341 -0.1821 -0.3252 -0.1831
20648W        W36457   5.252   0.728  11.048  0.2126 -0.1213 -0.0842
20649W        W36458   0.911  13.155  11.089  0.2750  0.1615 -0.1338
20650W        W36459  14.124   7.548  10.021 -0.0020  0.0553 -0.0321
20651W        W36460  17.873  14.620  13.166  0.2306  0.0083 -0.0772
20652W        W36461  18.476   2.860   2.889 -0.0288 -0.0237  0.0491
20653W        W36462   0.438  12.823  13.329 -0.1541  0.0285  0.2549
20654W        W36463   6.300  15.797  14.407 -0.2769 -0.1630  0.1757
20655W        W36464   4.886   5.114  14.981  0.2595 -0.0579 -0.0193
20656W        W36465   7.964  17.026  14.106  0.0790  0.0724 -0.0135
20657W        W36466  18.813   6.952  13.364  0.1485 -0.0792  0.0792
20658W        W36467  11.436  12.182   0.970 -0.0062  0.1981  0.1758
20659W        W36468   3.563   1.198  10.756 -0.0468 -0.2056 -0.1335
20660W        W36469  13.595   9.399  10.842  0.4076  0.2190 -0.3431
20661W        W36470   4.552   6.633   4.591  0.0430  0.0058  0.2469
20662W        W36471  11.973   9.421   9.928  0.1690  0.2186 -0.2918
20663W        W36472   5.401   4.834   0.553 -0.1116 -0.1262  0.2768
20664W        W36473  19.087   2.732  10.847  0.0883 -0.1603  0.0738
20665W        W36474   7.598  18.256   4.147 -0.0881 -0.2319  0.1097
20666W        W36475  15.309   7.968   9.962 -0.0589 -0.0520  0.0339
20667W        W36476   6.460   3.089  14.204  0.0057  0.2564  0.0135
20668W        W36477  15.594   2.024   5.602  0.3020  0.0883 -0.1787
20669W        W36478  16.894  16.191  13.571  0.0865  0.1065 -0.1223
20670W        W36479   3.579   0.493  11.514 -0.2130  0.4144  0.1624
20671W        W36480  15.950  15.422   5.544  0.0237  0.1496  0.4532
20672W        W36481  13.598   7.567  14.473  0.0774  0.0200 -0.2507
20673W        W36482   1.795   4.465  11.298  0.0107 -0.3504  0.1150
20674W        W36483   6.083  11.966   2.032 -0.5266  0.2632 -0.3830
20675W        W36484   0.391  18.755  14.070  0.1694 -0.0436 -0.0745
20676W        W36485   7.120  17.463  14.694 -0.1750 -0.2552 -0.3390
20677W        W36486   8.983   3.040   0.272  0.3871  0.0641  0.2315
20678W        W36487  10.408  11.432  13.371 -0.1984  0.0770 -0.1689
20679W        W36488  16.450   9.296  11.855 -0.0921 -0.3628 -0.1830
20680W        W36489   3.078   0.562  11.292  0.2145 -0.0396 -0.1537
20681W        W36490  13.966   1.883  12.479  0.0821 -0.0950 -0.3259
20682W        W36491   1.644   2.180   2.343  0.0156 -0.0463  0.3363
20683W        W36492   9.073  11.815   9.840 -0.0460  0.1051 -0.0394
20684W        W36493   4.377   7.936   4.322  0.0057  0.1019 -0.0300
20685W        W36494  16.068   0.046   4.188 -0.1645  0.2563 -0.2468
20686W        W36495  17.521  12.976   3.427 -0.0168 -0.2367  0.4070
20687W        W36496   6.566   8.403   1.939  0.4658  0.1757  0.2888
20688W        W36497   1.605  14.643  12.721 -0.0297  0.0449  0.6006
20689W        W36498   5.633   2.494  11.976 -0.0914  0.3669 -0.0781
20690W        W36499   4.563   5.689   3.308  0.4382 -0.2296 -0.0572
20691W        W36500   5.427   6.443   3.454  0.0589 -0.3638  0.0734
20692W        W36501  13.046   7.057  12.113  0.1772 -0.0412  0.3858
20693W        W36502   0.153   8.321  12.547  0.1817  0.0248 -0.3376
20694W        W36503  17.793  16.649  12.392 -0.0018 -0.0858 -0.0538
20695W        W36504   9.932   4.476  11.962  0.0324 -0.0033  0.1825
20696W        W36505   7.992  13.704   3.821  0.1362 -0.1456  0.0053
20697W        W36506  16.701   5.222  12.389 -0.2778  0.4379  0.0344
20698W        W36507  17.230  16.769  12.986 -0.3878 -0.1228  0.2498
20699W        W36508  18.749  11.475  10.097  0.1932 -0.4620 -0.0915
20700W        W36509  13.187   5.558  14.089  0.0854  0.1351  0.1942
20701W        W36510   8.179  11.468  12.874 -0.0680  0.3103  0.2234
20702W        W36511  13.528   6.335  12.539 -0.0634  0.0578  0.0444
20703W        W36512  15.879  16.634  11.957  0.0551 -0.1713  0.1191
20704W        W36513   4.645  10.062   5.532  0.0978 -0.1766  0.2769
20705W        W36514   3.833   6.383   9.017 -0.0856  0.0867 -0.3169
20706W        W36515  12.501  12.592   2.499 -0.1297  0.1248  0.0171
20707W        W36516   3.146  16.787   3.979 -0.0341 -0.0605 -0.2176
20708W        W36517   0.167   3.550  15.025  0.3026  0.2267 -0.0709
20709W        W36518   2.100   9.004  10.140 -0.1076 -0.1878 -0.3090
20710W        W36519   8.002   5.295   4.101  0.0482 -0.0595 -0.0870
20711W        W36520  18.544  12.875   4.546  0.1107 -0.1162 -0.1249
20712W        W36521   3.835  15.394   4.961  0.1017  0.3326  0.1229
20713W        W36522   1.331  12.410  14.012 -0.1866 -0.2474  0.4844
20714W        W36523  18.902  10.958  11.307 -0.0408 -0.0642 -0.2643
20715W        W36524  14.556   3.257  14.781  0.0620  0.0040  0.3536
20716W        W36525   8.996   5.916   4.435  0.2917 -0.3900  0.1142
20717W        W36526  13.129  10.283  11.860 -0.0045  0.0282 -0.2276
20718W        W36527   1.719  16.250  13.740 -0.0699 -0.1250 -0.1521
20719W        W36528  15.976   9.208  10.878 -0.1675  0.3689  0.0547
20720W        W36529   3.590   4.826  14.679 -0.2703 -0.2693  0.1084
20721W        W36530   5.933   6.864   1.210  0.5855  0.1936 -0.0543
20722W        W36531   7.395   2.224  13.464  0.0863 -0.2489  0.0079
20723W        W36532   3.947   3.687   4.648 -0.0395  0.1944 -0.3463
20724W        W36533   6.601   6.893   3.446  0.1314  0.1633 -0.0306
20725W        W36534  18.270  15.090  10.883  0.1425  0.1156  0.1060
20726W        W36535   0.421  12.832  14.072  0.2607  0.1124  0.3358
20727W        W36536  18.587  12.164  12.337 -0.0040 -0.2496  0.1510
20728W        W36537   5.920   5.475  12.439  0.0398 -0.0196 -0.4791
20729W        W36538  11.586  10.983  14.991  0.2890  0.0260 -0.0920
20730W        W36539  17.050   9.763   4.696 -0.0563 -0.1316 -0.0377
20731W        W36540  13.008   9.467   5.025  0.1017 -0.0258 -0.3104
20732W        W36541   2.382  10.576  11.768  0.0202 -0.1377 -0.0451
20733W        W36542   0.116  14.717   2.400 -0.0689  0.2999  0.0704
20734W        W36543  13.203   3.891   9.604 -0.2006 -0.1420  0.1935
20735W        W36544  15.235   4.178   0.343  0.1249 -0.2104 -0.2609
20736W        W36545  19.009  14.541  12.554  0.0258  0.0340  0.0038
20737W        W36546  10.847   8.686   4.205  0.0878 -0.3030  0.2040
20738W        W36547   2.688   3.705   1.068 -0.4011  0.0570  0.1135
20739W        W36548   9.345  15.229  14.754  0.1808 -0.0258  0.0574
20740W        W36549   6.676   6.227  13.260  0.0002 -0.0815 -0.0429
20741W        W36550   9.396   4.753  13.787 -0.1221  0.2908 -0.0048
20742W        W36551   0.487   8.885   1.461  0.1751 -0.1942  0.1079
20743W        W36552   7.657   9.063  13.147 -0.1029  0.1358 -0.1475
20744W        W36553  12.986   4.199   1.012 -0.2916  0.0738 -0.2637
20745W        W36554   5.831   7.566   4.593  0.0276  0.0716 -0.0250
20746W        W36555  10.268  19.093   0.254 -0.0287  0.0934 -0.0086
20747W        W36556  15.705   7.319  14.309  0.4564  0.2885  0.1456
20748W        W36557  18.799  11.092   4.668 -0.1924  0.3446  0.1642
20749W        W36558  10.500   8.140   2.889  0.1701  0.2290 -0.1441
20750W        W36559   6.845   4.464   4.211 -0.1524  0.2371  0.3933
20751W        W36560   2.357   0.723   1.831  0.2640  0.1616 -0.2019
20752W        W36561  10.263   5.299   1.080  0.0257 -0.1292  0.3430
20753W        W36562  15.137  11.088   2.992 -0.0328  0.1920 -0.1444
20754W        W36563   6.119   6.311  13.647  0.1321 -0.1774  0.0144
20755W        W36564  16.164   5.735   5.735 -0.0332  0.0414  0.1522
20756W        W36565  13.957   5.147  14.386 -0.0217 -0.0513  0.0892
20757W        W36566  18.426  12.025  14.434  0.0507 -0.1046  0.1444
20758W        W36567   7.540  17.593  10.746  0.4874 -0.1240 -0.4380
20759W        W36568  16.450   8.404  14.410  0.2944 -0.1734 -0.0416
20760W        W36569   5.987  17.482  13.584  0.1122  0.1678 -0.1050
20761W        W36570   0.233  10.208  11.097  0.0313  0.2333 -0.0576
20762W        W36571   5.051  16.538  12.416 -0.2606 -0.1752  0.0289
20763W        W36572  15.282  12.247   5.060 -0.1467  0.1889  0.1333
20764W        W36573   5.879  18.181  11.747 -0.1807 -0.1869 -0.0129
20765W        W36574   2.007  10.613   3.225 -0.0648 -0.3601 -0.5068
20766W        W36575   9.129  15.316   2.132  0.0374  0.0711  0.1129
20767W        W36576   0.129  11.228  10.946 -0.0020  0.1966 -0.1507
20768W        W36577  13.112   9.106  10.671  0.1548  0.0432  0.1128
20769W        W36578  12.069  12.275  14.152 -0.2159 -0.0199 -0.3713
20770W        W36579   2.116   1.295   5.205 -0.1859 -0.2982  0.1890
20771W        W36580  12.947  15.578  14.763 -0.1052  0.0020 -0.1138
20772W        W36581  16.615   7.096  12.629  0.0353 -0.2201  0.0600
20773W        W36582  14.039   2.480  10.798 -0.1643  0.0433  0.1623
20774W        W36583   2.235  18.505   2.376 -0.0728  0.0603  0.0641
20775W        W36584   9.858   2.581   1.833 -0.2978 -0.1773 -0.1465
20776W        W36585   4.495   1.593   2.530 -0.1292  0.3601  0.1541
20777W        W36586   2.177  15.112  12.360 -0.1804  0.0552  0.1098
20778W        W36587  18.971  16.561   3.153 -0.0121  0.2401 -0.1686
20779W        W36588  12.877   1.981  14.524 -0.1837  0.1713 -0.1523
20780W        W36589   3.717  12.962   9.932  0.0505  0.3145 -0.0344
20781W        W36590  18.994   7.378   2.472 -0.2149  0.1353 -0.2856
20782W        W36591  13.379  13.173   5.010  0.1474  0.0182  0.0119
20783W        W36592   9.014   8.888  14.607  0.1544 -0.3591  0.2261
20784W        W36593  16.081  18.909  11.584 -0.3998 -0.1506  0.1763
20785W        W36594   7.066  16.406   2.897  0.0408 -0.0805  0.0626
20786W        W36595   1.059   8.666  12.828 -0.1555 -0.1258 -0.1099
20787W        W36596   8.395   9.339   1.850  0.2313 -0.0883 -0.2660
20788W        W36597   1.041  14.787  10.343  0.0762 -0.1358 -0.0244
20789W        W36598   9.904  17.382  13.197 -0.0990 -0.0888 -0.0184
20790W        W36599  13.556   6.071   2.063  0.1811 -0.3854  0.0173
20791W        W36600  15.519  10.853   0.173  0.0846 -0.1410  0.0146
20792W        W36601   4.361  11.799   1.727  0.0517  0.0986 -0.2937
20793W        W36602  16.543  10.855   4.541 -0.0966 -0.3455 -0.0709
20794W        W36603  13.770  10.268   3.072  0.0680  0.0415 -0.0205
20795W        W36604  17.797   3.645  10.700 -0.1687 -0.1401 -0.1074
20796W        W36605   3.979   7.114  11.772  0.0364 -0.0618  0.1843
20797W        W36606   8.444   1.045   4.328  0.2939  0.1354  0.0997
20798W        W36607  11.841   4.776   2.198  0.0193  0.1834  0.1820
20799W        W36608  12.456  12.338  12.225  0.1323  0.1019 -0.1678
20800W        W36609   7.656   4.030   1.191 -0.1088  0.0630  0.4491
20801W        W36610   9.844  16.482  10.323  0.2616 -0.1115 -0.1372
20802W        W36611  10.466   6.300  14.424  0.1158  0.3452 -0.2110
20803W        W36612  17.222   8.823   4.709 -0.0876 -0.4147 -0.2009
20804W        W36613  18.807   1.742   0.573 -0.2701  0.0148  0.0458
20805W        W36614  14.633  10.105   1.044 -0.1463 -0.0944  0.2992
20806W        W36615  11.793   2.867  10.955 -0.0018  0.0515 -0.1513
20807W        W36616   1.104   6.667  13.063  0.0869  0.0275  0.0754
20808W        W36617   8.099   1.962  11.947 -0.1342 -0.3389  0.0802
20809W        W36618   8.790  11.687  13.653  0.2405  0.2811  0.0347
20810W        W36619  13.875  16.897   3.626  0.2170  0.0161  0.0985
20811W        W36620  11.479  14.179   5.231 -0.0199  0.4402 -0.1997
20812W        W36621   1.239  14.330  12.719  0.0876  0.1873 -0.1676
20813W        W36622   0.549  16.448  12.513  0.1281  0.1990 -0.0729
20814W        W36623   5.290  17.280   2.778 -0.3472 -0.0777 -0.1386
20815W        W36624   2.884  16.424  14.464 -0.1628  0.1057 -0.0469
20816W        W36625  18.758  15.206  11.859 -0.1729 -0.2578 -0.2139
20817W        W36626   1.890   9.684   2.394  0.1802  0.2143 -0.2696
20818W        W36627  15.824  15.485   3.898  0.2578 -0.2000 -0.4010
20819W        W36628   2.582  14.572  15.068  0.0031 -0.1223 -0.0930
20820W        W36629  12.938   0.143  10.317 -0.0125  0.1022 -0.3098
20821W        W36630   0.287   1.980  10.408  0.0185 -0.2509  0.0493
20822W        W36631  12.018  15.079   4.020 -0.1324  0.1278  0.0100
20823W        W36632  17.444   6.910  14.627  0.0511 -0.1075  0.0388
20824W        W36633   5.043  16.711  10.513  0.0542 -0.1008  0.2209
20825W        W36634  11.437  17.378  13.563 -0.0445  0.1244 -0.2098
20826W        W36635  15.567   4.675  11.079  0.1969  0.1823 -0.2222
20827W        W36636   4.356   0.064   1.690 -0.0794 -0.2263  0.0150
20828W        W36637  12.786  16.445   4.523 -0.0511  0.2532 -0.1282
20829W        W36638  15.677  11.107   1.072  0.0370  0.1374 -0.0481
20830W        W36639  12.920  11.783   5.435 -0.0225 -0.2720  0.1972
20831W        W36640  17.951   2.349  13.365  0.0507  0.1938 -0.3170
20832W        W36641   5.830   0.357   1.474  0.2932 -0.2651  0.2988
20833W        W36642  16.818  15.999  15.085 -0.0110 -0.0762 -0.2430
20834W        W36643  15.182   3.894  10.427 -0.2079  0.1315 -0.0047
20835W        W36644  18.429   8.753   2.752 -0.1016  0.0458 -0.2518
20836W        W36645  17.713  12.945  13.712  0.1439  0.1646  0.2726
20837W        W36646   1.993   5.378   2.594  0.2156 -0.0618  0.0957
20838W        W36647  14.987   8.468  12.235  0.0518 -0.2645  0.2146
20839W        W36648  15.121   5.773   2.426 -0.0165  0.3190 -0.4378
20840W        W36649   7.919   9.462  14.077  0.1738  0.1833 -0.0191
20841W        W36650   2.193  16.101  10.804 -0.1263 -0.0086 -0.2580
20842W        W36651  15.837  11.977   2.825  0.2215  0.0834  0.0195
20843W        W36652   3.212  17.521   1.003  0.2172  0.1777  0.0803
20844W        W36653  10.622   8.962   1.738 -0.3269 -0.0780 -0.0702
20845W        W36654  11.704  14.070   0.829 -0.1336  0.0683 -0.1763
20846W        W36655  18.441   7.999  10.707 -0.0298 -0.0750 -0.2502
20847W        W36656  18.976  16.741   2.292  0.0163 -0.1724  0.1113
20848W        W36657   0.382  13.086   4.180  0.0784 -0.2796  0.2776
20849W        W36658  14.385  14.738   0.340 -0.1424 -0.1586  0.0377
20850W        W36659  14.791   8.069  11.109 -0.1304 -0.0610 -0.2986
20851W        W36660  15.651   0.806  15.013 -0.2982 -0.1595 -0.1670
20852W        W36661  11.692  10.945  11.211  0.1964  0.1541 -0.0825
20853W        W36662   1.150   8.855   0.956 -0.3374 -0.0798 -0.2229
20854W        W36663   0.102   7.960  12.141 -0.5328 -0.0286  0.0895
20855W        W36664   0.111  19.150  14.221  0.1548 -0.0694  0.1842
20856W        W36665   6.586   5.292   0.546  0.0647  0.0536 -0.0734
20857W        W36666   0.707  13.976   0.705  0.3228 -0.1002 -0.0942
20858W        W36667  16.242  10.775  13.168  0.0773  0.2269  0.0823
20859W        W36668   5.805  18.671   4.021  0.0329 -0.2325 -0.1085
20860W        W36669  13.479  18.344  11.061 -0.1341  0.0355 -0.1607
20861W        W36670   2.825  15.144   5.501 -0.2442  0.0122  0.0472
20862W        W36671   5.603   2.756   1.846  0.1738  0.0457 -0.3338
20863W        W36672  15.159   6.583  13.314 -0.3353 -0.1766  0.2587
20864W        W36673   0.768   0.823  10.648  0.4626 -0.1691  0.4038
20865W        W36674   9.272  11.217   1.482  0.1191 -0.0395  0.0177
20866W        W36675  10.540  13.739   0.505 -0.1865  0.1968 -0.0488
20867W        W36676   7.919  17.683   2.274  0.0533 -0.3194 -0.1413
20868W        W36677   3.833   6.995   1.576  0.1334  0.0043  0.0415
20869W        W36678   6.865  10.665  10.839 -0.0714  0.1769  0.1995
20870W        W36679  12.124  12.733   3.857 -0.1495 -0.3443  0.1216
20871W        W36680   2.568   3.987   4.553  0.1801 -0.1153  0.1741
20872W        W36681   8.399  10.193   1.148 -0.2201  0.2498 -0.2087
20873W        W36682  15.228   5.035  12.701  0.1406  0.4218  0.1561
20874W        W36683   9.426  16.985  11.281  0.0659 -0.0320  0.2761
20875W        W36684  16.568  13.390   1.988 -0.0369  0.3801  0.1964
20876W        W36685  10.715  14.227  11.040 -0.4075 -0.1264 -0.1805
20877W        W36686  17.684   5.232  14.094 -0.0508  0.0526 -0.5226
20878W        W36687  11.305  10.133  15.184 -0.2146  0.0875 -0.1546
20879W        W36688  19.003   0.058   0.401 -0.2969  0.1225 -0.0990
20880W        W36689   1.958  15.559   2.242 -0.1493  0.0894  0.1056
20881W        W36690   5.778   9.017  13.662 -0.1443 -0.1339  0.0483
20882W        W36691   0.431   1.897   5.626 -0.1881  0.0607  0.0091
20883W        W36692   7.050  14.278   4.138  0.0235  0.1104 -0.0718
20884W        W36693  12.345  12.295  10.928 -0.1528  0.1102  0.3833
20885W        W36694  11.039   5.910   4.314  0.1993  0.2592  0.2877
20886W        W36695  13.184  13.820  14.295 -0.0196  0.2867 -0.1735
20887W        W36696  13.662   2.253  12.584 -0.0256 -0.0798 -0.0290
20888W        W36697   5.229  16.707   2.743 -0.0956  0.2189 -0.0429
20889W        W36698  18.064  12.093   4.679 -0.3098  0.1913 -0.2008
20890W        W36699   2.272  15.080  14.296 -0.2122 -0.1348  0.0126
20891W        W36700   9.932  11.744  12.196 -0.0938  0.3048  0.0584
20892W        W36701   7.477  15.438  12.188  0.2289  0.2085  0.1467
20893W        W36702   3.392   2.957   3.705  0.1120  0.3083 -0.0575
20894W        W36703  14.394   6.836  13.242 -0.1981  0.1321  0.2713
20895W        W36704   4.042   5.121  10.046 -0.0606  0.1882 -0.3661
20896W        W36705  11.490   0.453  10.571 -0.4223 -0.1377 -0.0103
20897W        W36706  15.357  14.503   3.780 -0.2887 -0.0736  0.2079
20898W        W36707  18.438  14.084   1.049  0.2852 -0.2071  0.0147
20899W        W36708   4.602   5.930  11.073 -0.1036  0.0573 -0.2833
20900W        W36709   1.481  10.587   4.976  0.1987  0.0869 -0.1192
20901W        W36710  13.325   8.333   9.881  0.0899  0.2384  0.1410
20902W        W36711   3.198  15.484  12.412  0.0215 -0.2091  0.0897
20903W        W36712  14.176   5.669  14.345  0.0350  0.3010  0.0000
20904W        W36713  11.139   4.544  10.740  0.0056 -0.0241 -0.1317
20905W        W36714  15.868  14.680  12.558  0.1058  0.0918  0.1776
20906W        W36715  12.017   0.384   2.196 -0.2262  0.0165 -0.2809
20907W        W36716  18.830  10.146  13.363 -0.3414 -0.0082 -0.1831
20908W        W36717  16.494  12.962  12.463  0.0103  0.0147 -0.0707
20909W        W36718  19.008  18.829   5.006  0.0220  0.0073 -0.2582
20910W        W36719   1.627  19.088  12.000 -0.2020 -0.1035  0.0137
20911W        W36720  13.118  10.350   4.836  0.0222 -0.3354  0.0359
20912W        W36721  12.962  18.551  13.693 -0.0443  0.0572 -0.3519
20913W        W36722   6.292   4.868  13.800  0.0001 -0.2790 -0.2503
20914W        W36723  18.355   6.170  10.659 -0.1479 -0.1114 -0.1254
20915W        W36724   2.823   4.177  10.370 -0.0768 -0.1412 -0.1124
20916W        W36725   1.516  11.365   2.088 -0.2073  0.0464  0.2616
20917W        W36726  12.607  11.683   0.778  0.0301 -0.1020 -0.0326
20918W        W36727   7.587   5.341   8.989  0.2020  0.1683  0.0315
20919W        W36728  19.003   4.712  11.304 -0.1734  0.1071 -0.0335
20920W        W36729  13.868  15.765  13.920  0.2526  0.2333  0.0775
20921W        W36730  17.158   7.143  12.598 -0.2332 -0.2337 -0.0892
20922W        W36731   5.568   6.513   0.949 -0.1057  0.0598  0.3842
20923W        W36732   4.079   9.516  11.010  0.1284 -0.1980 -0.0904
20924W        W36733   3.697  18.420  11.822 -0.0078 -0.0140 -0.1804
20925W        W36734  10.237  15.074  12.757 -0.0238 -0.0316  0.0717
20926W        W36735  17.758  11.248  10.851 -0.0059 -0.0026  0.0516
20927W        W36736   8.107  13.037   2.322 -0.0638 -0.0694 -0.1149
20928W        W36737   3.713   8.551   4.617 -0.0825 -0.1697  0.0753
20929W        W36738   6.799   3.237   4.765  0.1538 -0.0436 -0.1300
20930W        W36739   5.333  16.398  14.751  0.0761  0.2836 -0.0364
20931W        W36740  17.764   7.336   5.088 -0.1650  0.3317  0.0165
20932W        W36741  16.287   2.371  13.931 -0.2049  0.1889  0.3845
20933W        W36742   5.077  12.012  14.279 -0.1257 -0.2517 -0.1015
20934W        W36743   4.579  15.276  13.402 -0.5028 -0.0077 -0.4516
20935W        W36744   7.656  14.634  14.915 -0.1551  0.0867  0.2949
20936W        W36745   5.074   7.848   5.246 -0.1647 -0.1512  0.0141
20937W        W36746   5.794  10.477  11.296  0.0790 -0.1162 -0.0708
20938W        W36747  16.073   5.445  13.323  0.2248  0.2835 -0.1694
20939W        W36748  13.475  11.339  10.153  0.3474 -0.0580 -0.0050
20940W        W36749  14.988  18.626  10.516 -0.1504  0.1073  0.0094
20941W        W36750   2.554   2.770   9.894  0.0223 -0.0921 -0.2007
20942W        W36751   3.570   4.169   2.521  0.2599  0.0136 -0.0800
20943W        W36752   1.574  12.679  12.746 -0.1519  0.3383  0.0770
20944W        W36753   8.715   9.510   4.501 -0.2064  0.1600 -0.0423
20945W        W36754  13.207   9.103  14.368  0.1829  0.0886 -0.0414
20946W        W36755  11.132  14.911   1.719  0.0257 -0.2554  0.1766
20947W        W36756   2.006   9.582  10.038  0.0529  0.0249  0.1784
20948W        W36757   2.401   7.020   5.401 -0.0929 -0.1877 -0.1805
20949W        W36758  17.904  10.453  13.622 -0.1835 -0.1752  0.1794
20950W        W36759  11.482   5.485   0.820  0.1768 -0.3361  0.0997
20951W        W36760  12.537   3.106  12.600 -0.3297  0.0972  0.1718
20952W        W36761   2.657   6.493  12.112 -0.1613 -0.1583 -0.1031
20953W        W36762   2.720   8.424   2.501  0.1118  0.0590  0.3659
20954W        W36763  15.598   7.868  14.543 -0.3859  0.2249  0.3036
20955W        W36764   1.219   9.502  11.895  0.2822  0.2309  0.3358
20956W        W36765  17.536   6.335   0.998  0.0503  0.1580  0.3715
20957W        W36766   0.877  11.886   1.915  0.0996 -0.4437 -0.0848
20958W        W36767  12.591  12.728   5.711  0.0703  0.2243  0.1303
20959W        W36768   9.377  17.954   4.559 -0.1090  0.1413  0.2150
20960W        W36769  17.161   5.357  14.258 -0.4335  0.1424 -0.1458
20961W        W36770  13.618  13.835   6.539 -0.2121 -0.0532  0.0498
20962W        W36771  17.882  15.536   2.657 -0.2751  0.0497  0.0040
20963W        W36772  12.738   9.442  10.588  0.5664 -0.1022  0.2273
20964W        W36773   4.848  13.079  13.836  0.1445 -0.0750  0.0899
20965W        W36774  14.262  17.194  15.099 -0.0381  0.0736 -0.0306
20966W        W36775   1.138  10.227  10.925  0.1675  0.1684 -0.6184
20967W        W36776  11.830  18.864  13.015 -0.0802 -0.3632  0.1536
20968W        W36777   0.171   9.263   4.176  0.1481 -0.0766  0.0508
20969W        W36778   3.646  11.486   0.655 -0.2063 -0.2210  0.3090
20970W        W36779   1.775   1.763  12.214  0.0694 -0.1160 -0.0578
20971W        W36780   1.641   7.193  12.653 -0.2099  0.2189 -0.1676
20972W        W36781   9.343   6.466  10.656 -0.0141 -0.3586  0.1343
20973W        W36782  15.248   7.489   3.719 -0.2977 -0.1685 -0.1590
20974W        W36783  12.170  18.138  13.987  0.3684 -0.0819  0.1855
20975W        W36784  18.696  15.552   2.969  0.3501 -0.0937  0.3366
20976W        W36785  10.536   4.013   1.515  0.0563 -0.0999 -0.1077
20977W        W36786   0.692  10.927   4.476 -0.0046  0.1121  0.0043
20978W        W36787   6.579  18.650   0.372 -0.1354  0.2552  0.2300
20979W        W36788  13.439  10.942   2.338 -0.2348  0.1093 -0.1265
20980W        W36789  15.876  18.175   2.687 -0.0336  0.0791  0.0049
20981W        W36790   6.297   0.528   2.543  0.2591 -0.3593  0.6006
20982W        W36791  12.179  14.941  12.645  0.4758  0.2887  0.1833
20983W        W36792  18.922  10.152  11.656 -0.0878 -0.1904 -0.2894
20984W        W36793   1.911   4.988  14.005 -0.0020  0.0353 -0.1094
20985W        W36794  18.889  10.369  14.529  0.1021 -0.2054  0.0058
20986W        W36795  12.026  17.021  10.006 -0.2299 -0.3888 -0.0606
20987W        W36796   4.457   2.276  14.874  0.2444 -0.1319  0.3345
20988W        W36797   0.030  12.386  11.038 -0.0928  0.2003  0.1903
20989W        W36798   3.782  15.067   4.579  0.1156 -0.0596  0.2291
20990W        W36799  14.888  10.702   0.802  0.2294  0.2112 -0.3775
20991W        W36800   0.303  12.445   0.026  0.2554  0.0300  0.0371
20992W        W36801   5.997   4.310  13.192 -0.0609 -0.0096 -0.0289
20993W        W36802   7.084   5.608   3.732 -0.0147 -0.1966 -0.1589
20994W        W36803   6.476   9.302   2.309  0.0766  0.0852 -0.1019
20995W        W36804  12.622   9.943  13.150  0.2257  0.0686 -0.4638
20996W        W36805   8.555  15.411  11.576 -0.0379 -0.0936 -0.1898
20997W        W36806   9.334  14.842   4.339 -0.2111 -0.0250  0.2971
20998W        W36807  15.247   4.347  11.764 -0.4126  0.1985 -0.0781
20999W        W36808  16.869   6.497   3.310 -0.0959  0.0225 -0.0482
21000W        W36809   5.387   9.725   5.181 -0.3549 -0.1378 -0.0521
21001W        W36810  12.417   4.641  10.496 -0.0914 -0.0958  0.3293
21002W        W36811   3.174  10.033  12.561  0.0906 -0.0841 -0.0091
21003W        W36812  17.961  18.596  11.987  0.0709  0.0568 -0.1103
21004W        W36813  18.007  11.128  12.858 -0.1984  0.0186  0.4175
21005W        W36814  11.376   3.487   0.779 -0.1275 -0.2870 -0.2637
21006W        W36815   3.585  14.085  10.721 -0.3094 -0.2259  0.0162
21007W        W36816  15.646  10.264   0.802 -0.0340  0.5881 -0.1254
21008W        W36817   6.251   3.829   1.879  0.1974  0.3094  0.1810
21009W        W36818  11.734   8.600  10.763  0.3324  0.0399 -0.0081
21010W        W36819   9.812   0.301   2.750  0.0589  0.0476 -0.1374
21011W        W36820  16.462   1.886   1.540  0.0040  0.0202  0.2410
21012W        W36821  16.179   1.734  10.628 -0.2355  0.1172 -0.0862
21013W        W36822   0.713  13.050   3.629 -0.4785  0.1178 -0.0155
21014W        W36823   6.113   0.853   1.627 -0.3665  0.0697  0.1390
21015W        W36824  11.854  10.049  14.672  0.0369 -0.0754  0.0987
21016W        W36825  18.204   6.180  12.948  0.2916  0.1676 -0.2122
21017W        W36826  17.242   4.333  13.273 -0.2020 -0.1675 -0.0972
21018W        W36827  15.901   8.946   4.912  0.0169  0.0303  0.0640
21019W        W36828   0.188   1.889   3.942  0.1310 -0.0795  0.3349
21020W        W36829   1.997  14.170  13.475 -0.0035 -0.0586  0.1676
21021W        W36830  12.365  19.150   1.001 -0.0931  0.2388  0.1062
21022W        W36831   2.856  14.481  11.920 -0.4719  0.3414 -0.2317
21023W        W36832  14.497  12.915   2.035 -0.0185 -0.0804  0.3898
21024W        W36833   3.620  18.738   1.747  0.1403  0.0971 -0.1665
21025W        W36834  19.033   8.563  11.502  0.0197  0.0237  0.0352
21026W        W36835   0.479   1.802  10.818  0.1091  0.0669 -0.0897
21027W        W36836   0.624   4.246  13.676  0.0225 -0.0744 -0.0339
21028W        W36837   9.947   3.109  11.179  0.1964  0.2456 -0.1419
21029W        W36838  14.378  15.510   3.859 -0.2905  0.1031  0.5109
21030W        W36839   2.716   7.086  14.951 -0.0663 -0.0736  0.1368
21031W        W36840  18.325   7.607   1.301 -0.0600 -0.1885  0.1785
21032W        W36841   5.486  12.010   3.347 -0.0828  0.2262 -0.1218
21033W        W36842   3.167  13.808  12.265 -0.1163 -0.2353 -0.0143
21034W        W36843   3.953  11.468  13.621  0.1706 -0.1288 -0.1899
21035W        W36844   5.387   6.209  14.388  0.2872  0.1623  0.2009
21036W        W36845   2.548  15.551   3.965 -0.1370  0.1276 -0.1653
21037W        W36846   6.301  10.728  11.540 -0.2581  0.3769  0.0334
21038W        W36847   2.938   9.439   0.811  0.2914 -0.1243  0.1465
21039W        W36848   6.450   8.636  12.424  0.1880  0.0803 -0.0217
21040W        W36849   0.973  18.247   2.206 -0.0328 -0.1780 -0.1570
21041W        W36850  15.284   6.486   4.389  0.0887 -0.2449  0.0753
21042W        W36851   8.860  13.718  13.753  0.0997  0.0579  0.1497
21043W        W36852  16.219  18.327  14.106 -0.0268 -0.0701 -0.0172
21044W        W36853  18.697   9.553   4.000  0.3339 -0.0367 -0.0856
21045W        W36854   6.035  10.084   0.016 -0.2305  0.2363 -0.1041
21046W        W36855  14.892   3.366   2.150  0.3104  0.3450 -0.1668
21047W        W36856   1.287  13.364  14.259 -0.1455 -0.2395 -0.0997
21048W        W36857  12.612   0.876   0.336  0.3076 -0.0927  0.1481
21049W        W36858  18.107   3.543   0.042 -0.0218  0.5537 -0.0725
21050W        W36859   9.856  14.575   0.520  0.1897 -0.1598  0.0519
21051W        W36860   1.778  15.136   0.152  0.1303 -0.2297 -0.0057
21052W        W36861   1.727  14.225   4.601  0.0056 -0.2810 -0.0569
21053W        W36862   7.180   4.224  12.113 -0.2947 -0.2472  0.0140
21054W        W36863   9.034  10.756  13.769 -0.0144  0.1674  0.1438
21055W        W36864  16.968  18.169   1.259 -0.0501 -0.0218  0.1056
21056W        W36865  15.021  15.904   4.671  0.0053  0.0656 -0.1993
21057W        W36866   1.681   4.805  12.301  0.0023 -0.2519 -0.1482
21058W        W36867  12.987  10.708   9.903 -0.3757  0.1804  0.0714
21059W        W36868   5.251  14.698  11.753  0.0502 -0.4085  0.0340
21060W        W36869  16.041  10.403   0.476 -0.1691  0.2248 -0.3366
21061W        W36870   9.265  18.347   9.962 -0.2035  0.0395  0.0845
21062W        W36871   0.744   2.002  14.374 -0.1014 -0.1104  0.0932
21063W        W36872  16.340  12.821  14.994 -0.3024  0.1314  0.4293
21064W        W36873  18.563  17.056  14.952  0.0041 -0.1545 -0.2674
21065W        W36874   0.915  15.049  11.920 -0.1530 -0.0323 -0.1912
21066W        W36875  10.081   8.127   2.638  0.0708 -0.1109 -0.1528
21067W        W36876  14.199   8.159   1.303 -0.3746  0.2115  0.1484
21068W        W36877   5.991   5.813  13.726  0.0201 -0.2551  0.2389
21069W        W36878  13.580  16.064   4.375 -0.0368  0.0531 -0.1229
21070W        W36879  16.207   7.218  11.763 -0.1718 -0.1501  0.0337
21071W        W36880  12.341   1.239  12.048 -0.2063  0.0403  0.1506
21072W        W36881  10.428   5.120   4.632 -0.2175 -0.0107  0.1518
21073W        W36882   4.731   5.054  12.576  0.3150 -0.2258  0.0899
21074W        W36883  10.473   3.196   0.826  0.2972 -0.0255  0.0646
21075W        W36884   6.800  15.071   1.200 -0.2326 -0.0400  0.2067
21076W        W36885   7.171  18.760   1.274 -0.1467 -0.4271  0.0150
21077W        W36886  11.973  15.152  14.475 -0.1809 -0.1448  0.0835
21078W        W36887  18.943  16.582  10.370  0.0104 -0.1430  0.1043
21079W        W36888  12.188  17.607  12.930  0.1526  0.4785  0.1509
21080W        W36889   4.960   9.510  13.180  0.0123 -0.0213  0.1085
21081W        W36890  13.636  17.908   1.655 -0.0774  0.6214 -0.0532
21082W        W36891  17.360   3.566  12.624 -0.3219 -0.2257 -0.1187
21083W        W36892  15.588   0.769   5.233  0.0395  0.0047  0.3296
21084W        W36893  11.209  10.803  12.365 -0.0118 -0.0978 -0.0779
21085W        W36894  17.313  16.101   4.410  0.0174  0.0146  0.0746
21086W        W36895   3.234  10.099   3.829  0.0036  0.2306 -0.0689
21087W        W36896   2.111  13.195  13.999  0.1165 -0.1488 -0.0541
21088W        W36897   0.624   1.609  10.269 -0.0713 -0.0608  0.1466
21089W        W36898   8.605   2.210  14.872 -0.0027  0.5538  0.2061
21090W        W36899   5.651   9.917   4.224 -0.2030 -0.2001 -0.2755
21091W        W36900  18.528  13.399  13.954  0.0295 -0.3170 -0.4585
21092W        W36901   4.698   6.847   9.895  0.4113  0.2010 -0.2147
21093W        W36902  16.550   9.253   2.419 -0.0147 -0.2603  0.0297
21094W        W36903  17.948   0.779  14.226 -0.1474  0.0757  0.3892
21095W        W36904  15.487  11.439   2.940 -0.1289 -0.0663 -0.1423
21096W        W36905  17.377  14.733  10.770 -0.2128  0.0531  0.3192
21097W        W36906  13.584   1.809   0.622  0.2471  0.2223  0.1308
21098W        W36907   2.682   4.969   3.441  0.3201 -0.2577  0.1385
21099W        W36908   7.792   7.645   3.120  0.0769  0.0022 -0.0484
21100W        W36909  18.457   4.730  12.980 -0.1957 -0.1511 -0.1151
21101W        W36910   4.899   0.597  10.718  0.1411  0.0269  0.2062
21102W        W36911   6.223   9.845   4.377 -0.0401 -0.2640  0.5101
21103W        W36912   4.951   9.236  11.124  0.0672  0.0742  0.0642
21104W        W36913  16.413  17.435   5.635  0.0413  0.0465  0.2328
21105W        W36914  16.255   3.909  12.627  0.2701 -0.0802  0.1278
21106W        W36915  16.440  18.529   3.784 -0.0329  0.1422  0.0449
21107W        W36916   3.446   3.380  11.428 -0.0134  0.0064  0.3139
21108W        W36917   1.714   0.496   5.217 -0.0032  0.0835 -0.1651
21109W        W36918  15.935  16.343  12.722  0.1263 -0.2130  0.0878
21110W        W36919  12.656  11.333   0.326  0.0370  0.0097 -0.0450
21111W        W36920   0.165  13.105   2.346 -0.1125  0.1795 -0.0360
21112W        W36921   6.432   8.582   3.507  0.1578  0.1197 -0.0958
21113W        W36922   2.084  18.033  11.278  0.1400 -0.2481 -0.0600
21114W        W36923   8.428  13.898  13.871 -0.0611  0.3719  0.2290
21115W        W36924  15.129  10.710  12.580 -0.0263 -0.1515 -0.1750
21116W        W36925   2.454  14.678   1.657 -0.0537  0.3231 -0.1466
21117W        W36926  12.434  10.977  11.783 -0.1213  0.1431  0.2265
21118W        W36927   7.721   4.545   0.571  0.0222  0.4215  0.0044
21119W        W36928  10.053  14.645   3.516 -0.0592  0.2030 -0.0370
21120W        W36929  18.685   7.163   4.079 -0.0599  0.0332 -0.4019
21121W        W36930  18.625   8.921   9.809 -0.0224  0.0929  0.0445
21122W        W36931  11.386   2.415   5.151  0.0854  0.1845 -0.2068
21123W        W36932   0.069  18.729  10.734 -0.0714  0.0845 -0.0550
21124W        W36933  14.373   9.224   5.947  0.0119  0.0434 -0.1693
21125W        W36934  10.400   9.316   5.154 -0.0742 -0.2924 -0.1757
21126W        W36935   2.297   2.627   1.126  0.0317  0.2309  0.0945
21127W        W36936  15.909   7.283   9.969  0.1221  0.0885 -0.0004
21128W        W36937   4.003   8.675   4.154 -0.1085 -0.2615  0.0834
21129W        W36938   9.197  13.002  11.651  0.1179  0.0973 -0.0268
21130W        W36939   7.788  13.367   0.127 -0.1704  0.0469 -0.0244
21131W        W36940   9.296   5.207  13.961  0.1111  0.1681  0.2850
21132W        W36941   8.097  18.542  13.184 -0.5778 -0.3012  0.2334
21133W        W36942   4.465   5.217   3.344 -0.0261 -0.0903 -0.1876
21134W        W36943   5.364  10.009   3.350  0.0671 -0.1419  0.1156
21135W        W36944   8.502  18.059   0.044  0.0573  0.2708 -0.1235
21136W        W36945  14.138   9.016   5.555 -0.0188  0.0614  0.2467
21137W        W36946  18.128  15.596  11.068  0.0705 -0.1715 -0.1317
21138W        W36947   3.108   0.574   1.927  0.2258 -0.0743  0.0701
21139W        W36948   9.931   2.360  14.861  0.0568  0.3102  0.1401
21140W        W36949  17.607  12.003   3.272  0.4134  0.1770 -0.3659
21141W        W36950   3.702  17.144   1.768  0.0341  0.1237  0.1667
21142W        W36951  19.008  11.990   2.127 -0.0286 -0.1705  0.2824
21143W        W36952   0.145   9.888  11.862 -0.3197  0.0595  0.1148
21144W        W36953  12.415   5.394   4.714 -0.0220 -0.0435 -0.1183
21145W        W36954   8.114   0.919   0.853 -0.1739  0.2680  0.4492
21146W        W36955  17.801   6.749  11.977 -0.3975 -0.1994  0.0253
21147W        W36956  14.015  10.532   1.784  0.0770 -0.4209 -0.2797
21148W        W36957  17.869   4.284  11.285 -0.3278 -0.1328 -0.1570
21149W        W36958  14.982  16.769  14.472  0.0436  0.1691 -0.1155
21150W        W36959  10.139  16.895  13.296  0.0261 -0.1849 -0.2195
21151W        W36960   2.908  13.535   2.624  0.1854 -0.3338  0.1389
21152W        W36961  11.458  15.167  11.676  0.0584  0.2847 -0.3522
21153W        W36962  17.761  15.680  12.758 -0.1780  0.1665 -0.2455
21154W        W36963  18.153  15.886   5.073  0.2092  0.1124  0.3694
21155W        W36964   8.562   5.740   1.585  0.1388  0.0030  0.1705
21156W        W36965  15.240   7.170  10.668  0.4317  0.0937  0.1669
21157W        W36966  13.579  12.776   2.605 -0.0263 -0.0096 -0.1594
21158W        W36967  14.811  13.332   4.028 -0.2534 -0.0859  0.2519
21159W        W36968   8.744  13.878  10.402  0.0305  0.1564 -0.0586
21160W        W36969  10.938  10.410  11.370  0.1349  0.1530 -0.0220
21161W        W36970   0.050   8.676   1.642  0.1104 -0.1988  0.0296
21162W        W36971  18.687   3.183   3.846 -0.1701  0.2513  0.1059
21163W        W36972   6.363   0.288  12.183  0.2066  0.0026  0.3677
21164W        W36973  16.836   0.208  13.491 -0.0360  0.0940  0.1735
21165W        W36974  11.631  15.272   0.513  0.0406  0.0192  0.1977
21166W        W36975   4.656   5.456  10.988  0.2085  0.1850 -0.3419
21167W        W36976   1.316   6.330   4.671  0.2586  0.2594 -0.1999
21168W        W36977  13.889  16.196   3.941  0.0472  0.1453  0.0660
21169W        W36978  10.652  19.080   2.620 -0.0264 -0.3171 -0.1016
21170W        W36979   5.893   9.647   0.201 -0.0242 -0.2794  0.0191
21171W        W36980   3.643   1.327   3.580 -0.4752  0.0126 -0.0280
21172W        W36981   4.310   0.122  10.212 -0.1124 -0.0137 -0.3187
21173W        W36982   6.439  17.157   1.595 -0.1087 -0.1690 -0.2533
21174W        W36983   9.774   3.417  13.400 -0.0779  0.3416  0.1422
21175W        W36984  16.911   8.729   0.828  0.1969 -0.2307 -0.0457
21176W        W36985   3.325   8.460   2.791  0.0261  0.1551 -0.0672
21177W        W36986   2.828  11.155   3.791 -0.3284 -0.0057  0.2880
21178W        W36987   9.625   1.156  15.014 -0.0991  0.1523 -0.0025
21179W        W36988   1.264  16.267  13.474  0.4264  0.0190  0.2046
21180W        W36989   5.764  15.702   3.846  0.1146 -0.1732  0.2515
21181W        W36990  13.928  11.428   4.775 -0.2278 -0.2861  0.0062
21182W        W36991   3.884  15.515  10.052 -0.3043  0.0146  0.0655
21183W        W36992   8.513  10.491  14.979 -0.2413 -0.2279  0.1420
21184W        W36993   1.722  13.233   3.131  0.1343 -0.4228  0.0930
21185W        W36994   7.381   7.519   2.442  0.2398  0.0809  0.0026
21186W        W36995  13.473   7.058  13.154 -0.0366 -0.3575  0.0491
21187W        W36996  16.274  10.188  10.731 -0.4283  0.1710 -0.2066
21188W        W36997   8.054   4.770   0.835 -0.0495  0.1221 -0.1699
21189W        W36998   0.539   9.505   1.478  0.0446 -0.1116  0.3025
21190W        W36999   0.559   1.886   4.441  0.1707  0.2358 -0.3303
21191W        W37000   6.180   1.442  10.590 -0.3866  0.1758 -0.0009
21192W        W37001   6.301   8.159  11.911 -0.1002 -0.1544 -0.0804
21193W        W37002   9.587   5.554   4.756  0.0402  0.1500  0.0165
21194W        W37003   8.822  11.733   4.221 -0.1423 -0.0162  0.0327
21195W        W37004  17.548   2.371   0.075 -0.2670 -0.2105  0.2414
21196W        W37005   6.265  17.202  11.231 -0.1394  0.0192 -0.0456
21197W        W37006  15.403   5.693  11.206 -0.1503  0.0498  0.1210
21198W        W37007   0.279  15.965  11.023  0.1732  0.3559 -0.1643
21199W        W37008  17.832  17.741   1.859  0.3639 -0.1940  0.1943
21200W        W37009  18.604   7.005   5.472  0.0151 -0.1034 -0.2472
21201W        W37010   9.737  10.789   0.295  0.2433 -0.1839  0.0334
21202W        W37011   5.054  11.317   1.521 -0.0847 -0.2289  0.2684
21203W        W37012  13.459  11.289   0.717  0.1018  0.1257  0.1151
21204W        W37013  10.124   9.309   0.412 -0.1722  0.4000  0.0145
21205W        W37014   4.386  16.526   1.489  0.2475  0.0488 -0.3157
21206W        W37015   1.319  11.654  13.392  0.2689  0.0321 -0.1596
21207W        W37016  12.967   0.798   9.736  0.0342 -0.0267  0.1035
21208W        W37017  10.680  19.068   3.256 -0.0725  0.0658  0.2548
21209W        W37018   3.581  13.023   2.773 -0.3101 -0.2198 -0.0082
21210W        W37019   1.504   8.662  11.393  0.1330  0.3373 -0.0864
21211W        W37020   5.137   8.824   2.400  0.0931  0.2040  0.1026
21212W        W37021   1.842   7.717  12.214  0.1575 -0.2938 -0.0657
21213W        W37022  11.972  13.629  12.811  0.4453 -0.0412  0.0779
21214W        W37023  14.928   9.619  13.211 -0.1517 -0.2570 -0.0272
21215W        W37024  13.027  14.909  12.413 -0.1963 -0.1857 -0.0021
21216W        W37025  17.505  11.690   2.348  0.2591  0.0328  0.0715
21217W        W37026  13.738  11.992  12.825  0.0109  0.0981 -0.1095
21218W        W37027  17.848   6.142   0.200  0.3726  0.2605 -0.1025
21219W        W37028  13.359  13.694  12.970 -0.0427  0.2627 -0.0172
21220W        W37029   2.258   9.642  14.466  0.0185 -0.0637 -0.1711
21221W        W37030  13.102  19.040   1.627 -0.0844 -0.0178  0.1047
21222W        W37031  17.748  15.384  13.560 -0.1249  0.1201  0.2658
21223W        W37032   9.735   6.276   3.899  0.3774 -0.1003  0.0684
21224W        W37033   8.401  10.911   1.953 -0.0550 -0.0533  0.3150
21225W        W37034   3.239   5.956  10.704 -0.0436  0.2396  0.0959
21226W        W37035   8.898  11.341  14.412 -0.1560  0.0529  0.3920
21227W        W37036   3.153  18.692  12.331  0.1669 -0.0304  0.3864
21228W        W37037  14.561   9.106  10.444 -0.1181 -0.2836 -0.1823
21229W        W37038   7.130   6.506  12.200 -0.2656  0.0565  0.2529
21230W        W37039  15.407  11.011   1.458  0.0339 -0.1015  0.1021
21231W        W37040  18.938  15.999   4.833  0.1700  0.0649  0.0087
21232W        W37041  16.661  11.404  12.117  0.0942  0.2206  0.1881
21233W        W37042   0.073   7.517   1.443 -0.0350 -0.0343 -0.2722
21234W        W37043   2.060   3.807   4.479 -0.3473  0.1318 -0.0511
21235W        W37044   3.280  10.629   2.203 -0.0198 -0.0987  0.0071
21236W        W37045  12.148   0.597   4.544  0.0554 -0.4243 -0.0535
21237W        W37046  13.268  15.047   3.993 -0.1860  0.1105  0.2679
21238W        W37047  15.994  16.321  11.541 -0.0415  0.1197  0.2543
21239W        W37048   1.147   1.826  11.513 -0.2959  0.0926  0.0057
21240W        W37049   1.553  11.247  10.164  0.4131 -0.0387  0.3659
21241W        W37050  18.485   1.331   2.395  0.0913  0.0730 -0.2105
21242W        W37051  16.659   7.315   5.185 -0.0739 -0.0165  0.3241
21243W        W37052  19.046   2.381   1.391 -0.1574 -0.2391  0.1875
21244W        W37053   0.037   4.472   0.639  0.1136 -0.3020 -0.1512
21245W        W37054  13.317   9.567  14.558  0.3038 -0.0316 -0.4391
21246W        W37055   2.196   0.166   1.525  0.0643  0.2290  0.1144
21247W        W37056  17.731   5.002   5.038  0.1244 -0.0427 -0.0629
21248W        W37057  18.787  13.242   2.940  0.1880  0.4355  0.0182
21249W        W37058   3.722   5.752   1.053 -0.2091 -0.2852  0.3401
21250W        W37059  11.063  16.061  12.702 -0.2205  0.0974 -0.1051
21251W        W37060  10.140   7.507   0.741 -0.2827  0.2174 -0.2068
21252W        W37061  10.150   1.762  10.976 -0.1816  0.1181  0.1341
21253W        W37062   1.829  10.475   1.093  0.1702  0.3545 -0.2154
21254W        W37063   3.676   6.499   3.824 -0.1672  0.0290  0.0244
21255W        W37064   2.938  10.097  14.114  0.1782 -0.0197  0.2133
21256W        W37065  10.642   0.502  11.725  0.1492  0.0638 -0.2474
21257W        W37066  14.822   3.631   2.653  0.4834 -0.2105 -0.0443
21258W        W37067  17.872  12.642   3.776  0.4188 -0.0805  0.0038
21259W        W37068  14.087   4.801   1.543 -0.2516  0.0085  0.0833
21260W        W37069  14.911   0.242  14.537  0.1235 -0.0507 -0.2170
21261W        W37070  12.309  10.066   4.560 -0.2509  0.1823 -0.1025
21262W        W37071  13.500   4.575   3.952 -0.1428 -0.1253  0.1400
21263W        W37072  11.179   3.933   3.298  0.0074  0.0838  0.3850
21264W        W37073  13.282  18.246   2.058 -0.1300  0.0198  0.0486
21265W        W37074  14.275   9.912  14.456 -0.0730  0.0059  0.4450
21266W        W37075   0.899   4.358   0.531 -0.0465 -0.1574  0.1845
21267W        W37076   4.253  16.873  14.780 -0.0794  0.0842 -0.0808
21268W        W37077  13.102  16.206   1.321 -0.1511  0.0370  0.1680
21269W        W37078  18.632   4.124   0.768  0.0735  0.2302  0.1555
21270W        W37079  16.812  15.636  10.733 -0.2489 -0.2081 -0.0913
21271W        W37080  18.877   3.598   2.506  0.0936  0.3706  0.1923
21272W        W37081   0.844  16.659   2.282 -0.1147  0.0042 -0.1958
21273W        W37082   3.836   9.273  14.237 -0.1681 -0.0040 -0.3774
21274W        W37083  11.574  10.318  10.150 -0.2538  0.1925  0.1492
21275W        W37084   3.043  10.336  12.139  0.1287  0.1340 -0.0406
21276W        W37085  13.464   1.333  14.741 -0.0657  0.1921  0.1613
21277W        W37086   5.470  15.300   9.702 -0.3176  0.3053 -0.1362
21278W        W37087   5.014  14.878  11.307  0.1150  0.1566  0.0529
21279W        W37088  17.325  13.457   1.625  0.2335  0.2525 -0.3261
21280W        W37089  11.122   5.578  11.691  0.3929  0.0283  0.0934
21281W        W37090  16.247   6.976  14.179  0.0799  0.1652 -0.2234
21282W        W37091  14.992  12.763   6.061 -0.1982  0.1708  0.0867
21283W        W37092   3.150  14.467  12.722 -0.0892  0.0519 -0.4367
21284W        W37093  16.878  10.147   9.950 -0.1709 -0.0043  0.0931
21285W        W37094   2.878  13.959  13.322  0.3174 -0.1419  0.1139
21286W        W37095  17.428  16.893   1.439 -0.0647 -0.1831 -0.1138
21287W        W37096  17.115   2.233   5.536 -0.4462  0.4526  0.2102
21288W        W37097  17.103  17.439  12.315  0.2328  0.1651 -0.0106
21289W        W37098  12.024  15.710  13.257 -0.2118 -0.1031  0.1694
21290W        W37099   6.943   7.040  12.739 -0.0867 -0.0831  0.2783
21291W        W37100   3.336   0.540   4.949 -0.4424  0.0469  0.3339
21292W        W37101   3.490  14.900  12.897 -0.0591 -0.2176  0.0317
21293W        W37102  17.911   7.947   2.144  0.0027  0.1108  0.1032
21294W        W37103  13.984  15.819   5.945 -0.0772  0.2244 -0.0867
21295W        W37104   4.646  15.937  13.592 -0.0302 -0.0719  0.3300
21296W        W37105   1.495  11.483   0.643  0.0108 -0.1352  0.0110
21297W        W37106   2.458  12.230   9.649  0.0417 -0.0680 -0.1378
21298W        W37107  15.777  18.275   3.688 -0.1309  0.0728 -0.1484
21299W        W37108  14.498   0.048   4.969  0.0226 -0.4711  0.0484
21300W        W37109   0.150  11.607   2.330  0.4026  0.0709  0.0024
21301W        W37110   5.017   5.801  13.723  0.1645  0.3846  0.2035
21302W        W37111   8.744  16.116   4.655  0.0795 -0.1401  0.1627
21303W        W37112   7.445   7.973   3.384  0.1879 -0.2797  0.0965
21304W        W37113  18.394   3.674   1.658 -0.1503 -0.0093 -0.3073
21305W        W37114  18.289  16.424   1.181 -0.3095  0.1989  0.0175
21306W        W37115   6.293  12.283   4.332 -0.2259  0.0628  0.1595
21307W        W37116  15.632  16.574   1.467 -0.1328 -0.0426  0.3181
21308W        W37117   0.205  10.329  11.663  0.1451 -0.0176 -0.1828
21309W        W37118   8.307  10.683   3.386  0.2550  0.2601 -0.0681
21310W        W37119   6.320  18.423   5.047 -0.2094 -0.1273  0.2700
21311W        W37120   1.049   3.346  14.837  0.0862 -0.0083 -0.2126
21312W        W37121   2.980  17.255   4.722  0.2766  0.1146  0.2456
21313W        W37122   4.728  18.642   2.606  0.1018 -0.0680 -0.0180
21314W        W37123   7.616   4.545  14.297  0.1435  0.0612 -0.1826
21315W        W37124  14.120  17.035   5.388  0.0900 -0.1076  0.1117
21316W        W37125  14.149   7.400   2.479 -0.3339 -0.0756 -0.0985
21317W        W37126  17.850  10.647   3.401  0.1284  0.0615 -0.0564
21318W        W37127  10.562   0.433   2.177 -0.0812 -0.3101 -0.0525
21319W        W37128  13.804   5.972  10.679 -0.3060  0.1179  0.0989
21320W        W37129   9.519   6.749  11.867  0.1662 -0.0562 -0.0061
21321W        W37130  12.804  12.502   2.892 -0.0178  0.0736 -0.1765
21322W        W37131   4.940   0.497   1.374 -0.0054 -0.2430 -0.2069
21323W        W37132  11.228   1.267  13.671  0.0672  0.0418 -0.2894
21324W        W37133   7.200  18.658  12.249  0.2181 -0.0339  0.1213
21325W        W37134   6.315  11.517   5.764  0.0536 -0.1818  0.3025
21326W        W37135  16.265   4.734   0.403  0.0590 -0.0899 -0.0105
21327W        W37136   8.711   5.221  10.036  0.1043  0.3726  0.0328
21328W        W37137   1.807   1.866  14.057  0.2226  0.1914 -0.1537
21329W        W37138  10.134  10.923   3.987  0.0680  0.2479 -0.0196
21330W        W37139  16.348  14.733  14.337 -0.2472 -0.1326 -0.0883
21331W        W37140   9.950  11.783   4.189  0.1516 -0.1121 -0.1295
21332W        W37141   6.074   4.409   1.653  0.5117  0.1911  0.1430
21333W        W37142  11.764  18.883   1.148 -0.1712 -0.0558  0.3063
21334W        W37143   9.387  17.709   5.062 -0.2133 -0.0011 -0.0748
21335W        W37144   8.284  13.539  10.548 -0.0377 -0.2408 -0.0008
21336W        W37145   5.570  14.692   3.403 -0.0347 -0.1256  0.1140
21337W        W37146   2.656  13.169   2.419  0.1005  0.1889  0.0213
21338W        W37147   1.770   9.684   2.883 -0.2572 -0.3114  0.0080
21339W        W37148   9.990   7.933   1.683 -0.0682  0.3092  0.0524
21340W        W37149  17.950  16.584   2.175 -0.0742  0.1269 -0.0599
21341W        W37150   7.204  15.061   2.504 -0.3038 -0.0493  0.1973
21342W        W37151   1.479  13.775   4.878  0.1448 -0.0383 -0.3388
21343W        W37152   3.985   6.490  10.611  0.1413  0.0549  0.1017
21344W        W37153   9.491   3.263   4.577  0.1408  0.0551  0.0120
21345W        W37154  11.151   0.680   3.764 -0.1110  0.0069  0.0372
21346W        W37155   2.814  16.469  12.466  0.1979  0.0280  0.0296
21347W        W37156  12.454  13.884  10.625 -0.0726  0.1437  0.1567
21348W        W37157  14.035   1.517  10.955 -0.2249 -0.1594 -0.0937
21349W        W37158  17.467   7.884  14.994 -0.0394 -0.2268  0.2905
21350W        W37159  13.521  16.196   0.986 -0.0531  0.0142 -0.1932
21351W        W37160  18.768  18.841  11.582  0.1985 -0.1152  0.3648
21352W        W37161   6.649  12.393  12.697  0.1163  0.3212 -0.0796
21353W        W37162   1.674   6.407  14.855  0.2747 -0.0967 -0.2538
21354W        W37163  10.580   7.028   0.334  0.1589  0.1535 -0.0261
21355W        W37164  13.070  13.571  13.784  0.2441  0.2113 -0.0973
21356W        W37165   4.065   0.271   0.857 -0.2468  0.3910 -0.1444
21357W        W37166  12.176   4.283  13.656 -0.0210 -0.2963 -0.3508
21358W        W37167   3.438  16.457  12.333  0.0850  0.0124 -0.0020
21359W        W37168   8.146  17.840  13.688  0.0212  0.0907 -0.0028
21360W        W37169   0.127  19.078  12.804 -0.1624  0.0291  0.1600
21361W        W37170   3.898  16.885   0.477  0.0924  0.1998  0.4536
21362W        W37171  10.036  16.023   0.824  0.2839 -0.3456 -0.1790
21363W        W37172  18.598   6.275   3.843  0.0920 -0.0502 -0.1952
21364W        W37173  15.224  12.973   2.602  0.2608  0.0598 -0.1085
21365W        W37174   4.364   9.079   0.889  0.3072  0.2463  0.3036
21366W        W37175  10.008  14.833  14.263 -0.4923 -0.1185 -0.1069
21367W        W37176   8.669   4.408  11.173  0.0674  0.0771  0.0643
21368W        W37177   1.655   3.839  12.955  0.0227  0.0064 -0.2624
21369W        W37178  18.770  13.314  12.610  0.0683  0.0174 -0.0363
21370W        W37179   9.327  16.305  13.681 -0.3401 -0.3315  0.1252
21371W        W37180   7.006  17.151  13.827  0.1213  0.1952  0.3843
21372W        W37181   8.859  12.903  14.356  0.1332  0.4451 -0.1336
21373W        W37182  11.208   4.790  12.295  0.4040 -0.0465  0.1189
21374W        W37183  14.442  11.634  13.866 -0.1319 -0.1505  0.0301
21375W        W37184  16.874  18.379  10.981 -0.1962 -0.4071  0.4988
21376W        W37185   8.732   1.379  13.648 -0.1634  0.4274  0.0420
21377W        W37186  14.930  11.511   1.780  0.3389  0.0653 -0.1218
21378W        W37187  16.682  16.318   1.184 -0.0782  0.3040 -0.2493
21379W        W37188   7.427   3.055   0.879  0.0136  0.0720  0.4075
21380W        W37189   8.246   3.011  12.921 -0.0365  0.0183 -0.0817
21381W        W37190   7.737   7.929  10.823  0.1092  0.1784 -0.0960
21382W        W37191   0.012  17.657   0.198  0.3363 -0.1403  0.0561
21383W        W37192  13.763  18.989   0.072  0.2131  0.0925  0.0050
21384W        W37193  15.226   0.360  13.708 -0.1426 -0.0085  0.0165
21385W        W37194   1.837   5.828  10.567  0.0473  0.2390  0.0038
21386W        W37195  16.416   3.859  13.584 -0.2742  0.0324 -0.3227
21387W        W37196   6.798  14.898  13.463 -0.0109  0.0687  0.2833
21388W        W37197   9.895   0.572  11.942  0.0028  0.3312  0.2050
21389W        W37198   2.540  17.816   0.150  0.0316 -0.1347  0.2908
21390W        W37199  13.284   1.901  11.232 -0.3647 -0.1050 -0.3038
21391W        W37200  10.629   5.858  10.790  0.2259 -0.0270  0.0040
21392W        W37201  16.155  15.453  10.570  0.0404 -0.1887  0.1811
21393W        W37202  11.534  14.055  11.310  0.0052  0.1387  0.0874
21394W        W37203  13.565  13.704   0.332  0.2336  0.0089  0.0089
21395W        W37204   4.299   4.725   3.531  0.1656 -0.0712  0.0794
21396W        W37205   2.453   3.672  12.876  0.0807 -0.1443 -0.0216
21397W        W37206   1.372   0.454   0.995 -0.1277  0.1498 -0.1960
21398W        W37207   6.039  11.139  10.597 -0.1060 -0.0908  0.0581
21399W        W37208   1.716   3.853   0.829  0.1494 -0.0616 -0.0668
21400W        W37209   8.841  14.659  10.437  0.2080  0.3639  0.1236
21401W        W37210  11.752   2.090  13.314  0.2811  0.0027  0.0277
21402W        W37211   6.838  15.728  13.683  0.4304  0.1107  0.0021
21403W        W37212   9.598  15.182   4.679 -0.1972 -0.1536 -0.4158
21404W        W37213   5.598   3.605   4.845 -0.0445 -0.4504 -0.0047
21405W        W37214  15.845   3.073  12.423  0.3076  0.0200 -0.4989
21406W        W37215  13.488  10.349   0.910 -0.0043 -0.2295 -0.1130
21407W        W37216   1.232  15.922  10.720 -0.0176 -0.1758  0.3268
21408W        W37217   4.755  15.155  13.862  0.0905 -0.2282 -0.0582
21409W        W37218   2.125  13.439   1.555  0.0982  0.3076 -0.1507
21410W        W37219  16.181  13.602   4.657  0.0115 -0.1725 -0.2310
21411W        W37220   9.713  10.113   2.252  0.3667  0.0799  0.1278
21412W        W37221   2.552   0.351  14.648  0.1991 -0.1828  0.1334
21413W        W37222  15.268  13.624  11.501 -0.1062  0.3026  0.1638
21414W        W37223  16.701  12.852   2.968  0.2138 -0.1660 -0.2818
21415W        W37224  15.137  15.923  11.245  0.0980  0.4103  0.3225
21416W        W37225   7.340   4.638   1.855  0.1653 -0.2216  0.0383
21417W        W37226   8.176  15.016   3.825 -0.1034  0.0022 -0.1217
21418W        W37227   7.019   1.654  14.585  0.1361 -0.2039  0.0959
21419W        W37228   3.668   5.446   4.512  0.2898  0.0047 -0.2630
21420W        W37229  19.108   2.684   2.704  0.3024 -0.1030  0.2678
21421W        W37230  12.351   0.563   5.441 -0.0301 -0.1110 -0.2318
21422W        W37231   7.746   6.502   1.116 -0.1269  0.0812 -0.0859
21423W        W37232  11.422   6.615   1.384  0.0457  0.1165  0.3687
21424W        W37233   5.494   8.767  12.200  0.1765  0.0392  0.0502
21425W        W37234  17.909  17.532  13.038 -0.1000 -0.2488 -0.2896
21426W        W37235   1.269  15.460  13.928  0.0054 -0.1665 -0.1595
21427W        W37236  12.421   4.047  14.052 -0.2148  0.2088  0.0335
21428W        W37237   6.549  12.378   2.167 -0.0680 -0.1895  0.4013
21429W        W37238   3.549  18.119  10.987  0.0048  0.0279  0.2659
21430W        W37239  15.607  17.181   4.149  0.0770 -0.0973 -0.4290
21431W        W37240   8.088  14.006   1.682 -0.1395  0.0382 -0.0083
21432W        W37241  19.112  16.694   4.168  0.0137 -0.0612 -0.0004
21433W        W37242  11.340  19.130   9.719  0.1972 -0.1323  0.0099
21434W        W37243  14.582  10.761   4.822  0.2932 -0.0399 -0.0960
21435W        W37244   1.228  18.712  14.485 -0.1560 -0.3191  0.0274
21436W        W37245   9.718  11.091   1.745  0.2876 -0.2276  0.1598
21437W        W37246   4.088   1.449  11.139 -0.0977 -0.0594 -0.0826
21438W        W37247  12.550   2.295   0.047  0.2167  0.0182 -0.2357
21439W        W37248   3.433   0.072   2.764 -0.0520  0.1517  0.2633
21440W        W37249  19.023   5.909  13.136  0.1534 -0.0905 -0.2588
21441W        W37250   8.718  11.564  13.149 -0.2455  0.3319  0.1414
21442W        W37251   5.264  17.850  14.808 -0.2428 -0.0392  0.1442
21443W        W37252  12.721   3.826   1.862 -0.1926  0.0016  0.2222
21444W        W37253   1.812   0.461   0.675  0.0031  0.1365  0.0767
21445W        W37254   8.974  17.048  13.131  0.0957  0.1891  0.0067
21446W        W37255   1.765   0.700   9.543 -0.0169  0.2746 -0.0982
21447W        W37256  12.317   9.120  11.515 -0.0806 -0.0234 -0.0581
21448W        W37257  13.957  13.753   5.529  0.1070  0.0365  0.2185
21449W        W37258  11.670  10.218  13.851  0.0900  0.1298 -0.0219
21450W        W37259  11.225   7.999  14.589 -0.2768 -0.3042  0.0666
21451W        W37260   0.318   2.733   1.083  0.2251  0.1288 -0.2274
21452W        W37261   7.783   0.897  13.462 -0.0394  0.1748 -0.1340
21453W        W37262   0.844  15.677   3.391  0.0274 -0.1457 -0.1474
21454W        W37263   4.582  17.869  12.686  0.2564 -0.1668  0.3257
21455W        W37264  15.322   5.229   3.186  0.4489 -0.0018 -0.0157
21456W        W37265  11.552   7.115  12.380  0.0976 -0.2336  0.3951
21457W        W37266   5.716   0.203   5.412 -0.2333 -0.2446 -0.1300
21458W        W37267  15.455  11.216   2.442 -0.0831  0.1305 -0.3922
21459W        W37268   8.329  14.302   2.061  0.0115  0.0660  0.0368
21460W        W37269  17.485  16.791   0.905 -0.2400 -0.2019  0.2367
21461W        W37270   1.196  11.013   1.287 -0.2693 -0.1768  0.0740
21462W        W37271   6.850  16.245  13.570 -0.1668  0.2579  0.2209
21463W        W37272  16.873  11.164   2.840  0.2333 -0.1703 -0.0180
21464W        W37273  17.250   4.281  12.631 -0.3485 -0.1346  0.2239
21465W        W37274  12.852  11.847  13.164 -0.1759  0.2240  0.1267
21466W        W37275  11.067   1.885  10.479 -0.1993  0.1901  0.1888
21467W        W37276   4.750  11.601  11.146 -0.1116  0.3913  0.0370
21468W        W37277   6.792   3.827  12.042 -0.0475  0.3201 -0.1329
21469W        W37278   6.598  18.729  12.191  0.0539 -0.1534  0.2526
21470W        W37279   3.427   0.224   0.169  0.0258 -0.2860 -0.2585
21471W        W37280   6.582   8.450  15.215 -0.0295 -0.0772 -0.2053
21472W        W37281   6.173   6.717   3.679  0.1713  0.2254 -0.0214
21473W        W37282   2.605   4.487   1.246  0.0477  0.0020  0.2971
21474W        W37283   4.814   5.387   8.855  0.0776 -0.4253  0.0482
21475W        W37284   9.255  10.910   1.055  0.1740 -0.3299  0.0256
21476W        W37285  13.668  11.254   3.231  0.1485  0.0148 -0.1511
21477W        W37286   3.581  16.405   0.360  0.2075 -0.0105 -0.1039
21478W        W37287  13.809  14.344  10.582  0.2450 -0.0746 -0.3136
21479W        W37288  11.319  16.012   3.151 -0.0860 -0.3105 -0.0850
21480W        W37289  12.618  13.993   2.049 -0.3348  0.1625  0.1797
21481W        W37290  10.530   7.876   0.183  0.0624  0.1603  0.1333
21482W        W37291  13.013  15.141   1.652 -0.1865 -0.0023 -0.1452
21483W        W37292   4.259   7.441   2.979  0.1500  0.0971  0.1411
21484W        W37293   8.095  12.306   1.195  0.2467  0.3891 -0.1848
21485W        W37294   6.679   2.921  10.027 -0.1061 -0.0553 -0.3520
21486W        W37295   6.545  14.147   5.092 -0.0954  0.1670 -0.2132
21487W        W37296   7.787  12.378  14.524  0.0826  0.1065 -0.0594
21488W        W37297  15.861  10.929  14.128  0.3369 -0.2235 -0.1475
21489W        W37298   9.248  14.295   4.167  0.5314  0.1867  0.2688
21490W        W37299   4.954  11.429   4.822 -0.3498 -0.0444 -0.1172
21491W        W37300  14.155   8.498  13.240 -0.1539 -0.0075  0.2378
21492W        W37301  15.496  12.987  15.039  0.1744  0.0097 -0.0088
21493W        W37302  12.095   0.751   1.091  0.2866 -0.0088 -0.4259
21494W        W37303   3.064  15.174   2.674  0.1908  0.1058 -0.0744
21495W        W37304  16.223   9.431   4.434  0.1185  0.0097 -0.0193
21496W        W37305   7.587   5.316  13.878  0.0527  0.1565  0.1804
21497W        W37306  10.186   2.151   2.054 -0.0662 -0.0892  0.2119
21498W        W37307   8.453  18.540  11.430 -0.0583  0.0450  0.1612
21499W        W37308   1.809  18.957  14.482  0.3861  0.1643  0.0841
21500W        W37309   1.798  10.663   2.798 -0.3193  0.2598 -0.0123
21501W        W37310   7.412  13.519   2.781 -0.1749  0.1171 -0.1997
21502W        W37311  17.368   4.134   5.898  0.1103  0.0297 -0.2343
21503W        W37312  13.367  12.500   0.601  0.0918  0.1958  0.2953
21504W        W37313   4.863   8.960  13.039 -0.0721  0.1456  0.3206
21505W        W37314  13.223   3.255   4.965 -0.0657 -0.0009  0.0841
21506W        W37315  14.582  17.865   0.843  0.1074  0.1477  0.1549
21507W        W37316   6.848  19.041  13.574 -0.1752 -0.0368 -0.2737
21508W        W37317   3.086   3.261  12.213 -0.0892 -0.3438  0.2828
21509W        W37318   2.309   8.971   4.436 -0.2498 -0.2449  0.1107
21510W        W37319   6.054   1.309  11.953  0.0825  0.4361  0.2452
21511W        W37320  16.311   5.675   6.184 -0.2747 -0.0350 -0.1908
21512W        W37321   1.213   4.232  12.610 -0.1349 -0.0889 -0.1818
21513W        W37322  17.919   9.889   3.923 -0.0444  0.1456 -0.1703
21514W        W37323   8.626  10.236   0.457 -0.2215 -0.2812  0.1200
21515W        W37324   0.283   4.843   1.602 -0.5237 -0.0792  0.0098
21516W        W37325   6.885   3.206  12.787 -0.3040  0.0866  0.3230
21517W        W37326  13.036   5.050   9.752 -0.1665 -0.2174  0.1221
21518W        W37327  12.991  12.760  11.879  0.2484 -0.0528  0.2207
21519W        W37328  13.828  11.972  11.589  0.0111  0.1667  0.1024
21520W        W37329   2.399   9.690   9.610  0.1059 -0.2093 -0.0134
21521W        W37330  18.015  16.851   5.271 -0.0294  0.2398 -0.0964
21522W        W37331  12.683  10.385  12.261  0.0862  0.0678 -0.2094
21523W        W37332   1.903   0.880   1.532 -0.1252 -0.4572  0.1942
21524W        W37333  13.306  15.142   2.359  0.0035  0.0202  0.1483
21525W        W37334   5.597  12.479   3.098  0.2643 -0.2827  0.0364
21526W        W37335   2.671   9.530   0.402 -0.4534 -0.1193  0.0768
21527W        W37336  11.942  12.277  12.208  0.1301 -0.0216 -0.5118
21528W        W37337  19.051   7.302   5.117 -0.0756  0.1222 -0.0539
21529W        W37338   4.715   2.088  10.743  0.1523  0.3139  0.0019
21530W        W37339  12.222   1.738  11.778  0.0827  0.3181 -0.2069
21531W        W37340  17.957  18.222  13.800  0.2474 -0.1967 -0.4094
21532W        W37341   8.528   6.007   2.072 -0.0473  0.1848  0.0710
21533W        W37342   9.793  16.505  11.009  0.0787 -0.3933 -0.1417
21534W        W37343   5.810  12.650  11.342  0.0480 -0.0699  0.3163
21535W        W37344   3.749   6.267   1.117  0.3115  0.0334 -0.2996
21536W        W37345   0.627  10.377  13.551 -0.0870  0.1855  0.1231
21537W        W37346   3.400   5.449   3.251  0.1912 -0.0356 -0.1450
21538W        W37347   6.007  16.368   0.754 -0.1268  0.1636  0.0978
21539W        W37348  11.007   8.226  12.015 -0.1800  0.0974  0.1076
21540W        W37349  11.172  11.823  10.152  0.0645 -0.0846 -0.0532
21541W        W37350   8.621  10.537   3.784  0.2311  0.1924  0.0164
21542W        W37351   8.342  13.407   2.596  0.2043  0.0599 -0.5043
21543W        W37352  12.876   2.613  11.926  0.4424 -0.2002  0.0020
21544W        W37353   0.656  14.093  11.061 -0.4618 -0.1527 -0.0739
21545W        W37354   7.788   3.446   4.684 -0.0306 -0.1674  0.0904
21546W        W37355  18.254   5.746   1.159 -0.0867 -0.1879  0.0568
21547W        W37356   5.976  10.798  13.536  0.0736  0.2933 -0.2734
21548W        W37357  15.200   0.563  13.269 -0.1882  0.1485  0.3713
21549W        W37358  14.483   9.620   1.289  0.2317 -0.1169  0.1635
21550W        W37359  15.440   8.746  14.873 -0.0043 -0.1088 -0.0064
21551W        W37360  16.643  16.293  12.263 -0.4225 -0.0102  0.2266
21552W        W37361  13.287  15.464   2.958  0.1741  0.3680 -0.2146
21553W        W37362   5.476  10.655  15.173 -0.4204 -0.1048 -0.1367
21554W        W37363   6.167   1.095  14.136 -0.0523 -0.0311  0.0227
21555W        W37364   2.197   9.548  13.894 -0.2890  0.1389 -0.0577
21556W        W37365   1.543   4.285   1.038 -0.0770 -0.0346 -0.6505
21557W        W37366   5.314   5.463   3.485  0.1760  0.1580  0.2041
21558W        W37367  10.310   1.025   3.764  0.3933 -0.2248  0.1715
21559W        W37368  13.327  14.780  14.723 -0.1779 -0.1782 -0.1045
21560W        W37369  14.701   7.220   1.078 -0.2019 -0.0212  0.2190
21561W        W37370   3.721   7.118   2.357 -0.0623 -0.2267 -0.4402
21562W        W37371   1.870   4.026  13.770 -0.2522  0.1984  0.0682
21563W        W37372   9.525   3.046   0.118  0.0362 -0.1193 -0.2345
21564W        W37373   1.580  13.082   2.712 -0.0615 -0.3865 -0.1620
21565W        W37374  14.139  17.803   1.045 -0.0796 -0.4111 -0.4011
21566W        W37375   9.648   1.987   2.236  0.1128  0.1775 -0.1434
21567W        W37376  15.704   5.824   1.488  0.0210 -0.1667  0.1693
21568W        W37377   2.929   3.592   2.300  0.2446  0.0141  0.0311
21569W        W37378   5.911   3.102   4.911  0.0486  0.0603  0.0545
21570W        W37379   4.679  15.068  10.977 -0.2119  0.0771  0.1988
21571W        W37380  10.792  14.952   4.794 -0.1323  0.1055 -0.3006
21572W        W37381   1.967  15.430   0.537 -0.3571 -0.0855  0.0094
21573W        W37382  18.608  13.243  14.951 -0.1343 -0.1128  0.1578
21574W        W37383   5.310   5.346  14.441 -0.0192 -0.0373 -0.4334
21575W        W37384   3.601  17.924   2.949 -0.0595 -0.4922 -0.1820
21576W        W37385  15.480  17.872   1.113 -0.2012 -0.0902  0.2057
21577W        W37386   6.594  11.035   3.866 -0.1842 -0.1620 -0.3390
21578W        W37387  11.806  12.172   1.513 -0.0944  0.1003 -0.2505
21579W        W37388   6.461   4.923   1.460 -0.0014 -0.0663  0.1322
21580W        W37389  10.430  13.647  14.462 -0.1265  0.4427  0.0419
21581W        W37390   2.136  18.790  10.662 -0.0758  0.0508 -0.1551
21582W        W37391  12.228  18.099   0.920  0.0793 -0.0295  0.0440
21583W        W37392  16.440   7.809  11.698 -0.2139 -0.1318  0.0207
21584W        W37393   2.574  14.517   1.124  0.3418  0.0224  0.1131
21585W        W37394  12.038   5.660  11.889 -0.1558  0.1192 -0.2496
21586W        W37395  18.411   0.809  14.248  0.0599  0.2901  0.0583
21587W        W37396  13.665  18.553   2.400 -0.3048  0.2659 -0.0756
21588W        W37397   2.623  14.734  13.138 -0.1467 -0.1675 -0.1423
21589W        W37398  10.598  13.757   1.915 -0.2280 -0.2501 -0.2073
21590W        W37399  17.123  16.173   0.262  0.0275 -0.3697  0.1022
21591W        W37400   9.122  15.697  14.861  0.1894  0.1031 -0.2623
21592W        W37401   9.568  15.951  12.821  0.2134  0.1502 -0.1358
21593W        W37402  18.804  11.852  12.789 -0.2119 -0.0496  0.1940
21594W        W37403   3.137  18.153   1.626  0.3660  0.1183 -0.0617
21595W        W37404   1.063  16.554   4.146  0.3232  0.1151 -0.1092
21596W        W37405  19.070   2.255   2.406 -0.0005 -0.0298  0.0352
21597W        W37406  15.756  11.287   1.659  0.1558  0.1827  0.2544
21598W        W37407   4.358   8.378   8.835 -0.0321  0.0233 -0.0610
21599W        W37408   5.715   4.893  12.386 -0.0195  0.0202  0.0514
21600W        W37409  12.289  12.412  10.420 -0.1640 -0.1528  0.1064
21601W        W37410   3.518  15.463  12.026  0.3911  0.0057  0.0526
21602W        W37411   3.241   8.319   1.795  0.1130 -0.0251  0.0642
21603W        W37412  16.863   8.407   4.389 -0.1042  0.0693 -0.0607
21604W        W37413   4.557  17.312  12.506  0.3338  0.1366 -0.3505
21605W        W37414  12.169  16.704  12.499 -0.0540  0.0164 -0.0735
21606W        W37415   3.145  11.038  11.871 -0.0378 -0.1088 -0.0434
21607W        W37416   8.004  11.658  13.322 -0.1922  0.1104  0.4936
21608W        W37417   6.251  17.945  11.158 -0.1240 -0.2143 -0.0498
21609W        W37418  14.573   5.509  13.652  0.0248  0.2747  0.1135
21610W        W37419  13.821  17.876   0.670  0.1532 -0.0107 -0.1244
21611W        W37420  10.261   7.026  12.771 -0.2792  0.1064 -0.0847
21612W        W37421   1.202  17.816  14.936 -0.1093  0.1637  0.3174
21613W        W37422   0.975   9.542  12.977  0.1354  0.1379  0.5443
21614W        W37423  15.999  16.105   2.079  0.0616  0.0118  0.2885
21615W        W37424   9.368   1.353  10.666  0.4020 -0.0533 -0.2932
21616W        W37425  17.345  17.217   0.428 -0.0537  0.1817 -0.1865
21617W        W37426   2.364  10.142   4.176 -0.1024 -0.2728 -0.0091
21618W        W37427   6.687   2.040   3.845 -0.1260  0.2111  0.2385
21619W        W37428  17.230  11.710  13.869 -0.0358  0.1556  0.0795
21620W        W37429  14.545  18.449   1.179  0.1445 -0.1156 -0.3499
21621W        W37430   5.669   3.276  12.671  0.1973 -0.2254  0.1547
21622W        W37431   0.386  12.816  14.900  0.3231  0.0188  0.3284
21623W        W37432  10.112   0.798   1.448  0.1912  0.2424  0.1506
21624W        W37433   0.769   6.824   3.500  0.0651 -0.0421  0.0913
21625W        W37434   9.961  11.582  14.267 -0.0627  0.0136  0.0388
21626W        W37435   9.047   7.961  12.209  0.3420 -0.0379  0.1265
21627W        W37436  16.188  18.058  13.366 -0.1937  0.0147 -0.1097
21628W        W37437  17.044  12.995   3.356 -0.2009 -0.0415 -0.2049
21629W        W37438  19.065  13.196   4.368 -0.0934 -0.0603 -0.1390
21630W        W37439   1.469  16.572  14.188  0.1600 -0.2013 -0.2963
21631W        W37440  11.767  17.305  14.416  0.0987 -0.1660 -0.0191
21632W        W37441   1.170   7.549   0.709 -0.1943 -0.0307  0.1393
21633W        W37442   9.484   6.211  11.049  0.0176 -0.0460  0.2930
21634W        W37443  10.957   4.696   3.147  0.1625 -0.0646 -0.1878
21635W        W37444  10.217  18.968  11.413 -0.3619  0.1279 -0.0555
21636W        W37445   1.970   5.412  11.447  0.0943  0.2493  0.4084
21637W        W37446   6.471   8.075   1.460  0.0449  0.2411 -0.1474
21638W        W37447  12.054   4.833  12.491 -0.0693 -0.1285  0.1506
21639W        W37448  18.628   5.142   5.648 -0.0458 -0.1010  0.0453
21640W        W37449  10.698  15.178  13.658  0.0446  0.0915 -0.1555
21641W        W37450   5.681  15.606  15.027 -0.0318 -0.0024  0.2876
21642W        W37451   7.436   1.061   2.778 -0.1889  0.1072 -0.2729
21643W        W37452   3.126   3.942   3.753  0.1587  0.1393  0.4344
21644W        W37453   9.866  17.283   0.241 -0.0497  0.1437  0.1251
21645W        W37454   3.472   1.524  13.456  0.2209 -0.1156 -0.1433
21646W        W37455  10.555   4.935   0.359 -0.0206  0.2983 -0.2847
21647W        W37456   1.395   9.619  12.355 -0.1820 -0.2077 -0.1055
21648W        W37457   0.886   4.985   9.729 -0.2985  0.0121  0.1458
21649W        W37458  11.980  10.042   1.517 -0.0713 -0.1801  0.1453
21650W        W37459   4.331  13.866   3.525 -0.1097 -0.1564 -0.0191
21651W        W37460  13.848   6.597   1.076  0.0019  0.2876 -0.1144
21652W        W37461   2.962  15.089  14.332 -0.3610 -0.0220  0.1131
21653W        W37462  18.100   0.685  12.040 -0.0594  0.2103  0.0022
21654W        W37463   7.451  13.407   1.647  0.2024  0.2135  0.3311
21655W        W37464  11.816  16.626   1.257  0.0303 -0.0447  0.0030
21656W        W37465  18.785  14.365   0.739  0.0822  0.2760  0.3222
21657W        W37466  13.938  14.984  12.018  0.1003 -0.3575 -0.1798
21658W        W37467  13.598   2.785   0.817 -0.0900 -0.3293 -0.1243
21659W        W37468   9.815   2.373  14.044 -0.1379  0.3757  0.0048
21660W        W37469   0.079  16.431   2.010 -0.0012 -0.0033  0.0803
21661W        W37470  17.217  16.298   0.789  0.2823 -0.0428 -0.1599
21662W        W37471   7.355  11.212  14.450  0.1186  0.0081  0.3369
21663W        W37472  15.027  18.636  11.088 -0.1960  0.1756  0.1622
21664W        W37473   1.945   9.253   2.849 -0.0698 -0.1500 -0.1424
21665W        W37474   9.400   8.895  10.626 -0.4025  0.0253  0.2181
21666W        W37475   4.157   3.374   9.807 -0.0165  0.3251 -0.0325
21667W        W37476   9.639   3.958   0.472 -0.1581  0.1994 -0.1683
21668W        W37477  16.875  16.723   0.476 -0.2354  0.1478  0.0889
21669W        W37478  11.118   3.528   2.786  0.4579 -0.0528 -0.1031
21670W        W37479  12.828   5.613   4.143 -0.0487  0.0866 -0.1972
21671W        W37480  15.700  12.375   0.990 -0.1319  0.1101  0.2026
21672W        W37481   0.128  11.131   4.864 -0.0956  0.2621  0.1935
21673W        W37482   9.018   2.931   9.550 -0.0769  0.3190  0.1041
21674W        W37483  13.768  17.643  13.384 -0.0451 -0.3824 -0.1602
21675W        W37484   7.612   1.254   5.467 -0.3155  0.2118  0.0031
21676W        W37485  10.080   8.006   5.150  0.3316 -0.2864 -0.0197
21677W        W37486  18.001   5.359   4.920 -0.0753 -0.4104 -0.2856
21678W        W37487   5.862   2.181  14.021  0.1314 -0.0621  0.1182
21679W        W37488  15.203  12.399  11.931  0.1949 -0.3151  0.2223
21680W        W37489  14.620  13.139   0.875 -0.3069 -0.0111 -0.0136
21681W        W37490  10.402   0.457   5.315 -0.0177  0.4636 -0.0270
21682W        W37491  15.465  12.575   4.057  0.2904  0.1002  0.0170
21683W        W37492  17.942  13.602   4.865  0.0011 -0.1522 -0.4119
21684W        W37493   3.466   2.591  12.833 -0.0200 -0.2829  0.2630
21685W        W37494   3.315   4.549  13.621  0.1351  0.2410  0.1015
21686W        W37495   2.066   4.511   1.074 -0.0958 -0.1313 -0.1250
21687W        W37496   1.410   1.101   4.505 -0.2854  0.0584  0.3024
21688W        W37497   3.571   4.880  12.418  0.0650 -0.0410 -0.1803
21689W        W37498  12.336  15.880   5.317 -0.0645 -0.1422  0.0745
21690W        W37499   5.631   9.116  14.456  0.2008 -0.2418  0.1811
21691W        W37500  16.065  16.518   1.759  0.1291  0.0009 -0.2070
21692W        W37501  11.525   5.605   1.280 -0.0902 -0.2720 -0.0074
21693W        W37502   9.037   4.053  12.443  0.0707 -0.0864 -0.1015
21694W        W37503   0.713  17.521  13.643 -0.1741 -0.0253  0.0783
21695W        W37504  16.725   0.383  10.078 -0.1723  0.2757  0.1688
21696W        W37505  16.410  16.520  11.702 -0.1187  0.0584 -0.2044
21697W        W37506  15.391  12.376  14.048 -0.0900 -0.2166  0.1293
21698W        W37507   9.092   9.365  10.510 -0.0455 -0.1791 -0.0640
21699W        W37508  12.753  14.490   2.780 -0.0946  0.1684  0.1220
21700W        W37509  13.185   0.479  13.749 -0.4406  0.3069 -0.2247
21701W        W37510  12.703  11.325  13.028  0.0849 -0.0595 -0.0064
21702W        W37511   1.071  17.781   2.741 -0.1009  0.0770 -0.1036
21703W        W37512  15.328   9.416  12.944  0.1376 -0.1623 -0.2826
21704W        W37513  14.540  17.565  11.809  0.0007  0.0237 -0.1379
21705W        W37514  16.626   2.116   4.592  0.1903 -0.2537 -0.0578
21706W        W37515  11.875  10.143   2.832 -0.0948 -0.0561  0.2794
21707W        W37516   2.790   4.058  14.066 -0.1143 -0.2885  0.3729
21708W        W37517  15.636  18.425   6.254 -0.0453 -0.0166  0.4082
21709W        W37518   8.286  17.645  12.032  0.4819 -0.0450  0.0131
21710W        W37519   9.359  14.276  12.662  0.2641  0.3062 -0.1352
21711W        W37520  12.686  13.158  11.007 -0.2460 -0.1558 -0.0754
21712W        W37521   2.408  14.257   1.998  0.0822 -0.0979  0.2678
21713W        W37522   4.986  17.943  10.892 -0.4858 -0.1739  0.0777
21714W        W37523  14.733   4.071  14.295 -0.0901 -0.0548 -0.0972
21715W        W37524  11.702  11.199   3.823 -0.3568 -0.1780 -0.1819
21716W        W37525  17.989   3.986  15.004 -0.1908  0.0481  0.2253
21717W        W37526  17.879  19.057   0.004 -0.0388  0.2288 -0.5556
21718W        W37527  14.333  13.259   4.960  0.2375 -0.0969  0.4776
21719W        W37528  12.765   5.246   1.691 -0.2990 -0.2273  0.0302
21720W        W37529  15.263   3.332   5.124 -0.3446  0.0394 -0.1184
21721W        W37530   3.885   9.252   3.352  0.5328 -0.1315  0.1748
21722W        W37531   6.749  13.701  13.596  0.0251 -0.0578  0.0271
21723W        W37532   9.363  11.613  14.255  0.2689  0.1203  0.0800
21724W        W37533  11.176   1.984  11.597 -0.1733  0.3460  0.1469
21725W        W37534   9.044   9.117   4.245 -0.1110  0.0736  0.1301
21726W        W37535   9.249   2.531   5.727  0.3496 -0.2109 -0.3471
21727W        W37536  16.482  12.860  10.978  0.0050 -0.0121 -0.1639
21728W        W37537  15.896   2.391   2.634 -0.0027  0.3787  0.0475
21729W        W37538  17.256  12.507  11.867  0.1410  0.0189 -0.0752
21730W        W37539  11.067   3.066  11.216  0.3445  0.2353 -0.1277
21731W        W37540  13.610   2.413   5.077  0.1140 -0.0918 -0.0063
21732W        W37541  11.571   0.175   5.558  0.0125  0.2451 -0.1060
21733W        W37542   6.204   1.910  15.052  0.0493  0.0339  0.2170
21734W        W37543   6.297   0.425   1.364  0.0181 -0.2108  0.2615
21735W        W37544   9.297  16.587  11.636 -0.3337 -0.1382 -0.3647
21736W        W37545   0.636  11.364   2.481 -0.0444  0.4395 -0.1390
21737W        W37546  13.243  12.230   2.840 -0.2440 -0.4255  0.0714
21738W        W37547   4.722   7.939   2.181  0.0408 -0.2060 -0.2565
21739W        W37548  16.180  10.149  11.262 -0.3746 -0.0728  0.0457
21740W        W37549   5.344   2.098  13.283 -0.1673 -0.2372  0.0875
21741W        W37550   6.647  17.853   2.553 -0.0171 -0.0791 -0.1189
21742W        W37551   0.406  14.241   1.151 -0.3122  0.1231  0.0975
21743W        W37552  16.966   0.409   2.445 -0.0994  0.1291 -0.1162
21744W        W37553  16.913  16.923   4.270  0.1465  0.1397 -0.1611
21745W        W37554   9.710  10.007   4.967 -0.1592  0.0061 -0.0974
21746W        W37555   8.086  18.913   4.434  0.2146 -0.0878 -0.2839
21747W        W37556   4.423   2.746  11.366 -0.3978 -0.2902 -0.0882
21748W        W37557   2.584   3.015   9.311 -0.0347 -0.1497 -0.2623
21749W        W37558   4.632  16.315  11.363 -0.1838 -0.0060  0.0621
21750W        W37559   5.448   0.375  12.476 -0.3134  0.0578 -0.1161
21751W        W37560  15.936  18.159   4.297  0.1187 -0.1998  0.0226
21752W        W37561  12.780   4.538  13.965 -0.0671 -0.1737 -0.0473
21753W        W37562   9.715  16.632   2.884  0.1293 -0.0270 -0.1016
21754W        W37563  12.977  13.242   3.580  0.3220  0.0501 -0.1227
21755W        W37564  14.941   6.012  12.488  0.1010 -0.1287  0.0342
21756W        W37565   3.865  13.374  13.725  0.2677  0.0855 -0.0721
21757W        W37566  17.958   9.911   0.822  0.1479  0.0492  0.1181
21758W        W37567  11.300  17.488  14.209 -0.1528 -0.1312 -0.1303
21759W        W37568  17.654  11.233  15.024 -0.1794 -0.2413  0.1471
21760W        W37569   5.307  13.540   0.379 -0.0613 -0.1704 -0.0678
21761W        W37570  18.883  16.137  11.425 -0.1904  0.3899  0.1808
21762W        W37571  14.910  12.249  10.503  0.1700 -0.1256 -0.1849
21763W        W37572  13.357  11.105   2.862  0.0217  0.0378  0.1012
21764W        W37573  11.559  11.401   1.482 -0.2439  0.1998  0.1018
21765W        W37574   4.568   1.698   3.441  0.1972  0.1022  0.1056
21766W        W37575   3.122   4.304  11.343  0.1394  0.0057 -0.1102
21767W        W37576   5.835  11.845   4.360  0.3346  0.1542  0.1021
21768W        W37577   7.926  17.346   3.247 -0.3182 -0.1020 -0.4943
21769W        W37578  13.836   0.867  12.388  0.0930  0.0144 -0.3301
21770W        W37579  15.607  12.253  11.682  0.3434  0.1894  0.1607
21771W        W37580  15.298  14.070  12.879 -0.0291 -0.0315 -0.1701
21772W        W37581   1.220   5.040   3.175  0.0945 -0.0115  0.0837
21773W        W37582   4.030   0.423   1.402  0.0565  0.0896 -0.0345
21774W        W37583  10.698  10.596  15.214 -0.1733 -0.1033  0.0388
21775W        W37584   2.585  15.680   3.062  0.1787  0.1155  0.2193
21776W        W37585  16.371  17.611  10.744 -0.0941  0.1899 -0.1558
21777W        W37586  13.730  19.079  12.763  0.1681 -0.0530 -0.1047
21778W        W37587  10.461  16.534   0.539 -0.3258  0.2218  0.3248
21779W        W37588  15.834  16.582   0.007 -0.2132  0.1760 -0.1818
21780W        W37589   2.256   2.500  11.379 -0.1114 -0.1893 -0.0170
21781W        W37590   9.283   2.509  14.246 -0.2726  0.2741  0.0890
21782W        W37591   2.738   4.746  10.545  0.3482  0.2309  0.3890
21783W        W37592   4.456   8.772  12.075 -0.2596  0.0627 -0.0585
21784W        W37593   3.282   1.348   3.077  0.0407  0.1477  0.0974
21785W        W37594  17.032  11.373  14.163 -0.1109  0.0980  0.1009
21786W        W37595   5.531   6.267   1.433  0.0870 -0.0836  0.0286
21787W        W37596  13.334   5.290  10.688  0.2657  0.0212 -0.0450
21788W        W37597   6.826  19.088  11.293 -0.1722 -0.1664  0.0186
21789W        W37598  17.343   9.337   4.857  0.3006  0.0036 -0.1586
21790W        W37599   6.134  12.542  11.853  0.1211  0.0035 -0.1659
21791W        W37600  13.759   3.852   0.645  0.2092  0.3859 -0.0798
21792W        W37601   3.653   0.744   1.165  0.0381  0.1823  0.0779
21793W        W37602  14.426   2.333   1.540 -0.1090 -0.2353 -0.1956
21794W        W37603  14.888   8.723  11.745 -0.0052  0.0996  0.0656
21795W        W37604   0.703   6.056   4.254  0.3064 -0.1727 -0.5136
21796W        W37605   4.549  13.426   0.986 -0.4149 -0.0797  0.1244
21797W        W37606  14.126  17.744  12.461  0.0439  0.2815 -0.0012
21798W        W37607   3.097   6.901   4.586  0.1831  0.1894  0.0254
21799W        W37608   8.093  16.252  12.223  0.2432  0.0712 -0.2026
21800W        W37609   5.326   5.322   5.296 -0.0708  0.0322 -0.2135
21801W        W37610   6.997  11.534  14.056 -0.0522 -0.2062 -0.1495
21802W        W37611   8.273   6.775   5.184 -0.1511  0.2872  0.4870
21803W        W37612   8.995   4.350  11.591  0.1747  0.0576  0.1312
21804W        W37613  14.893  17.667  11.512  0.1118  0.0699 -0.0447
21805W        W37614   5.363   2.692   2.472  0.2187  0.3080 -0.0793
21806W        W37615   7.599   5.494  13.376  0.0635  0.1120  0.0167
21807W        W37616   7.085  18.209   5.058  0.1715 -0.2677 -0.0536
21808W        W37617  11.199   7.273  15.167 -0.1637 -0.2178  0.0960
21809W        W37618  13.982   9.475   5.369  0.0286 -0.0746  0.1522
21810W        W37619  10.333  11.530   0.645 -0.2939 -0.4279  0.3509
21811W        W37620   3.949  16.069  12.366  0.1272 -0.1710  0.0256
21812W        W37621   9.821  16.641   2.397  0.0005 -0.3670 -0.2257
21813W        W37622  14.695  15.509   5.441 -0.0370 -0.3798 -0.0342
21814W        W37623  11.931   8.570   2.952  0.2922  0.0068  0.2122
21815W        W37624  12.794   0.621  14.665  0.2180  0.1234 -0.0872
21816W        W37625   5.806  18.306  13.475 -0.0819 -0.2381 -0.0910
21817W        W37626  15.496  18.664   2.490 -0.3480  0.2651 -0.2787
21818W        W37627   1.090  13.571  12.816 -0.1737 -0.2952  0.2275
21819W        W37628  15.070  14.515  11.026  0.0003 -0.1169  0.1370
21820W        W37629   0.272   6.469   1.770  0.0908 -0.2286  0.0770
21821W        W37630  10.014  18.877  13.968  0.0462 -0.0510 -0.1079
21822W        W37631  18.912   6.594   0.987 -0.0969 -0.2408  0.1247
21823W        W37632   9.366  13.564   3.399 -0.1799 -0.2818  0.1645
21824W        W37633  19.148   7.268  11.556  0.1240 -0.2422  0.1771
21825W        W37634   2.895  11.195  14.092 -0.1410  0.1010 -0.0692
21826W        W37635  12.890  14.524  12.991 -0.0313 -0.1641  0.1331
21827W        W37636   9.748   2.479  10.098  0.3684  0.0182  0.2705
21828W        W37637  16.563  12.460  14.627 -0.1533 -0.0212 -0.1792
21829W        W37638  18.159  12.674   0.898  0.2721  0.0680 -0.1007
21830W        W37639  16.207   1.710   1.931  0.0636  0.0300  0.1907
21831W        W37640   9.752  14.188  13.654  0.1768  0.0210 -0.4097
21832W        W37641  18.728  10.730  12.550  0.1445  0.1735 -0.0505
21833W        W37642   3.629   2.711   4.894  0.0407 -0.1713 -0.1209
21834W        W37643  10.246   7.057   2.092  0.0172  0.1649 -0.1081
21835W        W37644  18.483  11.284   2.465 -0.0158 -0.0707 -0.1352
21836W        W37645   8.805  14.815   5.749 -0.2534 -0.2423 -0.0942
21837W        W37646   0.368   1.480  12.879 -0.4656 -0.0226  0.2755
21838W        W37647   0.267   3.787   3.744 -0.0200 -0.1329 -0.1772
21839W        W37648   3.163   3.930   1.016 -0.0321  0.2363 -0.0454
21840W        W37649  14.340   8.260   0.334  0.0828 -0.1689 -0.1556
21841W        W37650  10.832  12.818  13.119  0.4885  0.0699 -0.0086
21842W        W37651   6.967  14.193  13.547  0.2722 -0.1081 -0.4442
21843W        W37652   7.610   1.872   2.337 -0.1897  0.2635  0.0832
21844W        W37653  18.304   9.697   4.752  0.1938 -0.1536 -0.1291
21845W        W37654   7.136  17.993  11.040  0.2537  0.1354 -0.2239
21846W        W37655  18.612  11.820   3.241 -0.2076 -0.1106  0.1236
21847W        W37656  15.207   6.751   2.645 -0.1227 -0.3702  0.0694
21848W        W37657  11.804   8.804   2.500  0.1615  0.0116 -0.0961
21849W        W37658   2.459  18.378   3.640  0.1256  0.2969 -0.0399
21850W        W37659   9.147   4.055   3.456 -0.1199 -0.0010  0.2113
21851W        W37660  10.897   7.101   3.372 -0.0704 -0.1013  0.1679
21852W        W37661   1.497  14.711  11.104 -0.0993  0.2974 -0.0302
21853W        W37662  17.818   6.340   4.121  0.0851 -0.2060  0.0881
21854W        W37663   3.959  14.181   2.484 -0.1424 -0.1706  0.1865
21855W        W37664   5.258  18.537   1.013  0.2999 -0.1147 -0.0996
21856W        W37665  15.367  18.192   2.759 -0.1112 -0.1587  0.3328
21857W        W37666   9.141  16.334   1.777 -0.3597  0.1292 -0.0603
21858W        W37667   8.565   0.905  10.877 -0.3443 -0.0893  0.0466
21859W        W37668   9.832  10.019  11.343  0.0412  0.3475  0.1652
21860W        W37669  15.617  18.824   4.608  0.3015  0.0106 -0.1481
21861W        W37670   7.740  11.933  15.206  0.0117  0.2254  0.0264
21862W        W37671   4.491  13.570  11.737 -0.2887  0.1389  0.1080
21863W        W37672  11.632   3.909   2.992  0.1687 -0.1139  0.1136
21864W        W37673   0.489   4.322   2.950 -0.2553  0.2376  0.1406
21865W        W37674  14.784  12.825  13.816  0.0205  0.1021 -0.0499
21866W        W37675   2.500   3.779  10.365 -0.1930  0.0839  0.0421
21867W        W37676  12.616   3.095   3.557 -0.0941 -0.3274 -0.1247
21868W        W37677  13.874  16.097  13.178  0.0987 -0.0825  0.0271
21869W        W37678   3.591   3.414   3.546 -0.3471  0.2287  0.0665
21870W        W37679  14.746   3.730   4.386 -0.1429  0.0695  0.0775
21871W        W37680  14.829   4.936   3.939  0.0797  0.2145  0.0039
21872W        W37681   6.993  18.872  14.835  0.0710 -0.1687 -0.1245
21873W        W37682   3.706  15.555   9.091  0.0558  0.0752 -0.1981
21874W        W37683  10.042   0.403   3.245 -0.0998  0.2364  0.0207
21875W        W37684  16.567  14.442   5.081  0.1776  0.0499 -0.4764
21876W        W37685   8.356  11.664   0.950  0.1305  0.1527  0.1028
21877W        W37686   4.621  16.572  12.990  0.2852  0.2542  0.0767
21878W        W37687   1.659  17.362  12.012 -0.3212 -0.0258 -0.1213
21879W        W37688   4.232   3.309   3.078 -0.0023  0.2447  0.0345
21880W        W37689  14.113   4.053  10.839 -0.1646 -0.2923  0.3746
21881W        W37690   5.558   5.578  12.083  0.2383  0.3780  0.0742
21882W        W37691   6.986   2.727   0.422 -0.1656  0.1602 -0.0125
21883W        W37692   2.246   9.961  12.169  0.1021  0.2300  0.1943
21884W        W37693  10.139  11.067  11.592  0.1319 -0.0223 -0.3086
21885W        W37694   2.183   3.629   0.943 -0.1165  0.1662 -0.0669
21886W        W37695   3.449   3.174  12.770  0.0165  0.0303 -0.0680
21887W        W37696   6.548  10.478  12.026 -0.0303  0.0793  0.2530
21888W        W37697  13.690   0.455  11.468 -0.3053 -0.1255 -0.0815
21889W        W37698  11.850   3.030  10.462  0.0126 -0.0390  0.2945
21890W        W37699  16.058   8.995   1.293 -0.1699  0.2646 -0.4059
21891W        W37700  12.586   5.754  11.886 -0.3889 -0.3339 -0.2615
21892W        W37701  11.963   7.003  10.011  0.1411 -0.0983  0.1869
21893W        W37702   6.825   1.194  14.737 -0.3213  0.0347  0.0511
21894W        W37703   1.302   0.092   1.329  0.1000  0.0553  0.1711
21895W        W37704  10.293  16.597  14.312 -0.4140 -0.0823  0.1061
21896W        W37705  12.931   7.580  12.199  0.1698  0.0137 -0.0113
21897W        W37706  18.734  12.510   2.138 -0.2421  0.0654 -0.0282
21898W        W37707   3.398   2.992  14.284  0.0148  0.0032 -0.4704
21899W        W37708  17.561   0.013   0.449  0.1012 -0.0292  0.0782
21900W        W37709   1.348   6.635  15.169 -0.3724 -0.1187 -0.2206
21901W        W37710   4.058   5.408   0.209  0.1379  0.1334 -0.1219
21902W        W37711  14.432   4.314  11.750 -0.2300 -0.1894 -0.1493
21903W        W37712  12.453  13.440  14.600  0.2172  0.0500 -0.2069
21904W        W37713  18.919   7.581  10.474 -0.3800  0.0709  0.0952
21905W        W37714   6.459  10.905  14.518 -0.0914  0.3550  0.0703
21906W        W37715  17.791   3.723   2.306  0.1674  0.1498 -0.0350
21907W        W37716  10.788  13.128  10.811  0.2751  0.0311  0.1225
21908W        W37717   8.913   1.330  15.121 -0.2828 -0.2762 -0.0184
21909W        W37718  13.897  10.247   3.622 -0.2518  0.0943  0.1927
21910W        W37719   6.716   0.472  14.464 -0.2475 -0.0126  0.0610
21911W        W37720   9.548  14.088  11.774 -0.1165  0.0035  0.3009
21912W        W37721   8.199  10.592  12.983  0.0888 -0.1124 -0.1353
21913W        W37722   0.718   2.363   4.777 -0.2158  0.1710  0.0171
21914W        W37723   8.827  16.745  10.434 -0.0770  0.3362  0.0129
21915W        W37724  14.050   2.680   0.522 -0.1581  0.1591  0.1650
21916W        W37725  19.039   9.127  12.993  0.0422 -0.0666  0.2832
21917W        W37726  14.031   1.788   3.249 -0.1337 -0.1748  0.1897
21918W        W37727   5.032   3.910   5.530 -0.0393  0.1237 -0.2806
21919W        W37728   2.145  12.882   3.108 -0.1641  0.3264  0.3069
21920W        W37729  15.370   5.794   1.117 -0.2619 -0.1440  0.3740
21921W        W37730  10.434  19.159  14.721  0.0535 -0.1155 -0.0173
21922W        W37731   4.445  14.084   1.317  0.1566  0.0951  0.0908
21923W        W37732   2.689   2.722   1.437  0.0818 -0.3001 -0.2632
21924W        W37733  12.228  14.289   3.725  0.0137 -0.3063 -0.0787
21925W        W37734  10.170  17.895  11.426  0.0271 -0.2583 -0.1060
21926W        W37735   3.463   4.347   0.325 -0.1597  0.3930  0.3712
21927W        W37736   4.740  10.412  12.972  0.1054 -0.2462 -0.0667
21928W        W37737   9.069   2.597  13.304 -0.0976  0.0006 -0.0056
21929W        W37738   5.457  15.810   4.435 -0.0530 -0.0246  0.0047
21930W        W37739   0.477  17.404   0.094  0.1557 -0.1878 -0.1149
21931W        W37740   6.906  17.541   2.304  0.1421 -0.3614 -0.3166
21932W        W37741  18.008  10.854   4.243  0.3166  0.1668 -0.0078
21933W        W37742  11.811   9.170   4.847  0.3372  0.0026  0.1185
21934W        W37743   8.672   1.442   0.348 -0.0137  0.0381 -0.3458
21935W        W37744   1.755   2.319  14.920  0.0416 -0.3719 -0.3388
21936W        W37745   2.752   8.829  14.703 -0.2658 -0.1577 -0.1437
21937W        W37746   6.196   5.819   0.535 -0.2905 -0.1281  0.0191
21938W        W37747  11.314  13.355  10.860 -0.1249 -0.0254  0.2121
21939W        W37748  14.479  18.309   4.408 -0.1216  0.1248 -0.1655
21940W        W37749   2.390  19.028  14.464 -0.1726  0.0033  0.2098
21941W        W37750  11.897   2.778   9.706  0.0003 -0.2176 -0.1058
21942W        W37751   3.274  10.005  10.846 -0.2694 -0.0671  0.2166
21943W        W37752  11.962  11.807  15.158  0.1436 -0.2561  0.1776
21944W        W37753   6.058  12.245  10.343 -0.1380  0.0185 -0.0202
21945W        W37754   9.647   3.271   2.303 -0.0233 -0.2090 -0.0289
21946W        W37755   9.540  17.445   9.553 -0.3691  0.1686  0.0513
21947W        W37756  12.617  18.332   2.621  0.0716 -0.1064 -0.1112
21948W        W37757   6.684   2.810   1.835 -0.1643 -0.2972  0.4116
21949W        W37758   5.639  10.938   4.347 -0.0212 -0.4146 -0.0198
21950W        W37759   3.595  13.677  15.134 -0.1591 -0.1860  0.0382
21951W        W37760  14.886   5.026   0.893 -0.0062 -0.1286  0.0891
21952W        W37761  11.585  13.883   2.522  0.4332 -0.0323  0.0464
21953W        W37762   4.003  14.069  10.459 -0.2538  0.1184  0.3389
21954W        W37763  17.022   7.625  11.028  0.2370 -0.3087 -0.1446
21955W        W37764   5.421  12.617  13.979 -0.2297  0.2753 -0.2734
21956W        W37765   2.253   9.785   0.191  0.0647  0.1781 -0.3780
21957W        W37766   3.952   7.350   4.082  0.4699 -0.3584 -0.2996
21958W        W37767   2.074  15.367  11.038  0.1658  0.0442 -0.5154
21959W        W37768  13.942  17.672   3.263 -0.2869  0.0350  0.1423
21960W        W37769  16.206   7.108  12.880  0.1654 -0.0671 -0.3566
21961W        W37770  17.905   4.909   0.139  0.1776  0.1362 -0.0036
21962W        W37771   9.521  10.002  14.552  0.1215  0.2583 -0.2973
21963W        W37772  15.661  10.714  12.539  0.0481  0.2210  0.1468
21964W        W37773  11.023  16.772  11.638 -0.1644  0.1425  0.0665
21965W        W37774  19.084  18.582  12.395  0.2101 -0.1116 -0.1192
21966W        W37775  14.485   5.080   2.479  0.1282  0.0943  0.0570
21967W        W37776  10.946  17.461  13.849  0.0798 -0.2071  0.1800
21968W        W37777   3.884   8.831  12.894 -0.0666 -0.2557 -0.0427
21969W        W37778  17.662   8.022   0.699 -0.0815 -0.1505 -0.0451
21970W        W37779   3.180  10.318   5.588  0.1483  0.0454 -0.0183
21971W        W37780  16.723  11.931  12.534  0.1385  0.1857 -0.5296
21972W        W37781  12.122  17.117   0.957  0.3110  0.0398 -0.2790
21973W        W37782   6.657  12.703   0.649 -0.3896 -0.1900 -0.2171
21974W        W37783   7.345  15.653   4.381  0.2515 -0.1949 -0.4402
21975W        W37784   9.872   4.346  10.396  0.0389  0.0179  0.0601
21976W        W37785   7.888   8.259   4.485 -0.0013 -0.2530  0.1992
21977W        W37786   7.835  17.906  11.625 -0.2764  0.2554  0.1384
21978W        W37787  15.680   4.865  14.883  0.1212  0.0056  0.2826
21979W        W37788   1.851  11.464  12.653  0.0204  0.0781  0.1672
21980W        W37789   8.243   6.699  12.411  0.0677  0.0545 -0.3396
21981W        W37790  14.785   0.170   2.988 -0.0872 -0.0369  0.0146
21982W        W37791   2.637  12.863   5.161  0.1615 -0.0883  0.1462
21983W        W37792  18.732  17.535   5.165  0.1846 -0.1827  0.2281
21984W        W37793  14.330   6.017  14.685 -0.0516 -0.0691 -0.1250
21985W        W37794   9.117   6.894  11.194  0.3011 -0.0789 -0.1443
21986W        W37795   3.216   4.228   1.756 -0.0453  0.0246  0.0806
21987W        W37796   8.908  18.227   3.764 -0.3056  0.0352  0.1832
21988W        W37797  16.096  17.157   2.906  0.1599  0.1566 -0.1824
21989W        W37798  11.477   3.151   1.294  0.3263 -0.1886  0.2324
21990W        W37799  16.095   5.879  11.394  0.0874  0.1635  0.1705
21991W        W37800  13.555  10.441   1.977 -0.1564  0.0081  0.0493
21992W        W37801  17.755  17.117  12.631 -0.2147 -0.2126  0.1946
21993W        W37802  14.437   5.284  14.109 -0.2060  0.4068 -0.0921
21994W        W37803  15.210   4.066  14.361  0.1619  0.3194  0.2155
21995W        W37804  17.092  13.108  13.773  0.0950  0.0015  0.0269
21996W        W37805  15.703  10.335   3.469 -0.1463 -0.4089 -0.0146
21997W        W37806   5.435  10.384  12.820 -0.0519 -0.0247  0.1521
21998W        W37807  18.618   8.893  11.407 -0.2315  0.1376  0.1171
21999W        W37808  18.893   5.481  10.552  0.1070 -0.0061 -0.1861
22000W        W37809  15.906   1.094  13.351 -0.2272 -0.1480 -0.0513
22001W        W37810  18.887   6.658  10.240 -0.1243  0.0622  0.0474
22002W        W37811  14.630  13.163   5.391 -0.0814  0.0416 -0.0824
22003W        W37812  10.957  15.924  14.602  0.2116 -0.0469  0.0491
22004W        W37813  14.873   7.598  14.831 -0.1226  0.3803  0.2032
22005W        W37814  14.638   9.808   0.173  0.5072  0.2093  0.1612
22006W        W37815   1.468  11.794   0.182  0.0456  0.2933 -0.1733
22007W        W37816  18.616  12.727  12.238  0.0963  0.1148 -0.0690
22008W        W37817  13.930   5.751  13.903 -0.0558 -0.1358  0.2210
22009W        W37818  18.908  14.814   3.007 -0.1216  0.0437  0.0461
22010W        W37819   1.971   3.369  12.089 -0.0685 -0.1498 -0.0233
22011W        W37820  17.976  13.036   4.277  0.1244 -0.2786  0.2170
22012W        W37821  18.817   2.446  12.581  0.0158 -0.1074 -0.0959
22013W        W37822   6.542  15.579   0.716  0.1096 -0.0466 -0.1441
22014W        W37823   4.384  10.059  14.781 -0.2140 -0.2720 -0.0741
22015W        W37824  15.910  10.812   3.206 -0.2207 -0.1758 -0.1854
22016W        W37825   1.287   9.732   1.285 -0.1076 -0.0940 -0.0322
22017W        W37826  17.486   2.734  12.156 -0.0489 -0.1383  0.2086
22018W        W37827   9.396  17.190  11.803  0.1173 -0.0860 -0.1886
22019W        W37828   9.062  18.745   4.647 -0.3001 -0.1433  0.1083
22020W        W37829   6.267  13.987  12.784 -0.0154  0.0953 -0.4481
22021W        W37830   6.768   8.557  11.939  0.2191 -0.1324 -0.1883
22022W        W37831  16.233  16.407   5.244 -0.0044  0.1613  0.0796
22023W        W37832  13.017  11.936   6.206  0.2881  0.3857  0.0506
22024W        W37833   8.150   7.027   1.847  0.2789  0.0215  0.0291
22025W        W37834  13.683   1.901  10.870  0.0487 -0.2457 -0.2653
22026W        W37835   8.992   9.933   1.818 -0.2560 -0.0150  0.0466
22027W        W37836  11.856   6.327  13.744 -0.1185 -0.1427  0.0386
22028W        W37837   7.248  15.702  11.098 -0.0571 -0.3183  0.1279
22029W        W37838   7.287  18.304   1.497  0.3060  0.3671  0.0191
22030W        W37839  10.124  15.141  13.892 -0.0155 -0.0805 -0.3339
22031W        W37840  18.434  18.030   1.302 -0.2202  0.1514  0.1174
22032W        W37841  18.516   4.786  14.792 -0.0665 -0.1508 -0.1864
22033W        W37842   3.235   7.682   0.064 -0.0300  0.4052  0.2030
22034W        W37843  12.653   9.290  11.080 -0.1608  0.1307  0.0378
22035W        W37844   0.488  17.374  11.589 -0.0117 -0.1494 -0.0135
22036W        W37845  11.971   0.573   3.163 -0.0731  0.3787  0.2101
22037W        W37846   7.696   3.292  15.037 -0.0395 -0.3843 -0.0091
22038W        W37847   6.010   8.696  14.436 -0.1199  0.0328 -0.2624
22039W        W37848  13.143  16.183   2.841 -0.0404  0.1555 -0.1354
22040W        W37849   0.527  13.171  13.700 -0.2469  0.0276  0.2228
22041W        W37850  13.926  14.497  13.962  0.3202 -0.3044  0.1726
22042W        W37851   2.972  19.110   1.305 -0.1219 -0.1213 -0.0257
22043W        W37852   9.958  16.923  12.469 -0.0503 -0.0201  0.0191
22044W        W37853   2.929  15.260  11.720 -0.0805  0.2011 -0.2234
22045W        W37854   2.459   0.832   3.265 -0.0548  0.2434  0.1161
22046W        W37855  14.091   9.690  11.111 -0.0812  0.1095  0.0145
22047W        W37856   4.347  10.377  13.430  0.0605 -0.1234  0.1900
22048W        W37857  13.428   9.752   2.059 -0.1175  0.0960 -0.1712
22049W        W37858   0.668   2.410   2.451  0.1835 -0.0360  0.2930
22050W        W37859   1.645   3.535   4.730  0.0742  0.0259 -0.3673
22051W        W37860  10.973  11.772  14.772  0.0142  0.1108  0.0322
22052W        W37861   8.811   2.485  14.480 -0.1955 -0.0378 -0.1884
22053W        W37862  15.451  15.876   2.890  0.2715 -0.0829  0.4022
22054W        W37863  14.861  13.338  13.128 -0.2865 -0.0215 -0.0614
22055W        W37864   5.626  18.605  12.664  0.5780 -0.2580  0.0556
22056W        W37865  18.410   3.924  14.079  0.0991 -0.1267 -0.0025
22057W        W37866   1.165   6.780   4.822 -0.3389 -0.2318 -0.3286
22058W        W37867  10.628   0.291  11.271  0.5355 -0.4796 -0.2025
22059W        W37868  11.554   9.066  12.673  0.1113 -0.1168  0.1489
22060W        W37869  13.300   5.840  10.648 -0.0017  0.0201 -0.1714
22061W        W37870  13.929  17.722  11.678 -0.1306 -0.2473 -0.3276
22062W        W37871   1.416  17.493  14.623 -0.2211 -0.1226  0.1118
22063W        W37872  13.021  15.416   0.038 -0.0119 -0.1296 -0.5005
22064W        W37873   1.958  11.665   3.393  0.0790  0.0244  0.0291
22065W        W37874  12.118  11.509   5.016 -0.0565  0.0636 -0.0808
22066W        W37875   8.218   3.593   3.553 -0.2730  0.5898  0.1800
22067W        W37876  17.346   8.070   5.537 -0.0771 -0.1466  0.0824
22068W        W37877   6.634   3.116   0.820 -0.1419 -0.1018  0.2011
22069W        W37878  17.232  10.578  12.451 -0.0066 -0.2061 -0.2826
22070W        W37879   3.804   2.088  12.168 -0.1050  0.0654 -0.0768
22071W        W37880   0.582  11.989  12.152  0.0545  0.0636  0.0759
22072W        W37881  10.743   5.081  13.619  0.4126  0.0100  0.0744
22073W        W37882  13.542   5.782   4.206  0.1276  0.3759  0.2380
22074W        W37883   4.556   4.706  10.462  0.0625  0.0415 -0.0073
22075W        W37884  18.798   8.694  11.966 -0.1311 -0.0619 -0.1241
22076W        W37885  16.981  11.004   4.431  0.2016 -0.3096 -0.0348
22077W        W37886   0.109  11.500   0.406  0.2140 -0.0445 -0.0490
22078W        W37887  11.819   5.997   3.574 -0.1352 -0.3234 -0.1376
22079W        W37888   5.404  13.973  14.842 -0.2994  0.0808  0.1418
22080W        W37889   7.393   7.674   1.607 -0.0928  0.0643  0.1179
22081W        W37890  11.850   1.583  12.084  0.2225 -0.1288  0.0101
22082W        W37891   8.760   4.168   3.819  0.1530  0.1317 -0.4342
22083W        W37892  18.786   9.699   3.519  0.1272  0.1549  0.0940
22084W        W37893   9.495  16.187  10.792 -0.0904  0.0885 -0.2455
22085W        W37894   5.861   0.672   1.076 -0.2834 -0.2208  0.0059
22086W        W37895  13.742   3.407  11.211  0.0868 -0.0068 -0.1685
22087W        W37896  17.650  18.093   2.702 -0.1024 -0.2708 -0.0423
22088W        W37897   0.818   3.027   4.787 -0.3260  0.0285  0.2772
22089W        W37898   2.356  15.705   0.593 -0.4352  0.0060  0.1177
22090W        W37899  15.783   0.835  12.654  0.0893  0.3182 -0.0437
22091W        W37900  14.491  10.602   4.008 -0.1638 -0.0044  0.3430
22092W        W37901  14.698   1.087  15.061 -0.0859  0.1307 -0.1998
22093W        W37902  16.893   4.605   4.744 -0.1355 -0.0859  0.1746
22094W        W37903   7.970   6.642   4.236  0.0420 -0.1316  0.1578
22095W        W37904  17.905   0.157   2.968 -0.3870  0.1479 -0.0403
22096W        W37905  18.903   8.427   1.415 -0.2764  0.1359 -0.0166
22097W        W37906   1.353  15.952  12.808  0.0304 -0.0408  0.0284
22098W        W37907  12.845   1.548   2.474  0.1422 -0.1168  0.0919
22099W        W37908   5.793  14.929  13.641 -0.1589  0.2216 -0.4002
22100W        W37909   2.040   6.359   3.197  0.5511  0.0955 -0.2562
22101W        W37910  12.350  12.179   2.294  0.0151  0.0581  0.0722
22102W        W37911   4.166   1.724   2.898 -0.1471  0.0873  0.3241
22103W        W37912  15.006  10.203   1.873 -0.1243 -0.1363 -0.3304
22104W        W37913  13.251   7.500  13.126  0.0434  0.0664  0.2472
22105W        W37914  17.569   9.942  13.712  0.0419  0.2610 -0.2816
22106W        W37915   2.280   1.907  10.247 -0.0745  0.3611  0.4086
22107W        W37916   6.150   2.423   1.149 -0.2338  0.1658 -0.0535
22108W        W37917   3.477  12.507  14.964  0.2620  0.2027  0.2837
22109W        W37918  10.843  17.417   5.995 -0.1271  0.1269  0.3186
22110W        W37919  16.603  15.690  12.302  0.1269 -0.2890  0.0223
22111W        W37920   4.999  16.259  12.829 -0.0138  0.5241 -0.0002
22112W        W37921   0.930   6.993   2.972  0.0560  0.2242 -0.3214
22113W        W37922   4.017   7.062  13.426  0.0991  0.0768  0.0350
22114W        W37923   6.500  11.216  14.044  0.2440 -0.4620  0.0556
22115W        W37924   8.951   5.821   2.950  0.2104 -0.0281 -0.0791
22116W        W37925   8.107   6.389   3.759 -0.0128  0.0402  0.0195
22117W        W37926  19.092  10.531  13.490  0.1095 -0.1406  0.1043
22118W        W37927   1.884   4.475  12.818 -0.1877 -0.0215 -0.0259
22119W        W37928   8.405  18.069   5.099  0.0368 -0.0199  0.2673
22120W        W37929   1.665   9.170  11.277 -0.1981 -0.0427 -0.2193
22121W        W37930   4.182   9.774   4.829 -0.0421  0.4412  0.3260
22122W        W37931   5.176  18.675   5.414  0.1195 -0.0441 -0.0136
22123W        W37932   7.923   5.251  11.671 -0.1067  0.0166 -0.2621
22124W        W37933   7.679  11.176   2.723 -0.0267 -0.0217 -0.0910
22125W        W37934  13.923  12.827   3.062  0.2040 -0.0373 -0.2919
22126W        W37935  16.646  11.550   2.654 -0.3597 -0.0268 -0.1915
22127W        W37936   2.155   9.438  10.497 -0.0476 -0.0138  0.1822
22128W        W37937   4.155   7.794   2.043  0.0838  0.0005  0.1085
22129W        W37938   6.350   7.364   1.996 -0.1648  0.1585  0.3166
22130W        W37939  11.846  16.113   3.314  0.0471 -0.1718  0.1630
22131W        W37940   0.247   4.987  12.067 -0.0584 -0.0923 -0.2095
22132W        W37941  11.392  13.876   0.414 -0.1801  0.0730  0.1295
22133W        W37942   3.185  12.749   1.157 -0.2942  0.1006  0.0103
22134W        W37943   5.134   8.421   2.983 -0.0574 -0.1061 -0.0792
22135W        W37944  12.605   3.381  13.165  0.0560  0.4455  0.5072
22136W        W37945  13.705  11.978  14.809  0.0645  0.4034 -0.1551
22137W        W37946   2.043   3.275   4.472  0.2210 -0.2283  0.3165
22138W        W37947  13.443   6.920   3.173  0.2586  0.1212 -0.1161
22139W        W37948  14.217  10.970   1.837 -0.0247 -0.0644 -0.1581
22140W        W37949  13.316   2.851  14.309 -0.0342  0.0635  0.0155
22141W        W37950   3.920  11.612  11.749 -0.0476 -0.0069  0.0734
22142W        W37951   2.942   8.182   2.919  0.1538  0.1538  0.1921
22143W        W37952   0.758  11.075  14.884 -0.1755 -0.1495 -0.3997
22144W        W37953   6.245   0.363  12.853 -0.3742 -0.0604  0.1363
22145W        W37954  16.060   0.166   5.191 -0.0463 -0.1821  0.0623
22146W        W37955   3.689  18.766  14.601  0.1588 -0.3504  0.1275
22147W        W37956  10.912   2.173  12.998 -0.0867 -0.1180 -0.0669
22148W        W37957  17.925   2.791  10.239  0.0873 -0.4118  0.0821
22149W        W37958  15.577   8.752  13.429 -0.2601 -0.0237 -0.2528
22150W        W37959  13.219   9.512  12.679  0.4191 -0.0061 -0.1060
22151W        W37960   9.088  10.339  13.163  0.0118 -0.4591 -0.1161
22152W        W37961  11.880   5.408   4.406 -0.0662  0.2776 -0.0270
22153W        W37962   5.730  12.898  12.703  0.0499 -0.0312  0.2990
22154W        W37963   8.030  16.838  12.041  0.1594 -0.0321  0.4518
22155W        W37964  16.377   8.192  13.436  0.0124 -0.0293  0.0166
22156W        W37965  18.853  12.270  14.616  0.0161 -0.3616 -0.2654
22157W        W37966   7.805   1.096   1.997 -0.0830  0.2070  0.0785
22158W        W37967  11.698  10.918  13.003 -0.1599 -0.1943 -0.2601
22159W        W37968   4.732  17.460  12.966  0.2812 -0.4841  0.1682
22160W        W37969  17.001   6.825  10.361 -0.1129  0.0301 -0.0334
22161W        W37970   1.811   7.628   4.682 -0.1625  0.1689 -0.0148
22162W        W37971   1.490  17.779  13.001  0.3460  0.0302 -0.2450
22163W        W37972  11.756   2.940  11.961  0.0869  0.0164 -0.1112
22164W        W37973   7.479   8.689  14.646 -0.0773 -0.2755 -0.2696
22165W        W37974  12.245   4.183  15.044 -0.0838  0.1198  0.0182
22166W        W37975   4.929   0.483  12.353 -0.4710 -0.0738  0.2773
22167W        W37976  14.642  10.461  10.870  0.2529 -0.1465  0.1753
22168W        W37977   9.147   0.090   5.159  0.0376 -0.1526 -0.1457
22169W        W37978  10.831  16.829  14.658 -0.0244 -0.2735  0.1838
22170W        W37979   1.080  17.554   3.953 -0.3021  0.0149 -0.1799
22171W        W37980  14.719   2.172  12.500  0.3554 -0.1234 -0.0658
22172W        W37981  17.606  12.304  11.505  0.0716 -0.0149  0.2045
22173W        W37982   5.222  16.705  12.900  0.0430  0.1180 -0.4508
22174W        W37983   6.882   8.124   1.189 -0.2299 -0.1276 -0.0021
22175W        W37984   0.234   0.441  12.621  0.0638 -0.1663 -0.0237
22176W        W37985  16.588   7.854  15.101 -0.1562 -0.1111 -0.2009
22177W        W37986   9.389   9.378   4.028  0.0690  0.3854 -0.1053
22178W        W37987   7.027  16.954  14.985  0.1845  0.1153 -0.1350
22179W        W37988  15.040   7.361   2.092 -0.0184 -0.0973  0.0355
22180W        W37989   3.993  16.669   1.817 -0.0873  0.1610 -0.0162
22181W        W37990   3.807   0.304  15.044  0.1943 -0.1377 -0.1900
22182W        W37991   0.003  15.020  10.723  0.0321  0.3161  0.3731
22183W        W37992   3.871   8.031  13.644 -0.1147 -0.1642 -0.2298
22184W        W37993   6.191  15.943   2.574  0.1657 -0.2712  0.0951
22185W        W37994  17.213  12.173  14.170  0.0379 -0.4550 -0.0737
22186W        W37995   6.457  17.841   0.583  0.0705 -0.2225  0.1108
22187W        W37996  11.660  18.986   1.729  0.2349 -0.0090 -0.0924
22188W        W37997   3.965   5.142   9.088  0.1081 -0.0679 -0.0570
22189W        W37998  16.733  17.398  13.306  0.1832  0.0263  0.0851
22190W        W37999  13.015  12.923   5.224 -0.2447  0.3191  0.2223
22191W        W38000  17.595   4.260  12.152  0.1001  0.0987 -0.0053
22192W        W38001  18.930   3.334   3.468  0.1028  0.0175  0.1075
22193W        W38002  12.279   0.863   2.706  0.2363 -0.1323 -0.0427
22194W        W38003  13.808  13.456  12.993 -0.1003  0.1152 -0.4343
22195W        W38004  14.562   8.568   0.786  0.1036  0.1168  0.1799
22196W        W38005  15.413  16.624   0.924 -0.0855 -0.1308  0.0371
22197W        W38006  16.609   1.992  11.618  0.0105  0.0123  0.4127
22198W        W38007  13.368  15.694  11.422  0.1644 -0.2130 -0.2724
22199W        W38008   8.897  12.091  10.278 -0.1113 -0.3726 -0.2270
22200W        W38009   1.901   5.649   4.804 -0.2166  0.0628  0.0485
22201W        W38010   5.215   0.282   2.230  0.2115  0.3497 -0.3377
22202W        W38011  15.093  11.470  11.573 -0.1505  0.2387  0.0640
22203W        W38012   7.249   4.373  13.944 -0.0032  0.1529  0.0915
22204W        W38013   0.256  12.481  10.501 -0.2227  0.0267  0.2415
22205W        W38014   3.559  16.818  12.873 -0.1451 -0.2306 -0.1137
22206W        W38015   4.677   1.181   0.723  0.1418  0.0273 -0.0631
22207W        W38016  12.148   7.984   4.800  0.1631 -0.0057  0.2386
22208W        W38017  17.378   7.134  10.569  0.1745 -0.2867 -0.3401
22209W        W38018   2.735  16.079   1.848  0.0803  0.0887 -0.1570
22210W        W38019  10.029   5.747  15.199 -0.0889 -0.1242  0.0395
22211W        W38020   6.514   2.639   0.615  0.1748  0.0058 -0.4599
22212W        W38021   1.407   8.551   1.753 -0.2690 -0.0469  0.0391
22213W        W38022   0.428   1.186   9.401  0.0140  0.1175 -0.0361
22214W        W38023   3.511  12.431   9.993  0.3473 -0.0374 -0.2150
22215W        W38024   8.748   6.018  13.263 -0.0043  0.1617  0.0388
22216W        W38025  12.252  15.731  12.276 -0.1519  0.1791  0.1614
22217W        W38026  13.351  11.469  12.182 -0.3591 -0.1505  0.3435
22218W        W38027   2.431  13.306   0.667 -0.1985  0.1905 -0.2467
22219W        W38028   2.289  13.098  15.022  0.0398 -0.0332 -0.1470
22220W        W38029  14.056  11.172  15.134 -0.2153 -0.0355 -0.1118
22221W        W38030  12.638   0.162  11.169  0.4034 -0.3005  0.0711
22222W        W38031  17.687  12.244   4.265  0.1302 -0.1590  0.1492
22223W        W38032  15.888  11.436  13.722  0.2892 -0.4500  0.0704
22224W        W38033  18.704   7.760  14.706  0.0071  0.2380  0.2272
22225W        W38034  10.816  18.537  12.196 -0.1798  0.2791 -0.1983
22226W        W38035   2.816  15.929  14.476 -0.3646  0.2397 -0.0170
22227W        W38036   7.127   8.791  12.287 -0.1367 -0.3618  0.1500
22228W        W38037   4.193  11.883   5.674 -0.0345 -0.3981  0.1204
22229W        W38038   4.075  12.687  14.072 -0.1727  0.6323  0.1454
22230W        W38039   4.777   2.272  13.809  0.1646  0.0756  0.1207
22231W        W38040  15.600   0.108   4.496  0.2886 -0.2241 -0.3768
22232W        W38041  18.644   7.732   2.659 -0.1048  0.0523 -0.1591
22233W        W38042  19.053   6.154  14.843 -0.0635  0.1204  0.3242
22234W        W38043   2.070   4.801  14.467  0.1491  0.1623  0.1501
22235W        W38044  11.002  16.368  14.935  0.1391 -0.3615 -0.1225
22236W        W38045   2.768  13.628   0.816  0.0316  0.2402 -0.1921
22237W        W38046   6.993   1.361   4.544  0.2779  0.0449  0.3377
22238W        W38047   4.594   3.359   1.441 -0.0438  0.3341 -0.0699
22239W        W38048  16.488   4.766  14.977 -0.0103 -0.2153 -0.3548
22240W        W38049  15.091  12.021   0.130  0.0466 -0.3425 -0.0468
22241W        W38050  19.088  16.650   0.518 -0.0500 -0.0696 -0.1674
22242W        W38051   2.620  16.244  13.632  0.2355  0.3236 -0.0012
22243W        W38052  13.682   9.249   9.886  0.0076 -0.0522  0.1738
22244W        W38053  15.301  18.531  12.706  0.0526  0.2324  0.1972
22245W        W38054   5.570   5.157  10.643 -0.0976 -0.3267  0.0940
22246W        W38055   0.804   4.357   2.476 -0.1489  0.2922 -0.1162
22247W        W38056  12.157  13.002   0.733  0.2159  0.0517 -0.0166
22248W        W38057   5.369  17.851  11.223  0.1159  0.1690  0.1501
22249W        W38058  14.875  15.382   2.681  0.5099  0.0346  0.2719
22250W        W38059  18.045   9.152  11.588  0.0954  0.1618 -0.0715
22251W        W38060  16.104   9.827  12.648 -0.0276  0.0627  0.1950
22252W        W38061  12.598   7.531  12.725 -0.4236 -0.2629 -0.2993
22253W        W38062  15.990   6.084  15.047 -0.1020  0.1006  0.3414
22254W        W38063   6.422  12.014   3.405  0.1352 -0.0923 -0.1432
22255W        W38064   4.162   3.749  13.905  0.0648 -0.0397 -0.0791
22256W        W38065   1.512   4.028  11.030  0.1011 -0.0778 -0.0635
22257W        W38066  13.748  14.636   2.802  0.0663 -0.3578 -0.1157
22258W        W38067  16.375  16.762   1.435  0.2841  0.1425  0.0978
22259W        W38068   7.582   3.033   4.413 -0.0535  0.1439 -0.0762
22260W        W38069  14.891   5.462   1.771  0.1281 -0.2256  0.2506
22261W        W38070   0.789   1.660   2.918 -0.3042 -0.1762  0.1600
22262W        W38071   0.814  18.588  13.610  0.3298 -0.2986 -0.0783
22263W        W38072  13.065   5.933   4.493  0.1803  0.0136  0.1620
22264W        W38073  11.067  16.186   0.378  0.3260 -0.0217  0.1750
22265W        W38074   5.451   5.836  11.570  0.0004 -0.0610  0.1602
22266W        W38075   9.302  14.285  11.402  0.2801 -0.2002  0.2053
22267W        W38076   4.165   1.670   0.735 -0.1072  0.1186 -0.0479
22268W        W38077   7.076   6.110   2.926 -0.0382 -0.1176 -0.1430
22269W        W38078   1.300  11.348  15.146 -0.1420 -0.2459  0.3486
22270W        W38079   3.712  15.253  13.817 -0.1848  0.0299  0.1130
22271W        W38080  11.760   4.264  15.063 -0.0201 -0.1606 -0.1736
22272W        W38081  14.254  16.219   5.138  0.0606  0.2513  0.1604
22273W        W38082  15.931  12.029  11.392  0.3666  0.0179 -0.1114
22274W        W38083   7.948   5.534  13.071 -0.3202 -0.1491 -0.0619
22275W        W38084  16.313  12.068   2.093 -0.0530 -0.2575  0.0441
22276W        W38085  17.750   6.747   0.541  0.2921  0.2702 -0.0826
22277W        W38086   9.048   0.019  11.044 -0.2643  0.0936  0.2610
22278W        W38087   7.852   6.729   0.657 -0.1583  0.0809 -0.1457
22279W        W38088  16.152  15.459   4.807 -0.2886  0.1334  0.0754
22280W        W38089   1.469  15.767   2.240  0.0684  0.2583  0.1379
22281W        W38090   4.869   9.465  15.004 -0.0627 -0.0867 -0.3853
22282W        W38091  16.729  14.798   3.394 -0.2437  0.1376  0.1303
22283W        W38092  16.645   9.289   6.000  0.0945 -0.3082  0.0410
22284W        W38093  13.908   5.776   2.994 -0.0431  0.0167  0.0508
22285W        W38094   4.461   1.666  12.096 -0.1312 -0.3604  0.1325
22286W        W38095   6.561  12.748  11.705 -0.0627  0.1264 -0.4197
22287W        W38096   2.360   5.178  14.846  0.1000 -0.0808  0.2443
22288W        W38097   8.102  11.532   9.730 -0.1660 -0.1176 -0.4597
22289W        W38098  18.415   2.481   3.578  0.1558 -0.2536  0.2659
22290W        W38099   8.058   4.985  13.108  0.4365 -0.1549  0.1947
22291W        W38100   1.899   9.627  14.931 -0.0311  0.4909  0.1619
22292W        W38101   3.293  10.378   0.979  0.1655 -0.3204  0.0440
22293W        W38102   1.687   9.956   3.883 -0.4645 -0.0934 -0.3628
22294W        W38103   3.142   4.951  12.770  0.1505  0.1880  0.0104
22295W        W38104  10.900  17.759  10.826  0.0652 -0.3531 -0.0268
22296W        W38105   7.004  10.310   3.353 -0.0721  0.1593  0.0868
22297W        W38106  11.982  13.181   5.170 -0.1178  0.0485  0.2967
22298W        W38107   4.735   9.978   0.812 -0.2187  0.0183  0.1539
22299W        W38108  12.126  14.352  14.180 -0.3737 -0.1057  0.0338
22300W        W38109  11.174  11.262   3.701 -0.0106  0.0168  0.0284
22301W        W38110   8.968  15.877  14.121  0.2271  0.1687 -0.2628
22302W        W38111  15.145  11.051   9.574 -0.0178 -0.2293  0.5791
22303W        W38112   8.637  18.096  13.844  0.0339 -0.2183 -0.0687
22304W        W38113  14.292  10.476  12.190  0.2054  0.3229 -0.1736
22305W        W38114  17.249   9.196  10.987 -0.1278 -0.0166 -0.1400
22306W        W38115   7.515   7.111  11.816 -0.1928 -0.0248 -0.0061
22307W        W38116  17.867  18.312   0.778  0.2587 -0.2142  0.2932
22308W        W38117  14.377  11.329   5.468 -0.0676 -0.2582  0.1294
22309W        W38118   3.411   3.440  13.934 -0.1401 -0.0961  0.0591
22310W        W38119   6.006   9.175   0.025 -0.1521 -0.0043  0.2180
22311W        W38120   3.862  13.172   1.809  0.2460 -0.1441  0.1021
22312W        W38121  11.880   6.870   3.126 -0.2487 -0.2640 -0.1294
22313W        W38122   2.654  11.923   3.871 -0.1160 -0.2967  0.3629
22314W        W38123   5.788  10.841  11.610  0.2145  0.2034 -0.0346
22315W        W38124  16.014  14.981   5.810  0.2573  0.0154  0.0186
22316W        W38125  15.161   1.045  13.274 -0.0767 -0.1845  0.0463
22317W        W38126   2.461   4.705   0.756 -0.0449  0.0203  0.3370
22318W        W38127   4.224   9.306   9.987  0.1357 -0.1295 -0.2849
22319W        W38128   7.787  13.972  11.703 -0.1095  0.1612 -0.1012
22320W        W38129   3.155   5.404   2.751  0.0874  0.1720 -0.2577
22321W        W38130  14.722   6.149  11.952  0.0367 -0.1222  0.0572
22322W        W38131  10.982  13.884  10.159 -0.1139 -0.1077 -0.2100
22323W        W38132   7.350  16.716   3.129 -0.0034 -0.0218 -0.0199
22324W        W38133   8.526   8.397  12.954 -0.3027  0.2646  0.0640
22325W        W38134   3.238  13.783   4.336  0.3072  0.1128 -0.2177
22326W        W38135  10.031  12.784   4.262  0.3114 -0.5486 -0.2721
22327W        W38136   0.981   5.941  10.713  0.1956  0.0194  0.3983
22328W        W38137  10.018   1.650   1.965  0.0423 -0.1392 -0.1611
22329W        W38138   0.830  14.179  13.617 -0.2244  0.2936  0.1419
22330W        W38139  10.320  19.158   2.214  0.1546 -0.4526  0.1261
22331W        W38140   3.822   9.031  10.295  0.0620 -0.0408 -0.0037
22332W        W38141   9.264   2.491  14.778  0.0466  0.0558  0.1676
22333W        W38142  11.324  13.628  12.583 -0.0535  0.0046 -0.4257
22334W        W38143   3.737  18.323   2.741 -0.0589 -0.4122  0.2690
22335W        W38144   0.488   5.333  11.271  0.0769 -0.0708 -0.1462
22336W        W38145   2.548  15.644   4.817 -0.1878 -0.3786  0.1448
22337W        W38146   7.118   2.073  10.882 -0.1354 -0.2540 -0.0262
22338W        W38147  19.050   2.364  11.192  0.0380  0.0369 -0.0199
22339W        W38148  10.401   8.981  12.150 -0.2086 -0.3147  0.3022
22340W        W38149   8.239   8.219  14.312 -0.2248  0.0931 -0.2977
22341W        W38150  15.820  17.378   1.195 -0.1125 -0.1022  0.0831
22342W        W38151   7.637   3.611  10.725 -0.0746  0.3274 -0.4044
22343W        W38152   0.199  10.087  13.568 -0.0028  0.5272  0.0263
22344W        W38153   0.195   4.592  11.750  0.0175 -0.0734  0.0565
22345W        W38154  13.122  18.841  14.044  0.1861 -0.0956 -0.2896
22346W        W38155   4.161   1.094   0.603 -0.1145 -0.0844 -0.2619
22347W        W38156   4.030  14.702   3.320  0.3527 -0.1731 -0.0362
22348W        W38157   2.228   6.869  11.223  0.1793  0.0918  0.0321
22349W        W38158   6.843  11.215   5.088  0.0217 -0.2204  0.1349
22350W        W38159  17.243   6.047   3.150 -0.0609 -0.0979 -0.1769
22351W        W38160   9.023  12.481   3.349  0.1241  0.0336  0.1522
22352W        W38161  13.349   6.970   3.969 -0.2436 -0.2094 -0.0249
22353W        W38162   3.250  16.857  12.496 -0.1228 -0.4625 -0.0371
22354W        W38163   8.560   8.976  14.828 -0.1747  0.0924  0.0556
22355W        W38164   5.418  18.020   4.589 -0.0019  0.2180 -0.0670
22356W        W38165   7.194   1.379   3.337 -0.1475  0.0842  0.1471
22357W        W38166  19.028  12.997   0.635  0.1050 -0.2542 -0.0730
22358W        W38167   7.921   4.337  12.933  0.0260  0.0428 -0.2356
22359W        W38168  12.760   0.886  10.731 -0.2031 -0.1696 -0.1095
22360W        W38169  18.495  17.348  12.951 -0.0064 -0.1482  0.4601
22361W        W38170   6.653   4.150   2.204 -0.0436  0.1029 -0.0224
22362W        W38171   9.123   2.439   1.286 -0.2041  0.1308  0.2189
22363W        W38172   0.999  16.932  13.964 -0.5364 -0.0831  0.0356
22364W        W38173  17.846  14.750  11.073  0.1670 -0.1429  0.0420
22365W        W38174   4.514  11.817  12.429  0.1656 -0.5536 -0.0537
22366W        W38175   7.924  14.568  12.399 -0.0524 -0.1566 -0.2953
22367W        W38176   6.670  14.176  14.582 -0.0331 -0.1115  0.2418
22368W        W38177   4.757  12.039  10.629  0.1175  0.4083 -0.3557
22369W        W38178   0.423   5.419  11.831  0.1380 -0.1719  0.0882
22370W        W38179  16.649  16.651  13.750  0.2643 -0.1367  0.1723
22371W        W38180   4.956  10.228  12.527  0.1002 -0.0392  0.1906
22372W        W38181   6.182   8.138  12.842  0.2119 -0.1583  0.1047
22373W        W38182   7.358  12.690   0.210 -0.0377 -0.1031  0.1299
22374W        W38183  17.337  10.521  14.351  0.0542 -0.0204 -0.1750
22375W        W38184  15.681  17.437  11.314 -0.1423  0.0166  0.1481
22376W        W38185   9.368   3.093  13.651 -0.0638  0.0163 -0.0376
22377W        W38186  15.144   1.441   0.375 -0.2757 -0.1165 -0.2539
22378W        W38187  15.364  13.457  13.002  0.0078  0.1549  0.2187
22379W        W38188  16.366  10.482  11.845  0.3350 -0.0834 -0.1703
22380W        W38189   9.851  15.434  11.220 -0.1778  0.1984 -0.1668
22381W        W38190  10.799  19.041   2.099  0.3035 -0.2062  0.4080
22382W        W38191  15.718  16.910  13.843 -0.1164  0.1559 -0.0581
22383W        W38192   2.607  18.609  10.029 -0.1941  0.2937 -0.1720
22384W        W38193   8.012   3.966  10.493 -0.1625  0.0186  0.0384
22385W        W38194  17.263   1.573  13.620 -0.0871 -0.0227  0.1824
22386W        W38195   9.207   9.875   2.794 -0.0592  0.2573  0.2254
22387W        W38196   8.413  15.306   1.777  0.0840 -0.0888 -0.2199
22388W        W38197   2.495   0.112  12.556 -0.3697  0.2960  0.0470
22389W        W38198   2.069  12.001  10.593  0.0825  0.2697 -0.4035
22390W        W38199  12.828   5.629   0.745 -0.4953  0.0522  0.0671
22391W        W38200   7.117   4.304   3.634  0.1717 -0.2401  0.3196
22392W        W38201  14.998   0.950   4.566  0.0821 -0.1814  0.1487
22393W        W38202  17.660   4.007   4.431 -0.0829  0.0716  0.2294
22394W        W38203   5.356  17.668  10.745 -0.0152  0.1669  0.0314
22395W        W38204  17.102  15.342   4.520 -0.1922 -0.1438  0.1187
22396W        W38205  12.251   8.388   0.841  0.1801 -0.1154 -0.2184
22397W        W38206  11.664  14.560  12.854 -0.0028  0.0020 -0.0618
22398W        W38207   3.750  11.706   0.202  0.0341  0.3205  0.0399
22399W        W38208  14.702  15.153  11.280  0.1895 -0.1648 -0.0465
22400W        W38209  10.076   0.520   0.235 -0.0688 -0.0390  0.0768
22401W        W38210  14.163  11.946  14.674 -0.0871  0.3521  0.4075
22402W        W38211   9.148  11.771   5.340 -0.0713  0.1259 -0.3273
22403W        W38212   0.035  16.682  12.751 -0.3369  0.1547  0.3323
22404W        W38213  15.470   8.319  13.099 -0.0703  0.1462  0.0453
22405W        W38214  12.533  11.749   4.123  0.3527 -0.0062 -0.1132
22406W        W38215  15.160  16.323  14.293 -0.3813  0.1422  0.1496
22407W        W38216  17.817   6.414  14.972 -0.0144 -0.2105  0.0394
22408W        W38217  16.631  17.502   1.559 -0.1127 -0.1320 -0.1851
22409W        W38218  18.344   8.225   5.303  0.3123  0.1827 -0.3217
22410W        W38219  11.880  14.583  12.414  0.1953 -0.2172  0.4436
22411W        W38220  12.268   8.751  13.363 -0.0853  0.1243  0.0432
22412W        W38221  16.668  14.679  12.037  0.0147  0.1548  0.0464
22413W        W38222  17.864   3.549   1.761  0.0516  0.2384 -0.3299
22414W        W38223  12.723   0.441   0.223 -0.1826 -0.0451 -0.0242
22415W        W38224   0.193  14.209   5.044  0.1873 -0.2975  0.1042
22416W        W38225   0.927  18.534   3.570  0.0751  0.2768 -0.0074
22417W        W38226   8.677  11.424   3.332 -0.1765  0.0971  0.0256
22418W        W38227   9.759  18.418   5.390 -0.3170  0.1630  0.1639
22419W        W38228   4.971  12.594  13.434 -0.0193 -0.0471 -0.1172
22420W        W38229  12.740   9.695   3.339 -0.1010 -0.2399 -0.3123
22421W        W38230  10.871   1.088  11.595  0.0693  0.1941 -0.0883
22422W        W38231  15.054   3.817   1.192  0.4506  0.0313 -0.0144
22423W        W38232   2.901   5.296   1.227  0.1869 -0.0625  0.1254
22424W        W38233  10.085   1.566   3.884 -0.0209  0.2385 -0.0760
22425W        W38234   7.061  11.147  10.959  0.1077 -0.0066  0.0328
22426W        W38235  11.114  18.512   1.426  0.2155  0.0570  0.2630
22427W        W38236   6.451  11.464   9.890  0.2536 -0.1240 -0.2544
22428W        W38237   3.509   5.302  14.828  0.0441  0.0066 -0.0379
22429W        W38238   1.453  10.176   0.912  0.2747 -0.0290  0.3907
22430W        W38239  16.053   1.129   5.229 -0.2194  0.0540  0.4058
22431W        W38240   1.052  11.751   1.459  0.2138  0.0697  0.2073
22432W        W38241  16.230   2.765   5.167 -0.0394 -0.0956  0.0373
22433W        W38242  16.161  13.208   3.261 -0.0410  0.0090 -0.0557
22434W        W38243   6.647   7.395   3.067 -0.1472 -0.0036 -0.1329
22435W        W38244  14.547   3.751   1.266  0.0120  0.0462 -0.2567
22436W        W38245  18.675   1.519  10.762 -0.2634  0.2535  0.0409
22437W        W38246  17.989  15.799   4.122  0.1552  0.2884  0.0007
22438W        W38247   3.263   8.008  14.507 -0.1061  0.2478  0.2282
22439W        W38248   2.354  10.293  15.082 -0.0782  0.0782 -0.1873
22440W        W38249  12.277   5.089  13.213  0.1927  0.0818  0.0829
22441W        W38250  14.639  16.421  14.616 -0.1009 -0.0249  0.1268
22442W        W38251   3.885   8.876  14.632 -0.1540 -0.2035  0.4195
22443W        W38252  12.618  17.453   1.068  0.0057  0.0373 -0.0184
22444W        W38253   4.475   0.440  12.039 -0.0322  0.2358  0.1648
22445W        W38254   7.398  12.041   1.822  0.2639  0.1760 -0.0335
22446W        W38255   3.344   7.089  11.222  0.2404  0.0680  0.0767
22447W        W38256   3.022   9.875  13.666 -0.1253 -0.2007 -0.1719
22448W        W38257   4.390   7.786  12.408 -0.1409  0.2241 -0.0614
22449W        W38258   5.037  13.062  10.527 -0.4359 -0.0842 -0.0583
22450W        W38259   9.199   7.612  11.074 -0.0636 -0.2698  0.0482
22451W        W38260  16.769   1.191  12.176  0.0298 -0.2233 -0.1214
22452W        W38261   4.150   1.245   2.766 -0.3111 -0.1006  0.0468
22453W        W38262   1.891   9.817  11.253 -0.2210 -0.2334 -0.0890
22454W        W38263  11.315  13.715   3.769 -0.5226  0.0350 -0.1489
22455W        W38264  11.619   7.151  11.445  0.0667 -0.2079 -0.1000
22456W        W38265  10.597   2.989   1.304  0.0005  0.3850 -0.0643
22457W        W38266   5.211  14.906  15.198 -0.3995  0.2776 -0.0121
22458W        W38267  18.052  14.075  10.593  0.0129  0.0458  0.1712
22459W        W38268   7.094   8.933   0.785 -0.1008  0.2848 -0.1657
22460W        W38269   0.931   6.564  14.157 -0.3221 -0.1474 -0.2149
22461W        W38270   7.509   9.314   1.710  0.0473  0.1825 -0.0647
22462W        W38271   7.689  11.125  11.794  0.0078  0.0476 -0.3070
22463W        W38272  10.307   3.749   2.986  0.1029 -0.1083  0.3680
22464W        W38273  18.557  16.237   0.824 -0.1206 -0.1082  0.2116
22465W        W38274  17.799   2.395  12.360 -0.0558  0.0709 -0.0428
22466W        W38275   6.200  18.303  10.859 -0.0901 -0.2130  0.2940
22467W        W38276  13.110  14.961  13.005  0.0606  0.1490  0.0250
22468W        W38277  10.329  15.019   0.594 -0.0203  0.0057  0.0608
22469W        W38278  15.372   5.212  11.243 -0.0919  0.2232 -0.2697
22470W        W38279   6.345  13.654   3.742  0.2375  0.1543  0.0125
22471W        W38280   6.883   4.602   2.195 -0.0155  0.4198 -0.1949
22472W        W38281  12.657  18.735   5.157  0.2114 -0.0172 -0.0026
22473W        W38282  15.329   1.743  13.902  0.0195  0.2582  0.0866
22474W        W38283  16.923  10.641  14.643 -0.1395  0.2957 -0.3239
22475W        W38284   2.950   8.922  11.450 -0.1159 -0.0113 -0.0009
22476W        W38285  12.480   5.509   2.075  0.0949  0.1558 -0.0906
22477W        W38286  14.601   9.452  12.778 -0.1825  0.1081 -0.1110
22478W        W38287  16.157  11.003  11.022  0.3024 -0.0519 -0.0423
22479W        W38288   4.957   4.741   1.042 -0.1939 -0.0103 -0.2335
22480W        W38289  16.059   4.737  13.713 -0.0456 -0.2258  0.1987
22481W        W38290   8.495   0.986  14.282  0.1936  0.0604  0.1187
22482W        W38291  17.419   5.368   5.451 -0.1245  0.4767 -0.3830
22483W        W38292   4.922  13.487  12.952 -0.1523 -0.1042  0.2883
22484W        W38293   4.598   6.030   0.761 -0.0516 -0.1561  0.2687
22485W        W38294   4.626  18.911  10.967 -0.1349 -0.0696  0.2398
22486W        W38295  16.871  11.996  11.667  0.4894 -0.1315  0.0064
22487W        W38296  15.981  10.753   4.537 -0.2252 -0.3072  0.1417
22488W        W38297   5.612  14.922  11.482 -0.0839 -0.1825 -0.5071
22489W        W38298   9.349   0.913   3.682 -0.0860 -0.0382  0.0650
22490W        W38299  16.443   3.882   0.609  0.4305  0.4908  0.2706
22491W        W38300  11.391  13.244   3.725 -0.1338 -0.2599 -0.0855
22492W        W38301   9.111   2.336   0.827 -0.1231  0.2410  0.2083
22493W        W38302  13.397  14.295   4.295  0.0035  0.0052  0.1671
22494W        W38303   5.066  13.720   4.176  0.1035 -0.1961 -0.2262
22495W        W38304  11.541   6.770   3.830 -0.2473  0.1336 -0.1749
22496W        W38305   0.970  19.157  12.809  0.3430  0.1922  0.1480
22497W        W38306   0.994   9.336  10.572  0.2596 -0.0814 -0.3710
22498W        W38307  14.551  17.715   4.664 -0.4319 -0.0075  0.1604
22499W        W38308  11.084  11.863   0.829 -0.0882  0.0279 -0.1256
22500W        W38309   5.847   3.922  10.682 -0.4220  0.4003 -0.1816
22501W        W38310   9.629  13.173   3.687  0.3590 -0.3217  0.2639
22502W        W38311  15.304   1.856   0.929  0.2152 -0.0950  0.1803
22503W        W38312   3.247   0.448   2.504 -0.0025  0.0803 -0.0026
22504W        W38313   0.874   2.010  10.612  0.0792  0.0622 -0.1736
22505W        W38314   4.170   2.547   3.234 -0.3855 -0.0218 -0.0394
22506W        W38315  11.726  14.337  12.019  0.0152 -0.0583  0.0156
22507W        W38316   6.377  18.072  14.901 -0.3048  0.1656 -0.1035
22508W        W38317   3.839   2.569  12.510  0.3353 -0.1534  0.0929
22509W        W38318   6.689   1.057   1.926 -0.0921  0.0006  0.4140
22510W        W38319   8.202  14.254   3.111 -0.0768  0.0577 -0.1110
22511W        W38320  15.103   7.941  14.533  0.0089  0.2712 -0.3256
22512W        W38321   7.170   2.093   3.298 -0.1363  0.1029 -0.2004
22513W        W38322  12.239  16.796   0.594  0.3066 -0.3456 -0.0608
22514W        W38323  17.482  12.430  10.968 -0.1448 -0.1837  0.1636
22515W        W38324  16.720  12.309   0.413 -0.5803 -0.1583  0.0439
22516W        W38325   9.379   6.439  13.659 -0.3862 -0.1470  0.0886
22517W        W38326  11.175  17.577   1.187  0.3171  0.0843  0.1452
22518W        W38327   8.950   5.754  10.209 -0.2589  0.3805 -0.0724
22519W        W38328   7.420  15.087   5.468  0.0315  0.1018  0.0215
22520W        W38329   6.831  13.753   2.239 -0.2689  0.5807  0.0424
22521W        W38330  13.856  10.247  12.675 -0.3251  0.2417 -0.2041
22522W        W38331  17.435   5.155   1.891 -0.1619 -0.0575 -0.0998
22523W        W38332  13.641   6.864   4.403  0.0562  0.1135 -0.0413
22524W        W38333   7.690  15.025  13.523  0.2109 -0.1785 -0.0565
22525W        W38334   0.625  18.207  11.760  0.1236  0.1459  0.1044
22526W        W38335   1.552   0.362  12.276  0.0735  0.0858 -0.2429
22527W        W38336  13.706  16.788   5.463  0.0788 -0.0379  0.0954
22528W        W38337  11.550  11.697   3.889  0.0159 -0.2030 -0.1400
22529W        W38338   8.169   4.429   0.329 -0.0309  0.1406  0.0973
22530W        W38339   4.397  16.549   0.422  0.3586 -0.1889 -0.0412
22531W        W38340  16.585   3.075  11.687 -0.1429  0.0423  0.0451
22532W        W38341  12.032  17.424   5.393 -0.0337  0.1854  0.0072
22533W        W38342   7.031   7.697  14.745  0.2197  0.2217 -0.0671
22534W        W38343  13.367   9.863   1.537 -0.0344  0.2932  0.1353
22535W        W38344  16.051  18.717  11.053  0.3278  0.1004 -0.0969
22536W        W38345   9.579  11.228   2.269  0.2195  0.0463  0.1230
22537W        W38346  18.461   2.125  12.441  0.1182 -0.0412 -0.1138
22538W        W38347   3.587   7.017  14.660 -0.0808 -0.3183 -0.1641
22539W        W38348   0.658   5.495   2.128 -0.1201 -0.0998  0.1414
22540W        W38349  11.850  13.339  13.191 -0.1395  0.1273 -0.1550
22541W        W38350  11.994  17.935   0.539 -0.0585  0.1880  0.1396
22542W        W38351   2.736   7.776  13.537  0.0660  0.0095  0.1515
22543W        W38352   3.862   4.478   0.839  0.0043 -0.1942 -0.0319
22544W        W38353  19.071  16.024  11.979 -0.5161  0.0678  0.0540
22545W        W38354  18.877   0.882  13.319 -0.1033  0.0461 -0.3641
22546W        W38355   6.882  18.772   1.688  0.2843  0.1930  0.1121
22547W        W38356  12.238  18.636  13.097  0.0128  0.3577  0.1112
22548W        W38357   9.197   8.089   1.928  0.5011  0.0977 -0.1538
22549W        W38358  13.634  14.761  13.131 -0.2032 -0.0890  0.0508
22550W        W38359  16.637   8.685   2.184 -0.2606 -0.1682  0.1015
22551W        W38360  18.576   3.514  14.441  0.2943  0.0282 -0.0517
22552W        W38361   6.560   5.729   0.142  0.0249  0.2872 -0.4149
22553W        W38362   1.951   5.145   0.950 -0.2286 -0.0111  0.2195
22554W        W38363   1.616   6.796  13.011 -0.0393 -0.0868 -0.1242
22555W        W38364   1.380  18.324   1.840  0.4215  0.2513 -0.2093
22556W        W38365   5.702   8.892   4.221  0.0194 -0.0315 -0.2622
22557W        W38366   0.766  15.443   1.568  0.0407  0.0611 -0.1894
22558W        W38367  11.018   0.336  14.078 -0.3455 -0.1679 -0.0184
22559W        W38368  13.751   7.790  13.857  0.0427 -0.2210 -0.2204
22560W        W38369   3.552   9.832  13.088 -0.0218  0.0329  0.0158
22561W        W38370   7.568   1.075  13.946 -0.0728 -0.1877  0.0514
22562W        W38371  15.927   8.147  12.359  0.2271  0.0632  0.3523
22563W        W38372   7.712   2.933  10.234  0.0368 -0.2894 -0.2714
22564W        W38373  18.523  10.045   3.739 -0.4468  0.1271  0.1517
22565W        W38374   5.842   0.105  13.662 -0.1633  0.4177  0.0650
22566W        W38375   6.277  14.746   1.515  0.2343 -0.1854 -0.2476
22567W        W38376   5.031   4.075  12.700  0.2003 -0.1642 -0.2730
22568W        W38377  11.352  13.816  10.530  0.0759  0.1346  0.0525
22569W        W38378  10.202   9.005   2.159 -0.0641  0.4075 -0.0022
22570W        W38379  12.932  17.439  11.122 -0.0757 -0.1946 -0.1366
22571W        W38380   4.228  13.034  14.522  0.0824 -0.0032  0.0438
22572W        W38381   3.952   9.360   0.050  0.3926  0.0801  0.1169
22573W        W38382  12.497   7.365   0.910  0.0106  0.1625 -0.0592
22574W        W38383   3.772  15.185   1.681  0.3087 -0.0201 -0.0479
22575W        W38384   0.648  13.963   3.367 -0.0931  0.0121  0.2746
22576W        W38385  17.137  11.162  12.808  0.0750 -0.0188  0.0279
22577W        W38386   6.651   3.623   2.224  0.2459  0.2596  0.1775
22578W        W38387  10.716  15.918  10.927 -0.1165 -0.0589  0.1114
22579W        W38388   4.790   3.390  11.536 -0.2916 -0.1470  0.1508
22580W        W38389  16.216   9.946  10.308  0.0470 -0.4478  0.1400
22581W        W38390  13.988   3.214   0.440  0.1012  0.1539  0.1722
22582W        W38391   8.099  13.912   2.353 -0.0967 -0.0816  0.3483
22583W        W38392   3.128   0.964   2.312  0.0056  0.2420  0.0080
22584W        W38393   3.698  16.379   2.596 -0.2158  0.1299 -0.7239
22585W        W38394  17.285   0.786   1.324 -0.0069 -0.1290  0.1304
22586W        W38395  19.122   1.058  11.216 -0.1112  0.2749 -0.1202
22587W        W38396  16.380  17.191  14.620  0.0069  0.1052  0.1751
22588W        W38397   5.748  10.968   0.252  0.5203  0.2286 -0.0965
22589W        W38398   2.941  14.603   4.746 -0.1651  0.2800 -0.2689
22590W        W38399  15.978  16.274   3.483 -0.0929 -0.0599  0.0994
22591W        W38400  18.969  10.024   1.496 -0.1420 -0.3538  0.0611
22592W        W38401  10.781  17.191  11.517 -0.1235  0.1067  0.2562
22593W        W38402   0.104  14.832  13.465  0.3386 -0.1270 -0.0805
22594W        W38403  15.762  13.510   2.067 -0.1535 -0.1049 -0.0121
22595W        W38404   2.373  13.291  10.469  0.1564  0.4040  0.3076
22596W        W38405   5.886  12.056  14.226  0.0368  0.1375 -0.0978
22597W        W38406   1.172  15.678   1.834  0.2158 -0.0279 -0.0808
22598W        W38407   3.532   8.298  13.901 -0.3716  0.1304  0.1911
22599W        W38408   0.487  13.755  12.332 -0.3229  0.1528 -0.2432
22600W        W38409  11.371  11.714  12.611 -0.0738  0.4159 -0.1631
22601W        W38410  18.288  10.318  13.227 -0.1430  0.2879 -0.0801
22602W        W38411   5.069  13.382   4.623 -0.2212  0.0797 -0.1773
22603W        W38412  18.569   6.734  13.741 -0.2245 -0.1404 -0.0652
22604W        W38413   0.525   2.673   0.087 -0.1502 -0.1320 -0.2580
22605W        W38414   0.463   5.074   3.792  0.2107 -0.0254 -0.2383
22606W        W38415  16.300  11.273   2.952 -0.2722 -0.0347 -0.3593
22607W        W38416  17.964  11.619   0.297  0.1344 -0.3254 -0.0663
22608W        W38417  12.172   1.545  12.493  0.3090 -0.2390 -0.0611
22609W        W38418   0.722   1.095   2.047  0.2491 -0.1715  0.2674
22610W        W38419  13.473   0.156  11.020 -0.0524  0.1165 -0.0967
22611W        W38420   8.407  12.460   3.505 -0.1592  0.1973 -0.1190
22612W        W38421   5.831   1.099   9.552  0.1003 -0.1367 -0.0445
22613W        W38422   7.530   3.896   4.738 -0.1955  0.1315  0.0606
22614W        W38423   2.980   3.195   1.339  0.2559  0.0205  0.2262
22615W        W38424   5.764   6.329  13.967 -0.3407  0.2147  0.1485
22616W        W38425  16.216   8.490   1.394 -0.1543 -0.0580 -0.2423
22617W        W38426   2.450  14.046   0.114 -0.0702 -0.1239 -0.2349
22618W        W38427  10.075  11.367   4.755  0.2360 -0.0874  0.4368
22619W        W38428   3.716  18.975  15.056 -0.4539 -0.3264 -0.1430
22620W        W38429   9.431   8.874   1.178 -0.4331  0.1692  0.0069
22621W        W38430  16.232  14.303   1.129 -0.2717 -0.0108 -0.2809
22622W        W38431   0.810   2.915  12.472  0.0553  0.0120 -0.2308
22623W        W38432  16.840  17.611   4.260  0.1759 -0.1079  0.3819
22624W        W38433   1.782   3.060  14.035 -0.2407 -0.1314  0.0330
22625W        W38434  13.510  13.824   2.474  0.0310 -0.1116  0.2426
22626W        W38435   0.322   1.055   1.731 -0.0348  0.0157 -0.0003
22627W        W38436   6.839   5.237   1.341 -0.2194  0.0257 -0.2720
22628W        W38437   2.737  16.963  12.463  0.0574  0.2777 -0.1577
22629W        W38438  19.003  12.536  15.004  0.0678  0.0806  0.3900
22630W        W38439  18.844  12.462   1.641  0.0121 -0.2460  0.2869
22631W        W38440  16.595   7.717   1.241 -0.1433 -0.1229 -0.2243
22632W        W38441  14.269  12.441  14.814  0.0296  0.2408 -0.0711
22633W        W38442   1.815   5.065  12.695  0.0287  0.0120 -0.2198
22634W        W38443   8.808   3.213  11.380 -0.1548 -0.1664 -0.0739
22635W        W38444  12.017  15.419   2.822 -0.0077 -0.2339  0.1308
22636W        W38445  15.030   9.245   1.467 -0.1037  0.0361  0.1427
22637W        W38446  15.752   6.977   3.968 -0.1507  0.2627  0.0273
22638W        W38447  11.896  16.207  11.057 -0.0823  0.3346  0.0374
22639W        W38448   0.202   4.938   0.595  0.1392 -0.0557 -0.2744
22640W        W38449  14.061  16.648   4.980  0.0413  0.2710 -0.2086
22641W        W38450  11.265   1.672  10.845 -0.2937 -0.2255 -0.1327
22642W        W38451   3.098  15.369  14.720  0.3033 -0.1142 -0.0914
22643W        W38452   6.598  12.717   4.072  0.2963 -0.2347 -0.2939
22644W        W38453   4.441   5.566   1.443 -0.1486  0.2192  0.2132
22645W        W38454   6.481  10.439   4.785 -0.1108 -0.0634  0.2767
22646W        W38455   2.319   5.488   1.078  0.0818  0.1855 -0.0166
22647W        W38456  14.326  12.528   0.790  0.1144  0.2021  0.2248
22648W        W38457   7.072  13.129   1.087  0.1364  0.4082 -0.4946
22649W        W38458   4.721   3.913  14.113 -0.1279 -0.0763 -0.1659
22650W        W38459   4.711   3.153  12.993  0.2522  0.1341  0.0693
22651W        W38460   1.200   4.661  12.308  0.1526  0.1549 -0.1105
22652W        W38461  12.645   8.637   0.995  0.0330  0.0289 -0.0869
22653W        W38462  18.747  16.037  14.373 -0.1080 -0.0716 -0.0808
22654W        W38463  11.301   0.188  11.998  0.1154 -0.2865 -0.1374
22655W        W38464   1.741   1.383  13.698  0.0656 -0.2626  0.3617
22656W        W38465   4.820   5.019  10.805  0.0392  0.0456 -0.3365
22657W        W38466  18.257  15.813   2.891  0.0886  0.1255  0.0922
22658W        W38467   7.897   8.943   1.401 -0.2091  0.0396  0.3818
22659W        W38468  12.740  16.505  13.691  0.1785  0.0851 -0.0425
22660W        W38469   5.796   7.043  14.922 -0.1017  0.1000 -0.1941
22661W        W38470  10.599   8.224  12.430  0.0368 -0.2617  0.1478
22662W        W38471   7.605  16.351  12.262 -0.0074  0.1698  0.0858
22663W        W38472   1.814   6.868  10.911 -0.0219 -0.1462  0.3116
22664W        W38473  16.580   1.107  13.253 -0.0281  0.1636 -0.3184
22665W        W38474  12.360  19.050  12.891  0.1651  0.1385  0.3610
22666W        W38475   0.701   4.162   0.016 -0.1904 -0.1954  0.2194
22667W        W38476   5.883  15.197  14.208 -0.1273  0.0702  0.0578
22668W        W38477   0.834  12.875   4.139  0.0063  0.1712  0.1120
22669W        W38478  10.323  14.504  15.129  0.1250 -0.2660 -0.1962
22670W        W38479  14.710   7.857   0.461  0.5194 -0.4469 -0.2115
22671W        W38480   2.319   2.140   1.673 -0.5142 -0.2558  0.0750
22672W        W38481   8.371  16.578   0.920  0.0481  0.1000 -0.5319
22673W        W38482  11.580  12.676   3.889 -0.0794 -0.2463 -0.1781
22674W        W38483   0.524   9.337   1.011 -0.2160 -0.4658 -0.0430
22675W        W38484   4.308  15.087  14.632  0.0378 -0.3769 -0.1046
22676W        W38485  10.967   8.834   2.604 -0.1436 -0.1667 -0.0163
22677W        W38486  13.629   6.389  12.006 -0.0388 -0.0065 -0.0906
22678W        W38487  14.355  13.889  11.862  0.1272 -0.0838 -0.0957
22679W        W38488   6.606   1.306   1.067 -0.0307  0.0156 -0.2851
22680W        W38489  15.828   0.784   0.359 -0.1623  0.2186 -0.2082
22681W        W38490   2.783   1.748  13.993 -0.1065  0.3531  0.1650
22682W        W38491  17.690   8.707   0.580 -0.0236 -0.2482  0.1473
22683W        W38492  12.699   5.570  10.695 -0.1361  0.0722 -0.4459
22684W        W38493   7.544  17.745   3.198  0.1857  0.0234 -0.1150
22685W        W38494  16.472   6.472   4.170 -0.1994 -0.0363 -0.2504
22686W        W38495   3.064  14.723   3.768 -0.2963  0.2688 -0.1558
22687W        W38496   6.286  14.242  11.330 -0.1055  0.2892 -0.0864
22688W        W38497  18.735   7.284   0.512  0.1613  0.1694  0.2466
22689W        W38498  16.416   0.411  12.690  0.0818  0.3356  0.0755
22690W        W38499   4.880  13.488  14.205 -0.0457  0.0287  0.2630
22691W        W38500  14.334   9.360   0.888  0.1461  0.1422  0.1911
22692W        W38501   7.405  10.252  12.502  0.1176  0.1204 -0.0802
22693W        W38502   1.398  10.661  10.454 -0.0455  0.1872 -0.3506
22694W        W38503   9.736  17.662   2.713 -0.1931 -0.2114  0.0707
22695W        W38504   2.902   8.732  12.379 -0.3286 -0.1067 -0.2996
22696W        W38505   5.455  15.711  14.049 -0.3647 -0.1003  0.2091
22697W        W38506   5.663  10.239   3.795  0.0134  0.1884 -0.3781
22698W        W38507   4.972   1.108   4.498 -0.0920 -0.0495  0.0766
22699W        W38508   0.671  14.923   3.539 -0.2235 -0.1716  0.0980
22700W        W38509  17.007  15.089  10.827  0.1124  0.1171 -0.2632
22701W        W38510   7.446   2.393   3.639  0.0833  0.4333  0.0100
22702W        W38511   5.718   9.712   1.700  0.0628 -0.3900 -0.0759
22703W        W38512   6.021   5.565   2.685 -0.2163 -0.0343 -0.0431
22704W        W38513  12.240   6.252   0.088  0.1298 -0.0866 -0.2126
22705W        W38514   9.124   5.547  14.797 -0.3425  0.1128  0.0924
22706W        W38515   2.361   5.327  13.371 -0.1343 -0.1946 -0.2311
22707W        W38516  10.449  13.166   4.377  0.0621  0.0744  0.0506
22708W        W38517  16.264  13.009  13.304 -0.0107  0.0746  0.1024
22709W        W38518   8.387  18.086   3.658  0.2021  0.1626 -0.1474
22710W        W38519   3.073   5.584  11.025 -0.4586 -0.3103 -0.1998
22711W        W38520  11.176   5.250   3.377  0.0333  0.2154  0.0495
22712W        W38521  17.088  19.021   2.911  0.3761  0.2776 -0.1853
22713W        W38522  14.244   7.350   0.736 -0.1591 -0.0176 -0.1152
22714W        W38523  12.793   1.431  13.388 -0.1633 -0.0105 -0.2866
22715W        W38524  14.711   7.686  12.888 -0.1718  0.0747 -0.1911
22716W        W38525   8.149   7.862   4.399 -0.0960 -0.2943 -0.2841
22717W        W38526   9.743  11.404  11.562 -0.2010 -0.1302 -0.1251
22718W        W38527   2.808   3.458  11.034 -0.1977  0.4104  0.2471
22719W        W38528   4.111  17.159  12.467  0.3314  0.2262 -0.1302
22720W        W38529   4.427  12.292  15.153 -0.0387 -0.2576 -0.2625
22721W        W38530   0.516  12.408  12.477  0.0571 -0.0208 -0.4117
22722W        W38531   7.296   6.163  13.947 -0.0059 -0.0871  0.1340
22723W        W38532   1.838   0.873  12.147  0.1028 -0.0240 -0.2382
22724W        W38533   8.087  11.714   0.348 -0.2905  0.0414  0.1183
22725W        W38534  17.593  10.453   3.034  0.3706  0.1241  0.1277
22726W        W38535   6.417   2.587  13.530 -0.0180  0.0560 -0.0036
22727W        W38536  14.524   3.841   3.929  0.0586  0.0311 -0.2704
22728W        W38537   6.930   2.362   2.988  0.2464 -0.2203 -0.0404
22729W        W38538  12.280   8.811   2.274 -0.0498 -0.0222  0.0206
22730W        W38539   0.873   4.601  10.968 -0.3186  0.0049  0.4482
22731W        W38540  15.232   7.895   4.016 -0.2673 -0.1068 -0.2352
22732W        W38541   6.415   9.816  11.220  0.1085 -0.1642  0.0225
22733W        W38542  11.385  12.518  10.400 -0.1980  0.2105 -0.0109
22734W        W38543  11.671   9.912   1.940 -0.0864 -0.0571 -0.0030
22735W        W38544   3.013   1.164  10.696  0.0322  0.0913  0.0483
22736W        W38545   6.109   1.689   2.428 -0.0427 -0.0567 -0.0167
22737W        W38546  18.464   4.074   3.669  0.3472  0.2762 -0.0093
22738W        W38547  18.023   4.033   5.151 -0.2534  0.1128 -0.1307
22739W        W38548   5.586   8.514  10.094  0.2582  0.0938  0.0311
22740W        W38549  13.934   1.842  11.940 -0.2862  0.1418 -0.0863
22741W        W38550  17.468   0.897  14.286 -0.0537 -0.0307 -0.0891
22742W        W38551   0.674  14.564  11.134 -0.3694 -0.0229 -0.1021
22743W        W38552  18.826   2.687  14.168 -0.0543 -0.0443 -0.4392
22744W        W38553  11.499   9.245   3.255 -0.1031  0.2039 -0.2520
22745W        W38554  13.521   9.533   4.619  0.2356 -0.1482  0.1690
22746W        W38555   3.106   9.228  11.043 -0.0111 -0.1034 -0.0439
22747W        W38556   6.568  13.808  11.388  0.0339 -0.2159 -0.0512
22748W        W38557  11.448   6.350   2.061 -0.2601  0.0516 -0.0164
22749W        W38558  16.020   4.037   4.900 -0.1170  0.0234 -0.1326
22750W        W38559   1.708  18.523   3.632 -0.0078  0.0430  0.2556
22751W        W38560   1.509  14.778   1.323  0.3145  0.1055  0.0078
22752W        W38561   4.189   1.333   3.890  0.0697 -0.1855 -0.0238
22753W        W38562   2.663   1.087  13.875 -0.0767 -0.1852  0.0869
22754W        W38563  14.540  16.968   0.715 -0.3480  0.1030  0.1358
22755W        W38564  11.325   4.693  14.237  0.0734  0.1586  0.1459
22756W        W38565  10.255  18.257   9.763  0.1202  0.0109 -0.3702
22757W        W38566   2.945   2.811   3.409 -0.3885 -0.1176 -0.0189
22758W        W38567   9.857   4.923   2.145 -0.1579  0.0468  0.1665
22759W        W38568  14.033  12.367  12.551 -0.0823 -0.0149 -0.0794
22760W        W38569  13.271  15.351  11.086  0.1431 -0.0314 -0.1017
22761W        W38570  15.279  18.609   4.999 -0.0995 -0.4510  0.0960
22762W        W38571  17.351   8.105   4.623 -0.2185 -0.1604 -0.0596
22763W        W38572  16.696   1.493   0.692  0.1746  0.4964  0.1352
22764W        W38573  12.577  15.031  13.785  0.0597  0.2132  0.4859
22765W        W38574  15.838   1.504   3.188  0.1489 -0.1853  0.1348
22766W        W38575   6.960  12.326   0.855 -0.1670  0.0024  0.0597
22767W        W38576  10.769   3.825  10.292  0.1928 -0.1456  0.3004
22768W        W38577   8.707  14.418   1.048  0.3420 -0.3475 -0.1205
22769W        W38578   6.601   6.019  14.966 -0.0687 -0.2579  0.0723
22770W        W38579  18.799  12.725   2.902  0.3639  0.0931 -0.0706
22771W        W38580  18.915  17.007   3.336 -0.4935 -0.2255  0.1672
22772W        W38581  13.011   1.723  11.702 -0.0410 -0.2142  0.2695
22773W        W38582  14.937  18.789  14.890  0.1637  0.1615 -0.0965
22774W        W38583  18.686  16.789  10.938 -0.1447  0.0354 -0.2068
22775W        W38584  13.464   1.465  15.191  0.0028  0.1142  0.1399
22776W        W38585  10.132  11.691  14.661  0.1068 -0.2010 -0.2392
22777W        W38586  13.165  12.598   4.868  0.0220  0.4723 -0.2534
22778W        W38587   5.098   8.453   0.726  0.0981  0.0426  0.0364
22779W        W38588   1.223   8.415   1.234 -0.0076 -0.0544  0.0366
22780W        W38589  16.980   2.252  11.867  0.1171 -0.2308 -0.1601
22781W        W38590  15.000   2.986   1.571 -0.0590  0.1161 -0.1803
22782W        W38591  17.773   0.254  11.393 -0.0697 -0.1179  0.2684
22783W        W38592   5.121  15.357  10.061  0.0674 -0.0397  0.2486
22784W        W38593  15.199   3.990  13.313  0.3420  0.1252  0.0544
22785W        W38594   5.651  18.496  12.061  0.3996 -0.2058 -0.3311
22786W        W38595   5.117  12.845   3.606 -0.0122 -0.1753  0.2707
22787W        W38596  17.536  16.877  11.198 -0.4183  0.2368  0.1538
22788W        W38597   9.807  13.463   0.919 -0.1207 -0.1554  0.0165
22789W        W38598   5.660  18.533   0.705 -0.4297 -0.2112 -0.2501
22790W        W38599   9.559   2.131   2.701  0.1583  0.0413  0.2343
22791W        W38600   3.477  15.448   2.631  0.4419  0.1377  0.0553
22792W        W38601   8.169  14.791   4.936  0.0065  0.1388 -0.0999
22793W        W38602   6.696  18.116  13.438  0.1562 -0.2582 -0.0868
22794W        W38603   7.882  19.012   1.553  0.4995 -0.0540  0.0950
22795W        W38604   8.606   8.057  13.954 -0.0438  0.1340  0.3002
22796W        W38605   1.875   1.230  12.573 -0.3639  0.3499  0.1197
22797W        W38606  13.130  18.623   5.328  0.1851 -0.2064 -0.2298
22798W        W38607   4.545  11.182   3.036 -0.0726 -0.1496 -0.1368
22799W        W38608   8.535   8.581  14.032  0.1549 -0.3130  0.0275
22800W        W38609  18.871  10.594  15.060  0.0474 -0.0546  0.3106
22801W        W38610   8.421   9.731   0.653  0.1207  0.0870 -0.1121
22802W        W38611   9.908  12.097  14.367 -0.2347 -0.0365 -0.0489
22803W        W38612  19.130  17.207   2.328  0.0244 -0.1090  0.3908
22804W        W38613   5.039   4.219  13.624  0.0008  0.0734 -0.2380
22805W        W38614   6.339  17.398   2.749  0.1083  0.0033 -0.0737
22806W        W38615   5.398  11.004   1.722 -0.0708  0.1246  0.0973
22807W        W38616   1.249   6.139  14.762 -0.0892 -0.1922 -0.4723
22808W        W38617  16.445  15.452   1.124 -0.1552 -0.3566  0.0837
22809W        W38618  14.530   5.329   4.125  0.2438  0.0827  0.0375
22810W        W38619  17.810   3.715   4.853 -0.1300  0.0720  0.1119
22811W        W38620   8.096  14.128  12.505  0.1547 -0.0673  0.0087
22812W        W38621  19.033  17.802   4.876 -0.0643 -0.0279 -0.3660
22813W        W38622   7.621   6.687  12.221 -0.1620 -0.0744  0.2291
22814W        W38623  15.309  17.467   3.601 -0.0399 -0.1262  0.0948
22815W        W38624   6.094   6.428   1.666  0.0969 -0.1621  0.0629
22816W        W38625  12.892  16.965   0.663 -0.1633 -0.2362 -0.0112
22817W        W38626  14.124  15.570   1.007 -0.2875 -0.1412  0.1016
22818W        W38627   3.926   1.850  14.330  0.1667 -0.0646  0.0331
22819W        W38628   0.004  10.729   3.491  0.1931 -0.0025 -0.1221
22820W        W38629   7.413  16.632  10.653 -0.1577 -0.1961 -0.2767
22821W        W38630  18.413   6.875  12.883  0.2676 -0.3329 -0.2219
22822W        W38631   9.522  11.290  12.950 -0.1935  0.2899  0.0812
22823W        W38632   7.906   9.288  10.432  0.0652  0.0452  0.0210
22824W        W38633  17.988  13.541  14.070  0.0733  0.2989  0.1228
22825W        W38634   1.058   5.440  10.626 -0.1831  0.0329 -0.2109
22826W        W38635  10.536   3.098   2.398  0.0645 -0.2738 -0.1019
22827W        W38636  17.985   2.555  14.344 -0.1386  0.1656 -0.4973
22828W        W38637  11.863   4.070   4.558 -0.3191 -0.3218 -0.0128
22829W        W38638  15.869  14.613   2.971  0.0952  0.2642 -0.1205
22830W        W38639   4.022  14.704  14.407 -0.5648 -0.2093 -0.3246
22831W        W38640  18.487  12.768  15.130 -0.3022  0.0689 -0.0315
22832W        W38641   6.540  12.574   4.646  0.1080  0.0745 -0.0082
22833W        W38642   6.023   7.386   4.060 -0.1007 -0.2088  0.0573
22834W        W38643  16.624  13.079  12.963 -0.0122 -0.2271  0.2425
22835W        W38644   9.510   4.262  12.228  0.4212  0.1188  0.1246
22836W        W38645  12.031   7.305   0.132  0.1227 -0.1069 -0.2017
22837W        W38646   1.024  12.674  12.875 -0.0244 -0.4314 -0.0356
22838W        W38647   4.615  12.149   2.424 -0.1501 -0.2358  0.0170
22839W        W38648  11.511   3.236  11.551 -0.0993 -0.1087 -0.0212
22840W        W38649   4.348  10.699  11.347 -0.1089  0.1050  0.2394
22841W        W38650  11.656  18.229  14.139  0.0870 -0.0783 -0.2728
22842W        W38651   6.301   7.394   3.650 -0.0940  0.2075  0.0710
22843W        W38652   1.297   1.742  12.391  0.0536 -0.1577 -0.2534
22844W        W38653   4.417  14.034  11.319  0.0346  0.0035 -0.0566
22845W        W38654  15.365   7.110   0.321  0.1175  0.0396  0.1257
22846W        W38655  16.477  17.482  13.739 -0.1170 -0.2825 -0.3585
22847W        W38656   7.900  15.889   5.726  0.0157  0.0349 -0.0279
22848W        W38657   8.989   8.729  13.233  0.1778 -0.0524 -0.3535
22849W        W38658  18.825  12.048  10.771  0.2327 -0.1274 -0.4092
22850W        W38659  13.431   3.756  11.304  0.3012  0.0657  0.3172
22851W        W38660   3.681   9.253   1.220  0.1858 -0.2324  0.2593
22852W        W38661   2.873  15.539   1.821 -0.2011  0.2225 -0.1527
22853W        W38662  14.719   5.519   4.766 -0.1093  0.0303  0.3100
22854W        W38663  19.027   7.624   4.182 -0.0851 -0.0882 -0.2629
22855W        W38664   1.890   6.060   1.829  0.0413  0.2996  0.0728
22856W        W38665  11.743   6.030   0.187  0.0893 -0.1979  0.0193
22857W        W38666   5.709   7.943   3.310  0.0023  0.0322 -0.0868
22858W        W38667   6.086   0.173  14.624  0.0030  0.1677  0.0348
22859W        W38668   8.694  15.099   4.338  0.2364  0.1397  0.0670
22860W        W38669   1.678  13.832  12.091 -0.0718 -0.5511  0.0658
22861W        W38670  17.610   7.544   0.837  0.1397  0.0992 -0.0416
22862W        W38671   6.974   4.860   4.746 -0.3968 -0.2146  0.0863
22863W        W38672  18.636   0.550  11.009  0.1114  0.0533  0.1785
22864W        W38673  18.315  16.477  12.778 -0.0346 -0.0246  0.4670
22865W        W38674   1.071  12.453  14.846 -0.0509 -0.1787  0.3694
22866W        W38675  14.705  13.650   4.848  0.0136  0.0190 -0.2636
22867W        W38676   4.600   2.732  11.833 -0.1926 -0.2578  0.2038
22868W        W38677   1.085  10.187   1.199 -0.1691 -0.0081 -0.0601
22869W        W38678  15.408   7.240   5.625 -0.0713  0.2154 -0.2291
22870W        W38679  14.345  15.049  12.670  0.1164 -0.2053  0.4089
22871W        W38680   2.817   3.408  14.564  0.2367 -0.0208 -0.1299
22872W        W38681   0.598   7.283   3.247  0.4394  0.1005 -0.2234
22873W        W38682   3.682  13.501   2.145  0.0220 -0.2919 -0.4816
22874W        W38683   5.924   8.867  10.350  0.0249  0.1292  0.0317
22875W        W38684   6.134  16.899   4.894  0.0857  0.3215 -0.0994
22876W        W38685   0.007  14.556  11.025  0.0344  0.1042  0.1182
22877W        W38686   0.369  15.251   4.307 -0.0249  0.0307  0.1606
22878W        W38687  14.408   9.017   3.716 -0.2141  0.0274  0.4644
22879W        W38688   5.336  18.259   0.429 -0.2062  0.0902 -0.1714
22880W        W38689   9.275  13.962  13.513  0.0188  0.3168  0.0562
22881W        W38690  14.436  13.095  12.139 -0.1014  0.1478  0.0696
22882W        W38691  14.560  11.335  10.559  0.1760  0.1433  0.0063
22883W        W38692   3.535  18.572   3.364  0.0531 -0.0874 -0.2529
22884W        W38693   8.487   6.081   0.590  0.0359 -0.1255 -0.1635
22885W        W38694  14.875   4.162  13.831 -0.2360  0.1533  0.2078
22886W        W38695   3.415  15.046   1.237  0.2895  0.0358 -0.1789
22887W        W38696  11.528  16.042   4.319 -0.1171 -0.0169  0.2343
22888W        W38697  16.632   3.594   6.164  0.2068  0.1902  0.0145
22889W        W38698  15.139   5.778   6.044  0.0954  0.1897 -0.1497
22890W        W38699   0.968   8.505   4.095  0.0143 -0.3981  0.0215
22891W        W38700   7.262   7.259   2.019  0.4539 -0.3765 -0.1552
22892W        W38701  10.771   6.776  14.531  0.1183  0.1217 -0.1430
22893W        W38702  17.360   9.674  14.198  0.2808  0.0005 -0.1228
22894W        W38703   5.100  12.935   3.159 -0.0585 -0.0000  0.0385
22895W        W38704   5.129  13.839  15.182  0.1610  0.0942 -0.0303
22896W        W38705  10.375   6.149  15.093  0.1505  0.2354 -0.0899
22897W        W38706  16.175  15.884   3.943  0.1824  0.0115  0.0490
22898W        W38707  12.609   0.704  12.093  0.1655 -0.0082  0.1198
22899W        W38708  17.042   9.767   3.072  0.1647  0.2671  0.0197
22900W        W38709  18.609   5.157  12.614  0.0525 -0.0601  0.1191
22901W        W38710  10.483  13.696   1.411  0.0645  0.0324  0.5276
22902W        W38711   7.891  10.501   1.487 -0.0688  0.0200  0.0930
22903W        W38712  12.369  13.335  13.149  0.2111  0.0445  0.1657
22904W        W38713   4.074   5.318  10.575 -0.2070 -0.3463 -0.0562
22905W        W38714   0.111   3.238   2.641 -0.0477 -0.0109  0.2643
22906W        W38715   4.524   6.312  11.435  0.1005  0.0914  0.2327
22907W        W38716   7.141  16.953  11.011 -0.1909  0.1965  0.0654
22908W        W38717  16.164   4.568   3.729 -0.0014 -0.2194 -0.4409
22909W        W38718  11.446   0.198   5.094 -0.0854  0.0888 -0.0062
22910W        W38719   0.765   3.640  13.712  0.0564 -0.0066 -0.0548
22911W        W38720  15.584  16.120   3.892  0.1064 -0.1140 -0.1153
22912W        W38721   2.684  16.964   3.899  0.2372  0.0996 -0.2130
22913W        W38722   9.175  14.507   1.190 -0.0496  0.1436  0.0125
22914W        W38723   5.092   4.267   2.347  0.0498  0.2462  0.0131
22915W        W38724  18.163  15.977  10.485  0.0512  0.3060 -0.4872
22916W        W38725  11.425  12.906  11.255  0.2006 -0.3996 -0.1217
22917W        W38726  11.589  16.197   0.244 -0.0629  0.4321 -0.3082
22918W        W38727  17.530   1.085   0.890 -0.0927 -0.0703 -0.3897
22919W        W38728  12.732  10.629   1.598 -0.2281  0.2205 -0.0769
22920W        W38729   6.777  17.520   2.998  0.0427  0.1698  0.2388
22921W        W38730   2.260   8.285   4.401  0.1670 -0.2738  0.0906
22922W        W38731   8.901  15.114  11.749 -0.0821  0.1170 -0.1746
22923W        W38732   0.556  12.940  11.440  0.3413  0.0631 -0.1706
22924W        W38733  18.469  14.687   0.980 -0.0480  0.1430 -0.0990
22925W        W38734   0.566   6.712  15.132  0.1518  0.2998  0.0106
22926W        W38735  12.403  11.184  13.961 -0.3828 -0.1483  0.1357
22927W        W38736   6.939   9.314   1.394 -0.3566 -0.0555 -0.3941
22928W        W38737  15.404   8.768  12.507 -0.1854  0.1235  0.0083
22929W        W38738   1.292  12.231  12.712  0.1807  0.2943 -0.3216
22930W        W38739  11.110  12.435  12.148 -0.1092 -0.1318 -0.1174
22931W        W38740  10.224   6.581  13.169 -0.1373  0.0580 -0.3205
22932W        W38741   6.182   2.775   1.543  0.1423 -0.0888  0.0147
22933W        W38742  11.039  13.528   3.390  0.2387  0.1940  0.3495
22934W        W38743   0.866   9.851  10.584 -0.1179  0.1044  0.1773
22935W        W38744  14.448   2.803  10.906  0.0795  0.2311  0.0300
22936W        W38745  10.264  13.579   0.962 -0.1159 -0.0042  0.2990
22937W        W38746  16.719  13.452   3.102  0.1732  0.0237 -0.0681
22938W        W38747   1.329  12.733   1.527  0.2342  0.0530 -0.0231
22939W        W38748  11.210  18.496  14.422  0.1772 -0.4500  0.1061
22940W        W38749   0.427  12.840  10.884  0.0703 -0.2098  0.0109
22941W        W38750   5.047  15.503  11.063 -0.2803  0.0941  0.2571
22942W        W38751  14.474   9.894  12.954 -0.2560  0.0511  0.2637
22943W        W38752   3.559   7.166  13.264  0.1424  0.1694 -0.0553
22944W        W38753   5.056  12.016  11.068  0.1202 -0.3768  0.0575
22945W        W38754  16.890  16.323  11.764  0.2911  0.0052  0.0984
22946W        W38755   3.744  17.016  13.473  0.0145  0.2777  0.1564
22947W        W38756   4.048  11.940  11.039  0.1145 -0.0189  0.2136
22948W        W38757   0.203  10.677  14.602 -0.0586  0.2185 -0.1585
22949W        W38758  17.540  15.196  10.870 -0.1814  0.2875 -0.0561
22950W        W38759   7.448   2.352   0.026  0.0283  0.1475 -0.0667
22951W        W38760  19.141  13.819   4.624 -0.0078  0.2716 -0.2311
22952W        W38761  19.115  11.599   1.677  0.1367  0.1200 -0.0519
22953W        W38762   8.425  18.847   2.898  0.0645  0.0191  0.0635
22954W        W38763   1.542   3.678   2.334  0.0632  0.0944 -0.0344
22955W        W38764   9.294  10.852   1.909  0.0995 -0.1624  0.1083
22956W        W38765  18.657   7.070  10.403 -0.4023 -0.2222  0.1036
22957W        W38766   4.758  12.165  14.757 -0.0761 -0.1411  0.1820
22958W        W38767  14.639  16.534   4.584 -0.2206 -0.1828  0.0134
22959W        W38768  13.597  17.502   3.564  0.0759 -0.3002 -0.1023
22960W        W38769  10.707   3.726  11.930  0.0942  0.0908 -0.2369
22961W        W38770  12.878   2.938   1.480  0.0345  0.0173  0.0042
22962W        W38771   2.165   1.563   0.043  0.4399 -0.2499  0.1444
22963W        W38772   7.521  18.563  10.993 -0.1807  0.1220 -0.0417
22964W        W38773  14.487   1.038   4.591 -0.1464 -0.0453  0.0068
22965W        W38774   7.417  17.129  10.631 -0.1943 -0.0383  0.1310
22966W        W38775   9.314  11.061   4.699 -0.0600 -0.1009 -0.0127
22967W        W38776   8.920  14.389   2.805 -0.0085 -0.0271 -0.0923
22968W        W38777  11.066   0.266  11.537 -0.0502  0.2651  0.1212
22969W        W38778   2.870   6.164   0.105  0.1680 -0.0092  0.1687
22970W        W38779   1.687   9.593   0.331  0.0803 -0.0431 -0.1486
22971W        W38780  17.260   8.650  10.983 -0.0594  0.0015  0.0685
22972W        W38781   3.897   3.302   0.874  0.0215  0.2859 -0.3068
22973W        W38782  18.035  12.600  13.588  0.3092  0.0365  0.2945
22974W        W38783   7.057   0.018   1.991  0.4346  0.0017  0.0493
22975W        W38784   3.093  10.823   0.796 -0.0213 -0.4746 -0.0761
22976W        W38785   6.370  14.976  13.114  0.0590 -0.0830 -0.3786
22977W        W38786  17.078   6.949   5.369 -0.0242 -0.0385  0.0155
22978W        W38787   7.474  19.071  10.165 -0.1117  0.1436 -0.0024
22979W        W38788   3.191  18.443  14.080  0.1038  0.0122 -0.3103
22980W        W38789   7.894  11.615  12.540 -0.1704  0.0841 -0.1282
22981W        W38790   1.708  11.878   4.486  0.0378 -0.0408 -0.2046
22982W        W38791   8.646  18.301  14.729  0.0330 -0.0696 -0.4427
22983W        W38792   6.348  17.416   3.258 -0.1182  0.1275  0.2803
22984W        W38793   1.697   6.463  11.183  0.3516 -0.3346 -0.0010
22985W        W38794  12.362  15.606   4.063  0.1565  0.0374  0.3721
22986W        W38795   5.134   7.621  14.289 -0.0468 -0.0994 -0.0030
22987W        W38796  15.109   6.652   4.834 -0.1211  0.1671 -0.1608
22988W        W38797  17.534  13.891   1.734 -0.3627  0.1459 -0.0483
22989W        W38798   2.916   3.186   2.024  0.0955  0.1530  0.0048
22990W        W38799  11.449   2.710  13.460  0.0687  0.0268 -0.0012
22991W        W38800  16.402  17.870  11.325  0.0063  0.3257  0.0177
22992W        W38801  17.549   2.806  14.292 -0.1116  0.0176  0.1239
22993W        W38802  18.926  12.473  11.495 -0.4298 -0.0491 -0.0216
22994W        W38803   3.710  10.169  13.412 -0.1909 -0.2221  0.0546
22995W        W38804   0.039   7.972  13.880  0.4894  0.2145  0.2248
22996W        W38805  10.295  14.749   2.980 -0.0371  0.0033  0.0454
22997W        W38806  10.572  10.201   2.784 -0.4475 -0.2679 -0.0631
22998W        W38807  16.776  19.109   2.430  0.1662  0.2178 -0.0031
22999W        W38808   9.777   3.230   1.721  0.2585  0.0878  0.1077
23000W        W38809   3.988  17.460   1.384 -0.0661 -0.2016 -0.1958
23001W        W38810   0.701   6.352   0.362  0.1947  0.3016  0.0758
23002W        W38811   4.898  15.596  11.706  0.2615 -0.1766 -0.1538
23003W        W38812   3.898   7.262  14.259 -0.0547 -0.1392 -0.0288
23004W        W38813   6.047   2.257  10.230  0.0660  0.0248  0.3127
23005W        W38814  13.515  18.281  14.627  0.4058 -0.4536  0.1537
23006W        W38815  12.849   0.212  13.967 -0.3362  0.0147 -0.1116
23007W        W38816   5.009  14.455  10.966  0.0917 -0.4132 -0.0505
23008W        W38817  13.728   5.858  14.907 -0.2136  0.4238  0.2368
23009W        W38818   2.153   1.056  10.277  0.0152 -0.0861 -0.0445
23010W        W38819   5.734  18.719  13.745 -0.2990  0.2331  0.3949
23011W        W38820   2.490  18.098   2.225  0.0625 -0.2330  0.0454
23012W        W38821   1.483   3.229   3.827 -0.1107 -0.2298  0.1599
23013W        W38822  13.859  19.078   3.977 -0.0284 -0.0773  0.1688
23014W        W38823   8.582   6.792   1.853 -0.2395 -0.0862 -0.1371
23015W        W38824   7.412   6.687  15.011  0.3342 -0.0435  0.1375
23016W        W38825   9.118  17.758  12.270 -0.0757  0.2472 -0.0616
23017W        W38826  19.005   5.211   0.067  0.1984 -0.0678 -0.3733
23018W        W38827  15.667   0.624   3.866 -0.4526 -0.0185  0.0438
23019W        W38828   0.498   4.563   0.304 -0.0865  0.0555 -0.1775
23020W        W38829  16.310   7.639   0.396  0.1795  0.0157  0.1357
23021W        W38830  18.738  19.040  14.333  0.0090 -0.0998  0.2975
23022W        W38831   9.757  10.863  13.052 -0.0434  0.1185  0.3263
23023W        W38832  13.272  15.158   3.409 -0.2250 -0.0984 -0.0721
23024W        W38833  18.615   1.900  13.534 -0.0744 -0.1463  0.1452
23025W        W38834   3.078  17.811   3.131 -0.1740  0.1129  0.0977
23026W        W38835  12.954   3.296   1.868  0.3691  0.3187  0.0449
23027W        W38836   5.955   7.347  11.316  0.0304  0.0637 -0.2280
23028W        W38837  18.755   6.948  14.838 -0.2288 -0.1376  0.3813
23029W        W38838  18.923   7.674  13.002 -0.2531 -0.3136  0.0838
23030W        W38839  10.734  13.253  11.769  0.2286 -0.0569  0.1471
23031W        W38840  15.424  12.032   5.533  0.0793  0.0483 -0.1685
23032W        W38841  17.646   3.758  11.155  0.2598  0.0419  0.0598
23033W        W38842   0.046  12.660   4.294  0.3358  0.0877 -0.0126
23034W        W38843   2.466  12.527  10.838  0.2027 -0.0359 -0.2814
23035W        W38844  10.145   0.997  12.726 -0.1113 -0.2270  0.1477
23036W        W38845   3.555  13.293  11.885 -0.2383  0.1145 -0.1348
23037W        W38846   3.908   5.661  14.448 -0.3056  0.0072 -0.2567
23038W        W38847  17.130   3.539   1.735 -0.5394 -0.0875  0.0271
23039W        W38848  12.364   0.358  13.792 -0.2327  0.2855  0.1447
23040W        W38849   4.987  15.787   0.380 -0.0010  0.1189 -0.2997
23041W        W38850   4.022   7.008  12.554  0.0471  0.1492 -0.2146
23042W        W38851  15.807   3.076   5.160 -0.1830  0.1273 -0.1598
23043W        W38852   9.266  11.019   4.182 -0.0399  0.2285  0.1542
23044W        W38853   1.456  18.336  14.162  0.1294  0.1205 -0.1206
23045W        W38854   2.309   9.129  14.120 -0.0715  0.2506  0.0072
23046W        W38855   8.450  11.985  13.388 -0.1207  0.0891  0.1506
23047W        W38856  16.818   6.821   1.093  0.0879 -0.0181 -0.0609
23048W        W38857  13.431  14.419   0.759 -0.0123  0.2343 -0.4542
23049W        W38858  10.620  10.492  11.845  0.1159  0.0293 -0.0245
23050W        W38859  14.287   0.814   0.515  0.0634  0.0499  0.2316
23051W        W38860  16.420  17.973   1.052 -0.1619 -0.0148  0.1577
23052W        W38861  16.014  18.215  14.943  0.0765 -0.2540  0.2240
23053W        W38862   7.447  16.730   2.573  0.0995 -0.1423  0.4009
23054W        W38863  12.136   2.334   0.888  0.3781 -0.2529  0.0590
23055W        W38864   9.200   3.576   2.180 -0.2650  0.0201  0.1883
23056W        W38865   9.228  13.311  12.310  0.3094 -0.3019  0.0607
23057W        W38866  16.543   0.181   3.323 -0.1559  0.1662 -0.3721
23058W        W38867   2.943   4.886   0.919  0.1620 -0.3052 -0.0871
23059W        W38868  10.982  12.522   4.694 -0.2468 -0.2144  0.2047
23060W        W38869   3.991   5.660   1.576  0.0999  0.1618 -0.0671
23061W        W38870   1.492   9.407  15.152 -0.0540  0.3200 -0.1917
23062W        W38871  11.476  10.652  13.634  0.3912 -0.1308  0.2714
23063W        W38872   9.426   2.663  12.326 -0.0538  0.2806  0.2199
23064W        W38873   4.252  14.470   2.197 -0.1706  0.1097 -0.1826
23065W        W38874  15.957   4.356   4.329  0.0719 -0.2685  0.1056
23066W        W38875  13.343   3.171   3.964  0.2810 -0.2157 -0.1003
23067W        W38876  13.064   9.039   4.360  0.0109  0.3318 -0.0362
23068W        W38877  11.592  18.806  10.525  0.0255 -0.2773 -0.2471
23069W        W38878   7.916   1.734   2.746  0.2160  0.0210 -0.0004
23070W        W38879   3.901   4.692   9.799  0.3600  0.0041  0.2251
23071W        W38880   7.585  14.198   4.238  0.3475  0.2492 -0.0273
23072W        W38881   8.200   8.225  12.201  0.2144 -0.2564 -0.2006
23073W        W38882  18.282   9.219   4.916 -0.1457  0.2743 -0.0257
23074W        W38883   4.529  15.244   4.134  0.0280 -0.0633  0.1640
23075W        W38884   1.284   3.689   1.030  0.1646  0.4047  0.0208
23076W        W38885   3.849   3.269  13.742 -0.1218 -0.0694  0.0992
23077W        W38886  12.603   7.064   1.273  0.2257  0.0164  0.2505
23078W        W38887  16.441   5.685  13.636 -0.0012  0.2578  0.4835
23079W        W38888   9.592   7.304  13.199  0.0041 -0.1041 -0.2884
23080W        W38889   5.424   7.719  13.223 -0.1642 -0.0396  0.0137
23081W        W38890   1.539   8.867  10.919  0.0342  0.0892 -0.0748
23082W        W38891   5.636  18.994   0.596  0.3408  0.3381  0.2493
23083W        W38892   7.189  12.298  11.000  0.1443 -0.3305 -0.3590
23084W        W38893  11.116  10.504   4.820  0.1419  0.1947 -0.0329
23085W        W38894   7.761  19.085   4.886 -0.1849  0.2921 -0.0628
23086W        W38895   1.881  13.005   3.517  0.3430 -0.2372 -0.2391
23087W        W38896   5.669  18.802   3.125 -0.1051  0.3377  0.0604
23088W        W38897  16.768  11.986   2.374 -0.3952 -0.2349  0.2420
23089W        W38898  11.939   6.079   2.035  0.0327 -0.1083  0.1167
23090W        W38899  14.321  14.081   3.650  0.0539  0.3036  0.0489
23091W        W38900  14.288   0.120   4.267 -0.3725 -0.4418 -0.1938
23092W        W38901  18.226  10.968  10.057  0.1495 -0.0369 -0.2346
23093W        W38902  12.976  16.336   1.844 -0.1688  0.1881  0.0591
23094W        W38903   4.762   7.291   1.471 -0.2005 -0.1459  0.2055
23095W        W38904   6.422  14.091  13.653  0.5095  0.2152 -0.1387
23096W        W38905  11.624  11.416  13.718  0.3913  0.1496  0.0942
23097W        W38906   7.268  12.665   1.056  0.0227  0.0985 -0.1421
23098W        W38907   2.849   8.062  11.305 -0.2273 -0.1325 -0.1014
23099W        W38908   2.890   6.294  10.256 -0.0259  0.0111 -0.0319
23100W        W38909   3.279  13.072   3.768  0.0680  0.0713 -0.2708
23101W        W38910   1.871  17.127   9.364  0.1511  0.0272 -0.2907
23102W        W38911  10.025  10.642   5.310 -0.0669 -0.2103 -0.0395
23103W        W38912   4.679  11.361  11.605  0.1539  0.2580  0.2174
23104W        W38913  17.324  14.918   5.033  0.1543 -0.2702 -0.1697
23105W        W38914   3.994   6.094   3.803 -0.2798 -0.2612  0.4762
23106W        W38915  12.394   5.058  11.333 -0.1715  0.1529 -0.4244
23107W        W38916   5.186   8.418  10.467 -0.0832 -0.0563 -0.4506
23108W        W38917  10.429   6.178  12.893 -0.0239 -0.0518 -0.2586
23109W        W38918  17.627   8.672   1.840 -0.2300  0.1696  0.0197
23110W        W38919  12.297   0.399  11.435  0.2538  0.4197  0.1604
23111W        W38920  13.744  16.239  13.847 -0.0437 -0.0120  0.0913
23112W        W38921  19.073  15.720  12.948 -0.2591  0.1431  0.2981
23113W        W38922  17.033   5.697   2.318 -0.0453  0.1134  0.1048
23114W        W38923   8.588   3.715   0.343 -0.0127 -0.0546 -0.4390
23115W        W38924  13.547  15.633   4.603  0.1274 -0.2648  0.1399
23116W        W38925   8.684  11.265   1.140  0.2096  0.2153  0.2928
23117W        W38926  18.514   0.531   0.027 -0.0273  0.2400 -0.2663
23118W        W38927  11.890   1.795   1.440 -0.1193  0.0183 -0.0528
23119W        W38928  16.582   1.412   1.677  0.4148 -0.2383 -0.1675
23120W        W38929  16.712   9.806   0.718 -0.3203 -0.1493 -0.0026
23121W        W38930   5.821  16.494  10.159 -0.0809 -0.2218  0.1174
23122W        W38931  17.874  16.424  14.338  0.1825  0.0837 -0.4380
23123W        W38932  12.516   2.272  11.872 -0.2374  0.1811  0.1816
23124W        W38933   8.690  17.687   3.776 -0.2319 -0.0702  0.0041
23125W        W38934  11.914   6.692  14.045  0.1560  0.0121 -0.1646
23126W        W38935  10.812   2.583  10.933 -0.2387 -0.1345 -0.1210
23127W        W38936  13.477   1.090  12.109 -0.2005  0.1662 -0.2583
23128W        W38937  16.962  12.775  12.459 -0.3287 -0.1991 -0.2756
23129W        W38938   9.939   5.055   2.936  0.1277  0.1643 -0.4431
23130W        W38939  14.637  11.186  14.118 -0.3219 -0.2001 -0.0192
23131W        W38940  16.298   4.835   4.434  0.1035 -0.0776  0.2178
23132W        W38941  11.661  16.755  10.237  0.2952  0.2425  0.3686
23133W        W38942   7.640   4.087   2.768 -0.0282 -0.0419 -0.0511
23134W        W38943  16.122  18.352   1.411 -0.3433  0.4874  0.0749
23135W        W38944  14.405   9.318   0.392  0.1334 -0.1757  0.1877
23136W        W38945   8.382  13.851   2.784  0.3636 -0.0443 -0.1125
23137W        W38946  13.268   4.957  14.842  0.0163 -0.0413 -0.1032
23138W        W38947  15.717  11.165   4.430 -0.3155 -0.0042  0.4096
23139W        W38948   2.569  17.038   0.133  0.0346  0.2611 -0.0671
23140W        W38949   5.291   2.958  13.633  0.1353  0.0894  0.0743
23141W        W38950  10.031  16.980  11.106  0.0151 -0.3561 -0.3422
23142W        W38951  13.719   1.850   9.714 -0.0141 -0.2271  0.0263
23143W        W38952   7.381   9.316  14.084 -0.0560 -0.2872 -0.3153
23144W        W38953   9.841   5.535   0.863 -0.1544  0.0185  0.3924
23145W        W38954   0.987  11.447  12.081 -0.1541 -0.2403  0.3775
23146W        W38955   0.901   7.276  12.067 -0.1685  0.1857  0.1925
23147W        W38956   1.143  11.316   2.993  0.2025 -0.2741  0.0464
23148W        W38957   9.056   1.836   3.327 -0.3308 -0.0311 -0.0192
23149W        W38958   7.445   4.543  11.000 -0.3186  0.0230  0.1121
23150W        W38959   8.461  15.637  14.987 -0.1685 -0.0303  0.2150
23151W        W38960  15.813   4.436   5.580  0.3320 -0.4896  0.3797
23152W        W38961   9.377  13.245   4.450  0.0866  0.1134  0.3315
23153W        W38962  14.189   2.174  11.610 -0.0574 -0.3301 -0.0679
23154W        W38963   1.431  16.247  12.017  0.0637 -0.0212 -0.0901
23155W        W38964   6.025  13.242   2.770 -0.3336 -0.0302  0.1246
23156W        W38965  14.192   8.293   5.362 -0.0940  0.1997  0.1652
23157W        W38966   7.084  14.440  12.248 -0.1240 -0.2344 -0.0525
23158W        W38967   8.104  19.073   1.084  0.1505  0.2039 -0.0345
23159W        W38968   0.254  13.937  12.798 -0.3939 -0.2356 -0.3039
23160W        W38969  13.421   8.471   9.391 -0.0055 -0.3330  0.0819
23161W        W38970  17.217   2.098  14.376  0.1810  0.1536 -0.4369
23162W        W38971  12.668  17.099   2.043 -0.0256 -0.1113  0.1264
23163W        W38972  18.266   2.625  11.934 -0.5194  0.1733 -0.1908
23164W        W38973  10.261   5.016   2.553  0.3025  0.0957 -0.1261
23165W        W38974  12.669  17.721  11.945  0.0097  0.0774 -0.3077
23166W        W38975   4.165  15.107  10.274  0.2055 -0.0275 -0.1937
23167W        W38976  15.777  17.220   4.697  0.0710  0.0235 -0.0571
23168W        W38977  16.949   3.549   5.028 -0.2649  0.0357 -0.0306
23169W        W38978   0.720  11.693   1.070 -0.1659  0.2759  0.2323
23170W        W38979   1.147   9.908   3.840  0.0032  0.3305 -0.2375
23171W        W38980   0.607   8.640  14.163  0.0835 -0.0879 -0.0211
23172W        W38981   2.512  10.757   4.964 -0.0570  0.0123  0.1806
23173W        W38982  13.649  10.526   2.623  0.5041  0.1653 -0.3470
23174W        W38983  11.619   8.553  13.216 -0.0172 -0.1353  0.2836
23175W        W38984  11.766   6.208  14.829 -0.2889 -0.1760 -0.2350
23176W        W38985  17.646  13.988   4.780  0.0941  0.4977  0.1647
23177W        W38986  16.424   6.152   3.805 -0.0769 -0.0725 -0.0560
23178W        W38987   5.899  11.076   1.931 -0.0451 -0.0088  0.0445
23179W        W38988  11.347   2.789  12.436 -0.0644  0.0271 -0.4145
23180W        W38989   7.285   6.114   4.269  0.2163 -0.0021  0.0730
23181W        W38990   3.627  16.837   5.126  0.1833 -0.2699  0.0969
23182W        W38991   4.341  14.290  15.143  0.0342 -0.1467  0.1887
23183W        W38992  16.199  17.303  12.392 -0.0390 -0.2865 -0.1373
23184W        W38993   4.022   4.497   5.141  0.1107  0.0435  0.0993
23185W        W38994  11.380  15.483   3.923 -0.2721 -0.2543  0.0975
23186W        W38995  17.853  14.901   4.937  0.0667 -0.1582 -0.0139
23187W        W38996   4.085  13.861   2.162  0.2496 -0.0738 -0.2474
23188W        W38997   2.115  13.940   2.852  0.3028  0.1294  0.2414
23189W        W38998   9.559   4.835   4.359 -0.0051 -0.3998 -0.0506
23190W        W38999   9.127  17.376   3.406  0.0862  0.1134  0.0629
23191W        W39000  11.495   3.732   9.630  0.1879 -0.1783 -0.4753
23192W        W39001  12.456  15.224  12.323  0.1158  0.1033  0.0463
23193W        W39002   5.283   8.612   4.328  0.2138 -0.0336  0.0733
23194W        W39003   3.164   5.498   9.728 -0.1764 -0.1402 -0.1834
23195W        W39004  18.398   9.753  11.053 -0.2660  0.0608  0.0408
23196W        W39005   8.387  13.087  10.421  0.1747 -0.1394  0.2161
23197W        W39006  17.204  11.551   9.647  0.0772 -0.0398 -0.1796
23198W        W39007   3.277  17.532  13.958 -0.1498 -0.1810 -0.0692
23199W        W39008   0.290  18.246  14.865 -0.3543 -0.1576  0.0504
23200W        W39009  15.907   8.168  10.993 -0.0849  0.0298  0.2700
23201W        W39010  17.314   3.348  13.895 -0.0398  0.2403 -0.2925
23202W        W39011  13.664   3.523   5.745  0.1876 -0.2351 -0.1176
23203W        W39012   7.864   0.631  11.280  0.0520  0.1603  0.1203
23204W        W39013   2.612   2.458   4.978  0.4014  0.1075  0.4304
23205W        W39014   1.169  14.981   2.669  0.3042 -0.1299  0.1052
23206W        W39015  14.784  14.807  15.203  0.0195  0.0548  0.0752
23207W        W39016  18.462   6.516   2.170  0.0060  0.2975 -0.0204
23208W        W39017  13.795   7.743   3.557 -0.1089 -0.1392 -0.1998
23209W        W39018  16.065  17.290  15.013  0.1480  0.3909  0.0381
23210W        W39019  10.017  13.379   5.022  0.1256 -0.2572 -0.0116
23211W        W39020   2.543   4.172   3.002  0.1345  0.0055  0.0087
23212W        W39021   6.034  14.128  13.246 -0.0133 -0.1730  0.0035
23213W        W39022  10.741  10.029  10.268  0.4336 -0.2538  0.2092
23214W        W39023  14.684   0.640   1.764 -0.0293  0.0029  0.1141
23215W        W39024   3.883  18.273  10.587 -0.1726  0.0679 -0.0057
23216W        W39025   3.945  16.125  13.216 -0.4134  0.0248  0.1452
23217W        W39026  10.149  15.238  10.765  0.4683  0.0753  0.0146
23218W        W39027  12.716   1.665   5.157  0.1463 -0.2341  0.1022
23219W        W39028   8.676  18.811  13.917  0.2885 -0.0192 -0.0034
23220W        W39029   5.580  10.939  10.915  0.2953 -0.1199  0.2540
23221W        W39030   8.452   5.834   2.799  0.0686  0.2982 -0.0068
23222W        W39031   4.564   5.453   2.794 -0.2222  0.2405  0.0661
23223W        W39032   0.819   4.875  10.223  0.0529  0.2006  0.4866
23224W        W39033  13.944  11.750   1.417  0.0276  0.1060  0.1639
23225W        W39034   0.431  19.035  14.569 -0.0244  0.3138  0.0650
23226W        W39035  11.033  15.726   9.656 -0.0131  0.1044  0.0115
23227W        W39036   2.023  18.787  13.656 -0.3173  0.0002 -0.1035
23228W        W39037   1.084  13.273   4.365 -0.0501 -0.3225 -0.0041
23229W        W39038  15.009   9.057   4.374  0.1490 -0.0715  0.1608
23230W        W39039   4.777   1.602   0.260  0.4495  0.2711  0.2508
23231W        W39040   7.213   0.151  13.396 -0.1666  0.1671  0.0986
23232W        W39041  11.261   5.214  10.891 -0.3007  0.0880 -0.0025
23233W        W39042   3.481  18.922   2.204 -0.1890 -0.3056 -0.0818
23234W        W39043  18.117   2.591   1.942 -0.0326  0.0117  0.1236
23235W        W39044  14.093   7.182   1.926 -0.0938  0.2099  0.0272
23236W        W39045  17.510  10.378   1.529 -0.0001  0.0201  0.2459
23237W        W39046   3.765   0.768   3.835 -0.3052 -0.0539  0.2162
23238W        W39047  11.739   4.682   4.961  0.1792  0.1105 -0.1659
23239W        W39048  18.505  18.424   2.992  0.0192 -0.1281  0.3567
23240W        W39049  15.315   4.409   4.313 -0.0950 -0.2863  0.1374
23241W        W39050   1.254   2.740   4.447 -0.3268 -0.0669  0.0123
23242W        W39051  10.287  13.910  13.080  0.2684  0.0755  0.2521
23243W        W39052   8.275  16.792   2.224  0.0173 -0.2533  0.0362
23244W        W39053   0.431   8.151  10.461  0.1054  0.0759 -0.2916
23245W        W39054  10.642   8.593  10.855  0.0580  0.0673  0.0314
23246W        W39055   6.865   9.191  10.768 -0.2264  0.0532 -0.0546
23247W        W39056   1.962  17.037   9.817 -0.0613  0.1957  0.2006
23248W        W39057   3.763  12.102  12.619  0.1826 -0.1643  0.0539
23249W        W39058  17.624  12.081   3.764 -0.0036 -0.0266  0.0650
23250W        W39059  11.225  10.956   2.990 -0.0604  0.2290  0.0380
23251W        W39060   1.603  16.362   3.366  0.2207  0.3387 -0.2164
23252W        W39061   5.833  19.075  11.135  0.2314  0.3362  0.0804
23253W        W39062  10.102   6.554   2.545  0.2637  0.1354  0.2405
23254W        W39063  10.174   6.463   2.058  0.1392  0.3585 -0.0350
23255W        W39064  11.900  17.212  12.664 -0.3273 -0.1034  0.2547
23256W        W39065  11.808  18.931  15.036  0.0662 -0.1085  0.1450
23257W        W39066   5.667   5.418  11.539  0.0514 -0.3371  0.1334
23258W        W39067  18.397  18.921  12.219  0.1915 -0.0193 -0.1738
23259W        W39068   7.584   3.765  14.583 -0.4526 -0.1561  0.0446
23260W        W39069  10.015  19.042  14.447  0.0027 -0.0696  0.2548
23261W        W39070  12.279   9.359   3.926  0.2038  0.1689 -0.0617
23262W        W39071   1.770  12.104   3.400  0.2246 -0.0724 -0.1575
23263W        W39072   9.379   0.298  11.820  0.2861 -0.0369 -0.1650
23264W        W39073  15.923   8.493   0.360  0.0275  0.1127  0.2846
23265W        W39074  17.536  13.086   2.926  0.3602 -0.1296  0.3626
23266W        W39075   9.572  19.106   4.777 -0.2156 -0.0225  0.2273
23267W        W39076  17.247  16.301   2.699  0.2932  0.0934 -0.1685
23268W        W39077   4.468   7.073  14.809  0.1709 -0.0410  0.3162
23269W        W39078  15.622   7.959   4.967  0.4501 -0.2181  0.1451
23270W        W39079   3.357   8.402  13.448  0.0784 -0.0479 -0.0587
23271W        W39080  11.619   4.836   3.071 -0.0178  0.4083  0.1448
23272W        W39081  10.170   9.619  11.375 -0.0224  0.5229  0.1557
23273W        W39082   8.775  10.918  12.417 -0.0598 -0.1348 -0.3918
23274W        W39083  12.604   6.656  14.878 -0.2380  0.2673  0.1556
23275W        W39084  12.161  13.665   2.576 -0.0359 -0.1529  0.1401
23276W        W39085   0.644   0.333   1.650 -0.2416  0.0228  0.0205
23277W        W39086  15.058  14.114   3.441 -0.2436 -0.0822  0.1934
23278W        W39087   2.569   8.172   3.327 -0.2483  0.2523 -0.0804
23279W        W39088  16.111  15.518  13.345 -0.1158 -0.0942  0.3593
23280W        W39089  11.039   7.147   0.540 -0.0147  0.3744  0.1014
23281W        W39090  18.431   5.127   2.179 -0.2932 -0.2190 -0.3658
23282W        W39091  16.799  13.899   3.422 -0.4648 -0.1388  0.0282
23283W        W39092  14.669   4.975   1.985  0.2781 -0.1460  0.2325
23284W        W39093  18.932   7.804   0.001  0.0988 -0.0005 -0.1069
23285W        W39094  15.000  16.590  13.121 -0.0595  0.2660 -0.0974
23286W        W39095   5.015   2.662   4.654  0.3133  0.0492 -0.1117
23287W        W39096  12.125  18.631   0.247 -0.1615  0.2871 -0.0179
23288W        W39097   2.698   2.469   4.473 -0.2405  0.1211 -0.3325
23289W        W39098  11.938  19.141  13.963 -0.1148  0.4958 -0.3272
23290W        W39099  18.349  12.808   1.361 -0.3443 -0.2319  0.0033
23291W        W39100   9.457  10.677   2.835  0.0867 -0.0536  0.3794
23292W        W39101  18.540  18.398  12.964  0.0052  0.1931  0.0141
23293W        W39102   2.240   9.939   2.207  0.1415 -0.2777  0.1030
23294W        W39103  15.490   6.705   1.009  0.2122  0.0908  0.0510
23295W        W39104  11.508  18.298   3.146  0.2563 -0.1045  0.0371
23296W        W39105   8.604  16.430   3.247 -0.0818 -0.0684 -0.1206
23297W        W39106   0.971  15.803  13.185 -0.3189  0.1664 -0.0189
23298W        W39107   4.975   4.965   3.989 -0.2863  0.0888  0.0504
23299W        W39108   5.017  12.453  15.192 -0.0228  0.0557  0.2687
23300W        W39109   3.113   7.825  11.649 -0.0082 -0.3960 -0.2979
23301W        W39110  11.593   4.950   9.069  0.0759 -0.0048 -0.3015
23302W        W39111  14.872   6.790   1.285 -0.2668 -0.2080  0.1237
23303W        W39112  18.614  16.211  10.897  0.2100  0.1085 -0.1368
23304W        W39113  12.405  15.875  11.435 -0.4815 -0.3647  0.1719
23305W        W39114  11.460  15.923  14.487  0.0513 -0.0715 -0.1326
23306W        W39115   1.405  16.739   4.494 -0.0800 -0.1066 -0.2219
23307W        W39116  18.692   5.916  13.818  0.0987  0.5822 -0.2076
23308W        W39117  12.615  17.062   1.578 -0.1051  0.0222  0.2243
23309W        W39118  10.649  15.445  10.678  0.1873  0.0346  0.0256
23310W        W39119  10.762   6.456  13.232  0.0816  0.0532  0.2197
23311W        W39120   2.207   1.579  11.193  0.2518 -0.2051  0.0161
23312W        W39121  17.740   8.061   2.582  0.3255 -0.1983 -0.1641
23313W        W39122   8.745   0.515  13.541  0.0066 -0.0182 -0.0738
23314W        W39123   0.055   2.907   2.244 -0.2480  0.0841 -0.2053
23315W        W39124  18.004  12.704   1.789 -0.0207  0.1596  0.2704
23316W        W39125   3.302   4.946   3.304  0.2453  0.0178 -0.2147
23317W        W39126   6.384  17.336  12.152 -0.2618 -0.0550 -0.2687
23318W        W39127  15.618  16.928  11.182  0.1211  0.0923  0.1310
23319W        W39128   3.050  11.724  13.805  0.0610 -0.1782  0.2998
23320W        W39129  18.867   7.862   1.597  0.1045  0.0431  0.2017
23321W        W39130  17.759   4.838   1.033  0.1300  0.2199  0.1777
23322W        W39131  15.474   7.831  12.235  0.0316  0.2035  0.3072
23323W        W39132   8.444   1.856  10.987  0.0121 -0.1063 -0.3638
23324W        W39133   6.567  14.578  12.045  0.0295 -0.0008 -0.1929
23325W        W39134   1.415  15.761  11.248  0.1811  0.1231  0.1495
23326W        W39135   3.714  16.653  10.553 -0.0830 -0.3100  0.1277
23327W        W39136  12.741  11.566  14.081  0.2027  0.3721 -0.0413
23328W        W39137   5.631   1.946  11.115  0.0065  0.0726 -0.1329
23329W        W39138  15.275   9.703   5.208  0.0000 -0.2536 -0.2278
23330W        W39139  12.109  18.228  11.543 -0.0092  0.1395  0.0058
23331W        W39140   2.371  16.573  14.330  0.1287 -0.1179 -0.2408
23332W        W39141   8.662   8.101  15.008 -0.0573  0.1571  0.0781
23333W        W39142  16.826   5.363  13.804  0.1842 -0.0663 -0.0492
23334W        W39143   3.380  13.356  14.753  0.0113 -0.0208  0.0287
23335W        W39144   2.661  18.293  11.896  0.0155  0.0568 -0.3977
23336W        W39145   7.562  16.874  13.309  0.0793  0.1476  0.3852
23337W        W39146   7.341   4.449   4.062 -0.3112 -0.2069  0.0530
23338W        W39147  11.503   9.998   2.496 -0.1777  0.3015  0.2273
23339W        W39148  10.093  10.285   1.925  0.2288  0.1300  0.0228
23340W        W39149   4.122   5.594   2.582  0.0694 -0.0082 -0.2612
23341W        W39150  15.664   6.449  13.196 -0.3171  0.3223  0.0723
23342W        W39151  10.059   8.003   1.185 -0.0789  0.0353  0.1459
23343W        W39152  15.800  14.076  11.980  0.2069 -0.0076  0.1097
23344W        W39153   8.187  18.024  10.817 -0.1920  0.2424  0.1919
23345W        W39154   5.913  12.095   3.097  0.0452  0.1257  0.0120
23346W        W39155   8.211  11.384   2.967  0.3214 -0.2475  0.1208
23347W        W39156  13.169   9.778   1.007 -0.0069  0.0760 -0.0391
23348W        W39157  16.732  11.486   1.055 -0.0772  0.1208  0.2676
23349W        W39158  13.159  14.030   3.870 -0.1502 -0.1325  0.3750
23350W        W39159   5.976  11.404   1.165  0.0271  0.4064 -0.1884
23351W        W39160   5.024  14.412  15.184  0.4503  0.3965 -0.0145
23352W        W39161  14.950  10.483   5.325 -0.0301  0.0170 -0.4280
23353W        W39162   8.782   0.822   2.066  0.1613 -0.0426 -0.1472
23354W        W39163  11.503  11.084  10.713 -0.0568  0.0815 -0.1728
23355W        W39164   3.714  11.444   1.564 -0.0193  0.1767 -0.2190
23356W        W39165  17.595  14.982  14.799  0.2118  0.2246 -0.1889
23357W        W39166  12.514  12.515  14.039 -0.2904 -0.1516 -0.2440
23358W        W39167   0.581   1.843   4.976  0.2607 -0.1208 -0.0890
23359W        W39168  17.735   7.520   3.582 -0.1643  0.2254 -0.0672
23360W        W39169   8.512   9.728  12.659  0.2759 -0.0219  0.2507
23361W        W39170   4.693  13.428  10.510 -0.0090 -0.0198  0.3155
23362W        W39171  11.097   7.562   2.217 -0.2503 -0.0725  0.1239
23363W        W39172   0.460   1.125   4.344 -0.1784  0.0072 -0.2260
23364W        W39173  16.482   9.858  12.023 -0.2170  0.0958 -0.0826
23365W        W39174   2.631  16.160   4.943 -0.3361  0.0413 -0.0248
23366W        W39175  15.833  17.159   0.211 -0.2229  0.2311 -0.0601
23367W        W39176  12.116   6.303   4.208  0.1523  0.1550  0.1038
23368W        W39177   6.137  19.086   1.327 -0.3328  0.1729 -0.2053
23369W        W39178  14.923  10.876   3.919 -0.0753  0.3451 -0.1485
23370W        W39179   8.838   1.920   4.012 -0.5796  0.0663 -0.2337
23371W        W39180   5.885   6.853  11.473 -0.2568 -0.2066 -0.3324
23372W        W39181  12.584   1.907  11.386 -0.3067 -0.0394  0.1277
23373W        W39182  13.627  10.544   4.775 -0.2279 -0.0955 -0.0316
23374W        W39183   9.799   9.296  14.063  0.0231 -0.2897  0.1487
23375W        W39184  13.323   5.561  12.305  0.1101 -0.0182 -0.0882
23376W        W39185  17.498   2.131   4.626 -0.0621 -0.1716 -0.4790
23377W        W39186   5.188  16.238  10.337  0.0557  0.0357  0.1561
23378W        W39187  14.357   0.769  13.789  0.3601 -0.1695  0.1463
23379W        W39188  12.061  11.391   3.554  0.0974 -0.3049 -0.1296
23380W        W39189   5.567   6.369   1.972  0.1422  0.4663  0.0384
23381W        W39190   2.276  17.484  15.006  0.1957 -0.0265 -0.4248
23382W        W39191  17.471   1.038  13.704  0.0157 -0.1743 -0.1110
23383W        W39192   3.924   0.610   2.040 -0.1606  0.1146  0.1116
23384W        W39193  17.582   4.678  14.085 -0.4919 -0.0570 -0.3117
23385W        W39194   6.641  10.349  11.547 -0.0847  0.0963  0.3076
23386W        W39195  17.494  18.611  12.092  0.0842 -0.0734 -0.0685
23387W        W39196  12.910  11.744  11.361  0.0063  0.0531 -0.2759
23388W        W39197  13.810   4.335   1.427  0.0128  0.4978 -0.4977
23389W        W39198  16.612   4.329   0.654 -0.0895  0.0000 -0.1406
23390W        W39199   5.573   1.229  12.331 -0.1417 -0.1958  0.3813
23391W        W39200  12.293   6.222   2.460 -0.2170  0.1876 -0.1619
23392W        W39201   2.288  17.176  14.585 -0.0148 -0.1789 -0.3161
23393W        W39202  18.240   0.642   2.761 -0.0331 -0.1565 -0.1141
23394W        W39203  12.435   9.730  13.710 -0.0618 -0.0148 -0.0243
23395W        W39204  14.157  13.564  12.184 -0.1354 -0.2644 -0.0051
23396W        W39205   9.303  10.877   2.400  0.4780  0.1017 -0.4780
23397W        W39206  16.197   6.423   1.587 -0.1092 -0.1624 -0.1831
23398W        W39207  15.108  18.835  11.560 -0.0094  0.1002 -0.0455
23399W        W39208  16.947   4.471   2.309  0.1087 -0.2309 -0.1302
23400W        W39209   4.296   2.094  13.908  0.1563 -0.5645 -0.0729
23401W        W39210  15.757   8.765  11.704  0.1867 -0.2348  0.0314
23402W        W39211   2.803   0.416   3.438  0.1716  0.3567  0.1880
23403W        W39212  10.241   7.077   9.747  0.0853 -0.1331 -0.3533
23404W        W39213   6.870   6.131   4.542 -0.0694  0.0232  0.1163
23405W        W39214   6.219  18.590   3.091  0.0667  0.0152 -0.0897
23406W        W39215   4.620  18.414   0.649  0.1392 -0.0849  0.1003
23407W        W39216   3.487   5.328  12.640 -0.0830  0.3439 -0.1671
23408W        W39217  16.810  13.341   4.917  0.1549 -0.2114  0.1992
23409W        W39218   3.838   9.552   2.232 -0.0133  0.0701 -0.0126
23410W        W39219  18.332  11.454   9.685  0.3715 -0.0503  0.1103
23411W        W39220  18.175   5.446  12.258  0.0857  0.2671 -0.0207
23412W        W39221   7.249  10.736  10.027 -0.0872 -0.1682 -0.1387
23413W        W39222  10.723  17.877   2.073  0.1599  0.1985  0.2275
23414W        W39223   4.787   7.025  10.696 -0.0206 -0.2953 -0.5227
23415W        W39224   2.237  13.517   9.252  0.1428 -0.2030  0.1938
23416W        W39225   9.041   6.005   0.773 -0.1027  0.0935 -0.1450
23417W        W39226   6.216  16.521   2.538  0.0180 -0.2256 -0.1080
23418W        W39227   1.239   6.365   5.542 -0.3934  0.1396  0.1981
23419W        W39228  15.886  11.475   2.543  0.0961  0.0192 -0.3816
23420W        W39229   8.647  16.743   2.607 -0.1707 -0.0955 -0.0107
23421W        W39230   1.567  10.477   1.926 -0.1445  0.0326 -0.0779
23422W        W39231   7.628   5.341  14.737  0.2815 -0.2279  0.1491
23423W        W39232  11.216  11.293  14.785 -0.3379 -0.0919  0.0742
23424W        W39233   2.434  13.783   1.772 -0.0747  0.0145 -0.0999
23425W        W39234  16.621   6.922  14.823  0.1442  0.0986  0.3232
23426W        W39235   4.419  14.257   5.086  0.3291  0.1478 -0.1999
23427W        W39236  13.397   5.745   0.059  0.0389 -0.2884  0.1359
23428W        W39237   6.912   5.841  14.026  0.2329 -0.0552  0.1862
23429W        W39238   2.319  12.625   2.689 -0.3642  0.0174 -0.5796
23430W        W39239   0.251   1.094   2.254 -0.3481  0.2383 -0.0036
23431W        W39240  14.272  13.362  15.200 -0.0797  0.0982 -0.0353
23432W        W39241   8.406   7.017  14.864  0.2838  0.3503 -0.1301
23433W        W39242   3.067   8.408   0.759 -0.2549 -0.1579  0.0834
23434W        W39243  14.741   9.274  11.508 -0.0005 -0.0369 -0.2546
23435W        W39244   7.046  15.287   4.507 -0.1049  0.0321 -0.0722
23436W        W39245  16.198  17.387   3.469  0.2620 -0.2946 -0.0530
23437W        W39246   2.127   1.022   3.623 -0.4113 -0.0379 -0.0071
23438W        W39247  12.871  17.197   3.944  0.0463 -0.0894 -0.1343
23439W        W39248   9.433   8.129  11.184  0.1223 -0.3524  0.2268
23440W        W39249   9.432   0.603   2.672 -0.0128  0.2339  0.1265
23441W        W39250   4.918   3.966  14.535 -0.2076  0.1694 -0.0208
23442W        W39251   8.637  16.294  14.340 -0.1899 -0.1388  0.1254
23443W        W39252   7.523   6.288   2.650  0.3578  0.3654  0.0683
23444W        W39253  18.334  15.281   2.691  0.1769  0.3982 -0.0016
23445W        W39254   7.603   9.422   3.149  0.0912  0.0740  0.3750
23446W        W39255   4.893  17.363   1.051  0.0934  0.0126 -0.2304
23447W        W39256   6.502  17.110  13.286 -0.3962 -0.0832 -0.1520
23448W        W39257   8.375   3.984  14.612  0.0260 -0.2797  0.0352
23449W        W39258   0.085  11.213   3.690  0.1443  0.0785  0.0002
23450W        W39259   5.083  15.865   1.258  0.3518  0.2881  0.2309
23451W        W39260  11.950  18.463   0.658  0.0669 -0.1472 -0.3126
23452W        W39261   6.212  18.419  13.805  0.1539 -0.1504  0.0742
23453W        W39262   5.432   4.456  13.908 -0.0720  0.0694  0.1503
23454W        W39263   6.960  17.866  13.870 -0.2990  0.3269 -0.1400
23455W        W39264  17.756  16.952   4.429  0.2656  0.2212 -0.0719
23456W        W39265   6.452   3.795   1.394 -0.0988 -0.3059 -0.0622
23457W        W39266   9.430   2.524  13.735  0.1219 -0.2386 -0.2478
23458W        W39267   7.324  15.406  14.813  0.2832  0.0621  0.2265
23459W        W39268   1.373   7.439   3.869 -0.1200  0.0788 -0.3463
23460W        W39269   8.782   7.480  12.291 -0.6152  0.0919 -0.3865
23461W        W39270   4.620  15.396   3.182 -0.2116  0.4124  0.0415
23462W        W39271   4.261  15.866   1.983 -0.0617 -0.0136 -0.0203
23463W        W39272  17.799   1.197  14.673 -0.0881  0.0638  0.0260
23464W        W39273  18.019  11.179   5.041  0.0327  0.1238  0.1910
23465W        W39274  13.765   3.054  14.990  0.0470 -0.4222  0.1261
23466W        W39275   4.906   3.777   3.226  0.3065 -0.2196  0.3508
23467W        W39276   0.475   7.435   0.445 -0.0697  0.1588 -0.4805
23468W        W39277  17.074  13.078   3.839 -0.2319  0.3829 -0.1270
23469W        W39278  17.325  16.472  15.023 -0.2675 -0.1009 -0.3649
23470W        W39279   3.039  11.740  11.109 -0.1634  0.0627 -0.2094
23471W        W39280  13.879   0.163   1.928 -0.0420 -0.2416  0.2123
23472W        W39281   8.563   3.505   2.938  0.0134  0.1225  0.0793
23473W        W39282   9.365   5.908   9.245 -0.0237 -0.1048  0.0818
23474W        W39283   7.049   8.763   0.150  0.0973 -0.2129  0.2224
23475W        W39284   7.287   0.509   0.743 -0.0425 -0.0703  0.2685
23476W        W39285   2.648  16.557   2.674  0.0479 -0.0271  0.1284
23477W        W39286  18.886   3.906  14.663  0.2558 -0.1884 -0.1298
23478W        W39287  10.495   7.418   3.101 -0.1610 -0.1954  0.3367
23479W        W39288  13.819  17.485   1.241  0.1576  0.0959 -0.0870
23480W        W39289  13.592   3.531   2.860 -0.0364  0.0147  0.0287
23481W        W39290  18.058  18.349   1.250  0.1346 -0.0717 -0.2202
23482W        W39291   2.206  18.371  11.966  0.0104  0.0357 -0.3989
23483W        W39292  10.810   3.904   2.593  0.2311  0.2035 -0.0739
23484W        W39293   2.937  15.748  13.587 -0.1575 -0.3017  0.2011
23485W        W39294  11.357   2.650  10.961 -0.2264 -0.0535 -0.1991
23486W        W39295   1.282   4.552   2.443  0.0114  0.1792 -0.0192
23487W        W39296   9.099  12.671  12.047 -0.3612 -0.0342 -0.0308
23488W        W39297  16.067   7.673  12.060 -0.0386 -0.2843 -0.2308
23489W        W39298  13.200   4.919   4.718 -0.2038  0.1410  0.0402
23490W        W39299   5.128  10.658   4.242 -0.2386 -0.1351 -0.2021
23491W        W39300   9.910   3.538   4.475  0.0693  0.1106 -0.1323
23492W        W39301  15.334   3.413   2.737  0.2223 -0.3111 -0.3759
23493W        W39302  18.327  12.703   4.074  0.0788  0.0953 -0.2108
23494W        W39303   8.946   0.152   1.273 -0.0048 -0.4305  0.2068
23495W        W39304   0.622   0.977   5.445  0.2320 -0.0857  0.0237
23496W        W39305  10.402  18.646   4.199  0.4783 -0.2391 -0.1478
23497W        W39306   0.877  18.321  13.247  0.3467 -0.1472  0.2337
23498W        W39307  14.463  15.670   3.414 -0.3526  0.3183 -0.2717
23499W        W39308  13.127  16.252  10.707  0.0074 -0.2301  0.1317
23500W        W39309   1.670  17.654   4.628 -0.0488  0.1523  0.0648
23501W        W39310  11.036  16.130  14.072  0.0588  0.0472 -0.0325
23502W        W39311   8.662   6.128  14.774 -0.3013  0.2721 -0.1274
23503W        W39312  17.190  17.373  11.416  0.1119  0.2076 -0.0858
23504W        W39313   1.436   0.903  12.473  0.2700 -0.3981 -0.0017
23505W        W39314   2.727  10.408  14.516 -0.4060  0.2456  0.0445
23506W        W39315  16.468   3.746   3.030 -0.0986  0.0938  0.1261
23507W        W39316  14.603  12.043   2.142  0.0692 -0.3220 -0.0115
23508W        W39317   8.112   9.216   3.881 -0.2417  0.2469 -0.1060
23509W        W39318  13.217   5.527  10.294  0.2334  0.0359 -0.0639
23510W        W39319  14.121   7.914  13.369  0.2982 -0.0372  0.1406
23511W        W39320  13.175   2.586   5.342  0.0655 -0.0057  0.1207
23512W        W39321  11.074   7.759   3.937 -0.1827  0.0856 -0.0392
23513W        W39322  12.301  11.104  10.363 -0.0941 -0.0212 -0.1029
23514W        W39323   4.618   3.810  12.894 -0.1648 -0.2948  0.2216
23515W        W39324  17.928   4.777  12.196 -0.0734  0.0362 -0.1768
23516W        W39325  19.156   8.077  14.703 -0.1479  0.1670 -0.0344
23517W        W39326   0.993  18.429   9.753 -0.3794 -0.0466 -0.1371
23518W        W39327  17.583   3.589  13.120 -0.0774 -0.1250 -0.2038
23519W        W39328   2.000  13.573   3.499  0.2886  0.1545 -0.0545
23520W        W39329  14.774  14.352   4.320 -0.4021 -0.0031 -0.0430
23521W        W39330  17.768   0.170  12.623 -0.0021  0.0608 -0.2352
23522W        W39331  10.179   3.990  14.447 -0.1856  0.1552 -0.0519
23523W        W39332   0.329   6.425   2.341  0.0046  0.1544 -0.0549
23524W        W39333  17.450   8.971  11.896 -0.0731  0.0141 -0.2824
23525W        W39334   5.410  13.357  11.858 -0.2932 -0.0845 -0.1171
23526W        W39335  13.383   7.513   0.705 -0.1919  0.0434 -0.2331
23527W        W39336   7.546   5.098   2.106 -0.1996 -0.2077 -0.2834
23528W        W39337  14.589   0.202   1.935 -0.1727  0.2644 -0.0946
23529W        W39338  13.592   6.989   1.813 -0.1161  0.2960  0.0075
23530W        W39339   2.999  17.954  14.000 -0.3584  0.0647 -0.2788
23531W        W39340   2.575  13.487  11.931  0.1767 -0.1730 -0.1237
23532W        W39341  10.237   2.359   0.283  0.0922 -0.1456 -0.0341
23533W        W39342  13.437  18.116   2.557 -0.1032 -0.0638  0.0759
23534W        W39343  14.692   4.279  13.239  0.2444 -0.2612  0.0208
23535W        W39344  13.784   7.143   3.528  0.0089 -0.2146 -0.2625
23536W        W39345   4.511   8.332  10.459 -0.0710 -0.0914  0.0424
23537W        W39346   5.926   1.214  13.309 -0.2769 -0.1099 -0.0183
23538W        W39347  17.026   7.492  13.916  0.1797 -0.4033 -0.1247
23539W        W39348  18.661   5.612   2.332  0.1986  0.1189 -0.0048
23540W        W39349  14.671  14.197  10.898  0.2186  0.0303  0.1326
23541W        W39350   1.332   8.867   4.265  0.0046 -0.1931 -0.2259
23542W        W39351  14.423   9.290   4.235 -0.4056 -0.1050  0.2146
23543W        W39352   2.222  17.400  12.822  0.3354  0.0224 -0.3175
23544W        W39353  14.035  10.656   3.891  0.0095 -0.2030  0.0357
23545W        W39354  13.841  14.848  14.743  0.1660  0.1688 -0.0858
23546W        W39355   4.436   5.863  14.919 -0.0837 -0.1906  0.2352
23547W        W39356  18.460  12.352  11.247 -0.0464 -0.3110  0.2399
23548W        W39357   7.953   1.098  15.074  0.3333 -0.1552  0.0537
23549W        W39358   7.818   7.186   3.279  0.1794 -0.1863  0.0162
23550W        W39359  18.817  12.881  11.776 -0.0248 -0.1929 -0.0978
23551W        W39360   8.136  14.313   2.635 -0.0374  0.1807  0.0436
23552W        W39361   1.136  15.736   9.747 -0.0099 -0.0298 -0.0823
23553W        W39362   2.056  15.657  13.202  0.0028  0.1672  0.1722
23554W        W39363   9.840  12.954  10.734 -0.1036 -0.2373 -0.2837
23555W        W39364   6.261   1.182  11.519  0.3568  0.3433  0.0488
23556W        W39365  13.963   5.738   3.881  0.0239 -0.1437 -0.0930
23557W        W39366  10.001  12.767  11.922 -0.1264 -0.1831  0.0697
23558W        W39367  15.126   6.910   0.683  0.1427 -0.1389 -0.1451
23559W        W39368  13.309   5.124   4.284  0.3109 -0.1396  0.1926
23560W        W39369   8.855  18.209  11.624  0.1351 -0.1938 -0.0778
23561W        W39370  10.610   0.416   1.659 -0.3014  0.0979 -0.1813
23562W        W39371  14.785   8.684   1.754  0.3218  0.2235  0.1924
23563W        W39372  18.000  11.446   1.012 -0.1950  0.4647  0.1496
23564W        W39373  18.306  17.913   0.828 -0.0725 -0.0327 -0.4670
23565W        W39374   2.406   8.161   2.837  0.2078 -0.2475 -0.0526
23566W        W39375   0.265  12.084   2.501 -0.0233  0.0351  0.1675
23567W        W39376  10.164   2.665   2.722  0.1950  0.1600 -0.1144
23568W        W39377   3.280  15.837  13.053  0.0503  0.0071  0.0728
23569W        W39378   6.828   1.278  12.639 -0.1177  0.1239 -0.0202
23570W        W39379  13.955  17.739  10.531 -0.5015  0.1419 -0.2406
23571W        W39380   6.013   0.489  13.862  0.0041 -0.0127  0.0245
23572W        W39381   4.328   6.008   1.657  0.1503  0.1401 -0.0584
23573W        W39382   3.721   6.673  10.101  0.0038 -0.1890 -0.1282
23574W        W39383  18.931  13.676   3.163 -0.2222  0.0362 -0.0283
23575W        W39384   3.802   3.436   0.144 -0.0342  0.3622  0.0304
23576W        W39385   8.872   0.694  12.599  0.0992 -0.0889  0.1685
23577W        W39386   4.964  19.102   5.568  0.0881  0.0895 -0.1525
23578W        W39387   8.369  10.482   1.586  0.0309  0.0362  0.3936
23579W        W39388   8.564  10.604   0.758  0.2345  0.2073  0.1947
23580W        W39389   0.253   6.773  14.164 -0.1664  0.0204  0.1727
23581W        W39390   8.831  12.131  11.780  0.0413  0.0129  0.1473
23582W        W39391   4.287   5.612  11.375 -0.3553  0.0131 -0.0306
23583W        W39392  13.080   8.281   2.619 -0.1718  0.2828  0.0267
23584W        W39393  10.120   3.470   2.599  0.5880 -0.0058  0.1012
23585W        W39394   9.350   1.627   2.957  0.0674  0.3946  0.0599
23586W        W39395   9.700  16.505   4.924 -0.0372  0.6621 -0.0968
23587W        W39396   7.049  12.825  13.927 -0.2919 -0.2209  0.1221
23588W        W39397  16.637   9.635   2.060 -0.2347 -0.2186  0.2466
23589W        W39398  12.604  12.697  11.076  0.0993  0.1708  0.0948
23590W        W39399  15.652   1.408   0.500 -0.2533 -0.2907 -0.0493
23591W        W39400   4.065   3.420   2.166 -0.0468  0.0963  0.4941
23592W        W39401  18.295   0.141   4.033  0.0122 -0.2207 -0.2600
23593W        W39402   4.516  13.811   4.076 -0.2268  0.0985  0.0867
23594W        W39403   1.205   1.059   4.981  0.0308 -0.1815 -0.2414
23595W        W39404  16.286   2.975  12.639  0.1321  0.2278 -0.0273
23596W        W39405  11.880   3.486   3.078 -0.0943  0.0837 -0.0971
23597W        W39406   2.946   8.112   1.404 -0.2044  0.1656 -0.0683
23598W        W39407   3.925  14.118  11.619 -0.0456 -0.0531  0.0435
23599W        W39408   7.663   1.611   0.040  0.2555  0.1032 -0.1423
23600W        W39409   2.248   7.919   4.002  0.1945  0.1858  0.0575
23601W        W39410   5.187   5.502  14.918 -0.0436  0.0368  0.2008
23602W        W39411  15.168  17.901  13.521  0.1923  0.0987  0.4227
23603W        W39412  17.062   6.148  12.569  0.0184  0.1201  0.0347
23604W        W39413   7.577  13.702  12.043 -0.4814 -0.2181  0.0411
23605W        W39414  10.622   8.790   4.919 -0.1748 -0.2696  0.0961
23606W        W39415   5.791   1.253   3.093  0.1306  0.3250 -0.0165
23607W        W39416  11.543  12.197   3.672  0.0088 -0.2784 -0.0611
23608W        W39417   8.090  12.803  13.514 -0.1226 -0.1269  0.1019
23609W        W39418   3.123   8.646   9.482 -0.0518 -0.0593 -0.0116
23610W        W39419  14.393  14.135   4.160  0.1761  0.3537  0.0845
23611W        W39420   6.094  12.018  13.755 -0.3447  0.1329 -0.0113
23612W        W39421  16.595   9.173  11.376  0.0354  0.0708  0.1782
23613W        W39422  15.244   1.231   4.148 -0.2433 -0.3733  0.2675
23614W        W39423   9.624  18.122   1.897  0.2128  0.0479  0.3351
23615W        W39424  12.072   2.991  13.033  0.1367  0.2546 -0.2735
23616W        W39425  16.580  10.209   3.874 -0.2174  0.1678 -0.0384
23617W        W39426  10.729   2.892  12.343  0.1195  0.1569 -0.3729
23618W        W39427   1.552   2.095   4.207  0.0015 -0.0153 -0.3238
23619W        W39428  10.510   0.168  12.609 -0.1805 -0.1736  0.0630
23620W        W39429  10.720  13.843   2.995  0.0813  0.3713  0.1487
23621W        W39430   6.181  16.224  12.943  0.0179 -0.1425  0.0450
23622W        W39431  13.001  13.724   2.243  0.0150  0.0911 -0.0263
23623W        W39432  10.141   0.714   2.259  0.1574  0.0875  0.0039
23624W        W39433   1.096   4.044  10.281  0.2479 -0.0600 -0.0679
23625W        W39434   8.803   4.980  11.133 -0.0009 -0.0506  0.0406
23626W        W39435  10.984  18.253   3.185 -0.1486 -0.0777  0.0301
23627W        W39436   5.531   4.195  15.044 -0.4494 -0.2657  0.0983
23628W        W39437   6.314   2.770  11.686  0.2160  0.1131  0.0523
23629W        W39438  16.907   9.028   3.402 -0.1791 -0.1895  0.2194
23630W        W39439  10.745  19.157  10.554 -0.1633  0.0801  0.1768
23631W        W39440  15.289   1.647  14.395 -0.0088  0.2019  0.0240
23632W        W39441   8.566  14.110  12.128  0.0972  0.1146 -0.4655
23633W        W39442   2.245  18.479  11.443 -0.0418 -0.2375 -0.0059
23634W        W39443   7.011   7.138  14.829  0.0807  0.5037  0.2663
23635W        W39444   4.039  11.723   3.194  0.4291  0.0660 -0.3081
23636W        W39445   5.472  11.160  13.298  0.0270 -0.3713 -0.3460
23637W        W39446   5.628  12.957   2.460  0.2435  0.0232  0.0632
23638W        W39447   2.654   0.561   2.230  0.0436 -0.2352  0.2663
23639W        W39448   2.081   3.213  15.102  0.2569 -0.1428 -0.0561
23640W        W39449  10.538  19.087   0.650  0.0499  0.1130  0.0308
23641W        W39450   6.726  14.302   2.900 -0.0140  0.1436  0.0394
23642W        W39451   7.605   8.330  14.135  0.1527  0.3978 -0.2161
23643W        W39452  11.470   5.887   1.723 -0.4453 -0.0835  0.0766
23644W        W39453   3.191  13.269   4.438  0.0065  0.3057 -0.3215
23645W        W39454   4.325   2.373  13.429  0.1342 -0.0321 -0.1277
23646W        W39455  15.235   2.643  15.104  0.0705 -0.0724  0.1222
23647W        W39456   6.273   8.538   5.519  0.3308  0.3232  0.2221
23648W        W39457   1.009  10.668   3.286 -0.1652  0.0213 -0.2306
23649W        W39458   5.976  10.603  12.665 -0.3116  0.2681  0.2063
23650W        W39459   4.806   4.047   5.102 -0.2883  0.0540 -0.2346
23651W        W39460   1.209  17.594  12.683 -0.0215 -0.0337 -0.0679
23652W        W39461  13.766   0.563  15.066 -0.0071 -0.0571  0.3761
23653W        W39462   7.081  18.581   2.161 -0.2618  0.1609 -0.1610
23654W        W39463  17.487   2.908  13.784 -0.0657 -0.2166  0.4902
23655W        W39464  17.314   6.352  14.747  0.0448 -0.1196 -0.1479
23656W        W39465   4.814  12.469  11.277  0.2784 -0.0541 -0.0416
23657W        W39466  12.998   9.983   2.233  0.1104  0.2045 -0.2017
23658W        W39467  11.405   1.082   4.195  0.1684 -0.0266 -0.2459
23659W        W39468  18.571  16.543  11.573  0.0320 -0.0681  0.0194
23660W        W39469   4.793  16.588  13.668  0.1770 -0.3892 -0.0053
23661W        W39470   0.021  18.480   4.280 -0.1714  0.2591 -0.0090
23662W        W39471   1.064   1.218  14.082 -0.0229  0.2775  0.1374
23663W        W39472  15.663  18.071  13.500 -0.0686  0.1142 -0.0944
23664W        W39473  14.841  18.443   5.286  0.0275 -0.0438 -0.1292
23665W        W39474  14.754  17.495   4.229 -0.1113  0.0912 -0.0312
23666W        W39475   5.491   5.534   8.814 -0.2533 -0.0367  0.2120
23667W        W39476   3.079   8.722   3.159 -0.4352  0.0516  0.1382
23668W        W39477  13.541   3.569   9.934  0.1528 -0.1246 -0.1154
23669W        W39478  12.697   0.807   1.788  0.3372  0.0325  0.0341
23670W        W39479   8.178  12.899   0.356  0.0926 -0.4719  0.0144
23671W        W39480   8.728  16.327   0.536 -0.1829  0.0160  0.2609
23672W        W39481  18.524   1.541  12.397  0.1288 -0.0516 -0.3235
23673W        W39482  16.089   6.068   4.169 -0.3110  0.0615  0.1171
23674W        W39483   9.783  18.714  11.428 -0.0890  0.5724  0.4238
23675W        W39484  10.630  18.111  12.056 -0.1217  0.0265  0.0441
23676W        W39485   6.313  10.646   2.684  0.1527 -0.2289 -0.0767
23677W        W39486   5.673  13.049  13.884 -0.2043 -0.0541  0.2567
23678W        W39487   6.277   6.492   3.214 -0.1096 -0.1047  0.1845
23679W        W39488  12.060  12.861  14.992  0.0726  0.2281  0.0064
23680W        W39489   9.874  15.592  14.119 -0.0116  0.0296  0.0454
23681W        W39490   0.799  12.324   3.009  0.3441 -0.0994  0.0528
23682W        W39491  14.469   2.338   2.340  0.0637 -0.1542  0.0774
23683W        W39492  18.900   8.836  10.439  0.0931  0.2751  0.3892
23684W        W39493   0.217   4.451  12.348  0.0331 -0.0559  0.2149
23685W        W39494   2.313  11.669   2.573  0.4887 -0.0740  0.1054
23686W        W39495   7.242  14.121  11.518 -0.3127  0.3214 -0.2507
23687W        W39496   4.129  10.081  12.143  0.1744  0.0872  0.1213
23688W        W39497  13.576   3.799   3.955  0.0070 -0.2227 -0.1090
23689W        W39498  15.953  18.034   1.836  0.0338 -0.0033 -0.1787
23690W        W39499   7.199   1.104  10.730  0.1550 -0.0615  0.0404
23691W        W39500   2.356  16.964  10.179 -0.1850  0.1086 -0.0253
23692W        W39501  14.259  10.350  13.989 -0.1936  0.1144  0.2532
23693W        W39502   4.730  13.161  12.059  0.0340 -0.1260  0.3758
23694W        W39503  16.388  18.451  10.827  0.2705 -0.3075 -0.0925
23695W        W39504  12.237  14.003   5.749 -0.3576  0.0752 -0.0970
23696W        W39505   1.695   8.809   2.072 -0.0408  0.1273  0.1809
23697W        W39506  19.118   5.221   1.436  0.2594 -0.0379  0.2004
23698W        W39507   1.527   1.783  14.697 -0.0639 -0.1532 -0.1160
23699W        W39508  15.380  16.615  12.042  0.3215  0.0218 -0.1301
23700W        W39509   3.187   1.140  13.182 -0.3568 -0.0933 -0.0144
23701W        W39510  13.908   8.467  12.149  0.0735  0.1285 -0.1223
23702W        W39511  15.827  14.187   0.028 -0.0226  0.2510 -0.0956
23703W        W39512  15.080   1.961  12.796  0.2632 -0.4308 -0.0440
23704W        W39513   2.309   5.300   0.152 -0.0959  0.0189 -0.0535
23705W        W39514   0.856   3.431  14.381 -0.2260  0.0974  0.1322
23706W        W39515  15.323   8.121   1.927  0.1109 -0.0467  0.0011
23707W        W39516   7.164   0.089   1.530  0.3003 -0.0569 -0.0441
23708W        W39517  16.598   4.408   4.399  0.3935 -0.3923 -0.1894
23709W        W39518  16.771   0.493  13.116  0.5619 -0.4228 -0.0084
23710W        W39519  16.698  10.605   0.897  0.1157  0.1428 -0.3476
23711W        W39520   6.386   7.395   0.192  0.3185 -0.1325  0.2547
23712W        W39521  18.750  14.219   4.528  0.2447 -0.0375  0.0271
23713W        W39522   2.753  16.548   4.158 -0.4012 -0.1161 -0.1158
23714W        W39523   7.547  15.798   1.535 -0.2888 -0.0866 -0.0611
23715W        W39524  18.797   3.608  10.661  0.0851  0.1135 -0.3974
23716W        W39525   4.760   8.864   0.481  0.0905 -0.1321  0.0482
23717W        W39526  10.688  13.942   3.869  0.0426  0.2118  0.0736
23718W        W39527  18.411  10.945   3.243  0.2323 -0.4933  0.0134
23719W        W39528   8.692   4.551  15.067 -0.0520  0.2118  0.0145
23720W        W39529  12.890   8.113  10.786  0.1352  0.0075  0.2759
23721W        W39530   2.322  10.448  14.033 -0.2104  0.0910 -0.1461
23722W        W39531  14.427  15.363  14.902  0.1214 -0.0900  0.0578
23723W        W39532  11.229  10.491   3.248  0.2619  0.0441 -0.0719
23724W        W39533   0.405  14.812   4.847 -0.1401 -0.0266 -0.2491
23725W        W39534   9.775  16.501  13.412 -0.6950 -0.2359  0.4869
23726W        W39535  12.033  10.989   4.515  0.0674  0.2508 -0.3652
23727W        W39536   0.845  12.797   2.161  0.3129  0.2057 -0.1544
23728W        W39537  10.460  11.208  12.403 -0.0546  0.0562  0.0931
23729W        W39538   4.444  14.641   4.155  0.0181  0.2043 -0.1327
23730W        W39539   3.023  11.554  14.699 -0.4025 -0.2375  0.2332
23731W        W39540  15.118  14.407  13.262  0.0622  0.0042 -0.1867
23732W        W39541  16.568   7.386  10.213 -0.2148  0.0354  0.5769
23733W        W39542  10.009   9.252  10.804 -0.0674  0.3768  0.2865
23734W        W39543   2.681  14.087   3.021  0.0239  0.0055  0.0449
23735W        W39544   8.811   7.836  12.674  0.0740 -0.5376  0.0879
23736W        W39545  18.271   3.181   0.332 -0.1811  0.4420 -0.0013
23737W        W39546  15.624  18.512   0.933  0.0451 -0.0194 -0.0245
23738W        W39547   5.465   6.474  10.366 -0.2653  0.1988  0.0633
23739W        W39548   4.545   6.539  14.189  0.1130  0.1017 -0.2744
23740W        W39549   6.124  17.228   5.397  0.0012 -0.0026 -0.1637
23741W        W39550  18.470  11.538  14.537  0.0509 -0.0805  0.1059
23742W        W39551  12.883  12.447   4.450 -0.2741  0.1947  0.0148
23743W        W39552  18.926  10.213  12.687 -0.1967  0.3397 -0.0872
23744W        W39553   5.580   8.738  14.165 -0.1319  0.5165 -0.3022
23745W        W39554   2.381  16.120  14.200 -0.1769 -0.0101 -0.3689
23746W        W39555  12.188  16.097   6.107 -0.2261 -0.1089  0.1109
23747W        W39556  16.580  13.705   0.988  0.1243  0.1360  0.0692
23748W        W39557  14.220  17.339   4.289 -0.1728 -0.1565 -0.0392
23749W        W39558  14.004   9.830  15.127  0.1025  0.1768  0.0077
23750W        W39559   8.994   3.022   4.746  0.0254  0.1046  0.1792
23751W        W39560  10.238  11.765   6.112 -0.0194 -0.1248  0.0106
23752W        W39561   0.275   7.134   4.815  0.1987  0.2035 -0.0577
23753W        W39562  10.963  10.948   5.487 -0.0389  0.2842 -0.1902
23754W        W39563   3.632   6.183  11.412  0.0135  0.2286  0.5776
23755W        W39564  16.534  16.892   2.971  0.0147 -0.1599  0.4162
23756W        W39565  14.885   2.788   4.611  0.3417 -0.0589  0.2743
23757W        W39566   3.622  10.652   1.248 -0.3644 -0.1746 -0.2774
23758W        W39567   4.603   3.559   4.373 -0.3199  0.2012  0.1037
23759W        W39568  15.400  16.707  13.408  0.1948 -0.0933  0.1634
23760W        W39569   1.373   3.526   3.011  0.0638 -0.2043 -0.2203
23761W        W39570   5.089  10.467   2.030 -0.3195 -0.1211 -0.2273
23762W        W39571  14.533  14.825   3.218 -0.0535 -0.4651 -0.1416
23763W        W39572  11.373   7.292   1.836  0.5044 -0.2676  0.0393
23764W        W39573  15.262   4.749  11.404 -0.2240  0.0026  0.0242
23765W        W39574  18.982  15.381  11.418  0.1834 -0.1390  0.1287
23766W        W39575   0.501   2.700   0.635 -0.0966 -0.1758  0.1928
23767W        W39576   9.915   5.567   2.769  0.0372 -0.0670 -0.0529
23768W        W39577  18.316   1.108  10.769  0.1180 -0.0185 -0.2705
23769W        W39578  16.793  13.680   1.507  0.0694  0.1083  0.0145
23770W        W39579   6.970  18.240   4.225  0.0764 -0.0365 -0.0466
23771W        W39580   0.824  15.069  14.799 -0.1256  0.2338  0.1014
23772W        W39581   2.517   6.009  11.697  0.0075 -0.1261  0.3395
23773W        W39582   1.233  15.038  15.122 -0.0234 -0.1175  0.0846
23774W        W39583  11.266   5.901  14.102 -0.3454 -0.1048  0.1938
23775W        W39584   9.306  18.862   3.171  0.1492 -0.0711  0.0842
23776W        W39585   5.649   6.027   5.248 -0.1122  0.2087  0.0392
23777W        W39586   5.104   2.689  11.892 -0.0300  0.1175  0.1139
23778W        W39587   8.328  14.242  10.877  0.0409 -0.1247  0.0148
23779W        W39588   2.775   6.815  10.507  0.1702  0.1014  0.0122
23780W        W39589   3.585  13.228   4.160  0.0915 -0.3609  0.0584
23781W        W39590   7.331   0.896   2.323 -0.0200 -0.4459  0.0451
23782W        W39591  17.498   0.301   4.959 -0.3032  0.1149  0.0866
23783W        W39592   1.931  18.189  14.118  0.1980  0.4818 -0.1444
23784W        W39593  16.185  11.362  13.192  0.2356  0.2141  0.0533
23785W        W39594  17.476   5.110  11.072 -0.0630 -0.2464 -0.1780
23786W        W39595  15.465   8.518   5.194  0.0119  0.1657  0.0216
23787W        W39596   2.713   4.113  13.011 -0.0495 -0.0937 -0.0249
23788W        W39597   6.013   7.425   1.156 -0.0465  0.1129  0.1002
23789W        W39598   9.968   7.840  14.673 -0.0309  0.1303  0.1106
23790W        W39599  14.199  17.688   5.654 -0.1279  0.1289  0.3700
23791W        W39600   4.920  15.855   1.731  0.0074  0.3130  0.2232
23792W        W39601   8.363   6.357   2.431  0.3447  0.1966  0.1964
23793W        W39602  13.181   4.098  14.384  0.1929 -0.1028 -0.0109
23794W        W39603   5.047   6.263  14.011  0.0685 -0.0970  0.2536
23795W        W39604  11.824   5.511  12.271 -0.0504 -0.1020 -0.2757
23796W        W39605  16.555   6.003   0.210  0.2500 -0.3623 -0.2298
23797W        W39606   2.853  10.735  14.953 -0.0177 -0.2506  0.2021
23798W        W39607   2.393  18.900  13.394  0.1722  0.2813 -0.2184
23799W        W39608   7.733   6.596  11.306 -0.0708  0.1517  0.0906
23800W        W39609   1.145  13.976   3.113  0.0803 -0.1800  0.0663
23801W        W39610   1.259   3.461   0.545 -0.0247 -0.1284 -0.3096
23802W        W39611   7.361   9.287  10.747 -0.1383  0.1109 -0.0902
23803W        W39612  17.766  14.891   1.915  0.3133 -0.1208 -0.3536
23804W        W39613  13.113   6.545   0.565 -0.1977 -0.1377  0.0589
23805W        W39614   8.386  16.416   4.881  0.0568  0.1625 -0.2679
23806W        W39615   7.889   7.541  10.157  0.0306 -0.0019  0.5596
23807W        W39616  14.429   1.326   0.784 -0.0103  0.1781  0.0061
23808W        W39617   9.340  14.604  15.075 -0.0637  0.0607 -0.4070
23809W        W39618  14.973  12.808   4.278 -0.2464 -0.1168  0.0012
23810W        W39619   1.923  14.137  13.934  0.0762 -0.3741 -0.3076
23811W        W39620   4.453  15.283  12.551  0.1741  0.1853  0.3690
23812W        W39621   8.949  12.707   0.717  0.2149  0.2314 -0.0025
23813W        W39622   4.516   4.800   4.886 -0.2816  0.1992  0.2767
23814W        W39623  13.762   0.450   3.042  0.1515 -0.0154  0.2461
23815W        W39624  10.855  18.283   2.707 -0.0958  0.1700 -0.2360
23816W        W39625   8.837  17.606   2.560 -0.0557  0.0788 -0.1413
23817W        W39626   4.009   5.872   0.637  0.0027 -0.2960 -0.3283
23818W        W39627  13.631   5.002   0.104 -0.1556 -0.2366  0.0763
23819W        W39628  17.107  10.171   5.116 -0.1997 -0.1230 -0.0486
23820W        W39629   9.514   2.927   3.271  0.0428  0.0441 -0.1345
23821W        W39630  16.993  17.741   9.572  0.0951  0.2180  0.1634
23822W        W39631  13.509  18.819   4.932  0.1263 -0.0179  0.3609
23823W        W39632  11.171   2.425  15.179 -0.2004  0.0269  0.0151
23824W        W39633   6.180  17.201  12.621  0.0853  0.1982  0.2376
23825W        W39634   5.935   9.095  13.158 -0.1798  0.0045  0.0097
23826W        W39635   3.017  14.093   4.660  0.1478  0.0152 -0.0241
23827W        W39636  16.749   0.147  11.054  0.0511 -0.1806  0.0019
23828W        W39637  18.496   5.404   5.096 -0.3774  0.2584  0.0741
23829W        W39638   2.167   0.634  11.701 -0.0853  0.2064  0.3103
23830W        W39639  17.532  14.386   3.979 -0.4011 -0.1238 -0.0827
23831W        W39640  18.880   1.450   1.597  0.0084 -0.1967  0.0169
23832W        W39641   1.833   2.845   3.765  0.0130  0.2366 -0.1430
23833W        W39642  13.369   0.298   2.722  0.0477  0.2792  0.2752
23834W        W39643  14.280  10.995  12.380 -0.0429  0.3108  0.0001
23835W        W39644  13.259   0.556  11.627  0.2286 -0.0678 -0.1817
23836W        W39645   9.731   7.801  10.215  0.0542  0.1277 -0.0640
23837W        W39646  12.729  12.967  13.130 -0.4061  0.0022  0.1848
23838W        W39647   5.256   4.681  11.961 -0.0725 -0.1360 -0.0164
23839W        W39648   1.884   6.795   0.565 -0.3489 -0.1087  0.2113
23840W        W39649  18.601   5.324  10.133  0.0769  0.0407  0.4629
23841W        W39650  12.251  18.086   1.934  0.2292 -0.0076  0.3915
23842W        W39651  11.116  15.167  13.962 -0.0128 -0.0995 -0.0696
23843W        W39652   0.656  14.611  13.896  0.1866  0.0424 -0.0260
23844W        W39653  16.158   9.696   2.343  0.1011 -0.0499 -0.1611
23845W        W39654  13.895   7.067  14.124 -0.0289 -0.3640  0.3284
23846W        W39655  15.259   4.053   1.799  0.0576 -0.1160  0.0276
23847W        W39656  16.282  16.805   2.545 -0.0043 -0.2810 -0.4386
23848W        W39657  15.201   4.481   4.811 -0.0004  0.0292  0.0086
23849W        W39658   5.777   2.695  14.871  0.2752  0.0242 -0.1316
23850W        W39659  13.280   7.274   3.595 -0.4835 -0.1468 -0.2922
23851W        W39660  16.634   2.675  12.465 -0.1496 -0.0432 -0.1246
23852W        W39661  13.760  15.713   1.803  0.1136  0.1339 -0.1795
23853W        W39662   8.967  16.280   3.555 -0.1569  0.0081  0.3351
23854W        W39663  14.141   9.840   2.288  0.1235  0.4803  0.1648
23855W        W39664  17.866   4.497   5.267  0.0981  0.2902 -0.1516
23856W        W39665  14.058   3.316   4.398 -0.2704  0.0338 -0.3176
23857W        W39666  15.688  13.803   5.814 -0.0402  0.2913 -0.0185
23858W        W39667   0.315  14.422  12.529 -0.3316  0.3032  0.0470
23859W        W39668   4.922  14.322   4.416  0.1000 -0.1738  0.1490
23860W        W39669   0.678   6.490   3.131  0.1337  0.0734  0.1924
23861W        W39670  19.072   3.901  14.113 -0.0732 -0.1567  0.1752
23862W        W39671   6.311   2.887   9.724 -0.1576 -0.1320  0.1378
23863W        W39672   6.098   0.623   5.630 -0.0247 -0.1646 -0.5081
23864W        W39673   9.512   1.282  13.298 -0.1301 -0.1216 -0.2318
23865W        W39674  19.027  12.852   1.948 -0.2106 -0.1957 -0.2180
23866W        W39675  14.583  14.651  14.666  0.1070 -0.1270 -0.1935
23867W        W39676   9.752  11.149   4.397  0.1740 -0.1809 -0.0167
23868W        W39677   4.057   8.955   3.012  0.0854 -0.3613 -0.2681
23869W        W39678   5.860  14.191  14.837 -0.2479 -0.3561  0.0297
23870W        W39679  13.660  10.071   2.340 -0.1781  0.0219  0.0823
23871W        W39680  13.861  11.198  12.115  0.1964  0.0612 -0.0672
23872W        W39681  17.281  17.902  12.448  0.2176  0.1587 -0.0619
23873W        W39682  11.605   2.756   4.581 -0.0565  0.0573 -0.2708
23874W        W39683   2.379  15.809  12.832 -0.0094  0.2217 -0.1657
23875W        W39684   5.950  10.503  14.372  0.0131  0.0076  0.2054
23876W        W39685   3.160   1.807   3.010  0.2369 -0.0120  0.4373
23877W        W39686  11.756  19.059   4.267  0.2586  0.1306 -0.2180
23878W        W39687   4.491   4.170   3.478  0.1279 -0.0135 -0.0104
23879W        W39688  13.677  18.449  11.500  0.3169 -0.0853  0.0938
23880W        W39689  14.597   1.848  11.492  0.1181  0.3334 -0.1484
23881W        W39690  13.099   2.591   0.830 -0.1357  0.0318 -0.0434
23882W        W39691   1.233  17.310  13.094 -0.1018  0.2301 -0.1048
23883W        W39692   7.344  17.395   4.097 -0.1271  0.3658  0.4530
23884W        W39693  18.184   5.173   3.093 -0.1348 -0.0660 -0.0938
23885W        W39694   4.079  10.047  13.071 -0.2976  0.1361  0.2364
23886W        W39695   5.202  11.862   4.664 -0.3841  0.0236 -0.0922
23887W        W39696  18.247   2.022   1.350 -0.0269  0.2172 -0.0368
23888W        W39697  12.761   1.959   0.307 -0.1010 -0.0642 -0.0852
23889W        W39698  15.386   6.474  12.548 -0.0238 -0.4285 -0.0386
23890W        W39699  18.046   4.258  13.743 -0.0292 -0.0492 -0.2489
23891W        W39700  18.847   4.874  14.408  0.1524  0.0639 -0.1694
23892W        W39701   0.851   6.593   4.454 -0.1453  0.2106 -0.0199
23893W        W39702  10.047  14.157   3.321  0.0847 -0.1207 -0.2718
23894W        W39703  14.933   1.392  11.121 -0.1031  0.1020 -0.1527
23895W        W39704   0.625   7.264   3.799  0.1113 -0.1684 -0.2857
23896W        W39705  15.468  12.308   4.538  0.0426 -0.0196 -0.2835
23897W        W39706   2.045   3.504  11.285 -0.2712 -0.0298  0.0785
23898W        W39707  15.205   0.128   5.612 -0.0114  0.1586 -0.1357
23899W        W39708   5.975   2.018   1.364 -0.1090  0.1074  0.0059
23900W        W39709  12.603  10.707  14.020  0.0766 -0.0633  0.0613
23901W        W39710  10.086   1.925   2.478  0.1012  0.3655  0.0540
23902W        W39711   7.671  18.572  12.313 -0.1564  0.2739  0.0433
23903W        W39712  10.842  17.687   2.560 -0.0207  0.1330  0.1930
23904W        W39713   6.718  16.921   0.635  0.2001  0.2837  0.1654
23905W        W39714   0.477   8.475   4.539  0.1582 -0.1665  0.0711
23906W        W39715   5.559  16.942   3.852 -0.2485 -0.0274 -0.0726
23907W        W39716   0.687  18.992   4.325  0.0278  0.2599 -0.1422
23908W        W39717  10.422  16.455   1.535 -0.1875  0.1412  0.0367
23909W        W39718   3.948   2.568  13.098 -0.0644 -0.1247 -0.1423
23910W        W39719   2.327   4.085  10.776 -0.2257 -0.1544  0.1153
23911W        W39720   6.592   4.931  12.819  0.1787 -0.0375  0.1632
23912W        W39721  15.203   3.452   1.771  0.2695  0.1065 -0.2320
23913W        W39722   4.566  14.629  11.163  0.2373 -0.0202  0.3749
23914W        W39723   8.258   8.887   3.382 -0.0627 -0.1143 -0.1221
23915W        W39724   0.874  11.574  15.098 -0.0361 -0.2874  0.3116
23916W        W39725   6.214   2.441   4.409 -0.4207  0.2117 -0.3241
23917W        W39726   8.000  18.328  14.872  0.0234 -0.0027 -0.0103
23918W        W39727   5.755   2.218   0.000  0.1412 -0.0449 -0.3301
23919W        W39728  16.698   1.403  11.579  0.0657  0.1997 -0.3832
23920W        W39729   9.956  18.926   4.363 -0.1919  0.1082 -0.2809
23921W        W39730  16.446   3.302  14.500 -0.1819  0.2821  0.2414
23922W        W39731  18.756  16.084   2.908  0.2071 -0.1482 -0.2212
23923W        W39732  11.691   7.356   9.397 -0.0527 -0.0793 -0.1417
23924W        W39733   3.655   7.031  12.162 -0.1165 -0.0648  0.1374
23925W        W39734   4.643  10.836   0.470 -0.0247 -0.2097 -0.0074
23926W        W39735  15.008   0.394  12.321  0.1269  0.4789 -0.1850
23927W        W39736  11.634   4.826  13.320  0.0591 -0.0081 -0.0910
23928W        W39737  10.366   3.897  14.916 -0.2129  0.0258  0.1272
23929W        W39738  13.038  15.926  13.951 -0.1346 -0.4967  0.2246
23930W        W39739  11.247   6.392   0.979  0.0086 -0.2012 -0.1562
23931W        W39740   8.461   6.354  13.550 -0.0560  0.1657 -0.1076
23932W        W39741   2.907   2.951  14.504 -0.3236 -0.3563 -0.2910
23933W        W39742  15.481  11.201  14.464 -0.2394 -0.0970  0.0280
23934W        W39743  10.470  11.468  12.868 -0.0363  0.0913  0.1521
23935W        W39744   6.649  13.883   3.289 -0.1636 -0.0503 -0.0269
23936W        W39745  19.055   3.164   1.058  0.0093  0.1608 -0.3598
23937W        W39746  13.443   8.119  11.529 -0.1311  0.1307 -0.0510
23938W        W39747   3.611   3.626  14.479 -0.1436  0.2264  0.2244
23939W        W39748  18.433   4.818   0.052 -0.0480 -0.3057 -0.0389
23940W        W39749  15.945   2.462   3.206 -0.4052 -0.0518  0.1242
23941W        W39750   4.018  18.685  10.040 -0.0850  0.0043  0.1964
23942W        W39751  12.006  18.235  12.435 -0.2240 -0.3355 -0.0711
23943W        W39752   4.613  18.249   1.179 -0.1141 -0.0171 -0.2986
23944W        W39753  10.804  18.533   4.526 -0.4196  0.2224 -0.1997
23945W        W39754  13.211   5.431   1.395  0.0711  0.1722 -0.1161
23946W        W39755   8.071   5.240  13.527 -0.1353  0.2931 -0.2513
23947W        W39756   7.949   6.784  14.844 -0.0295  0.2808 -0.0352
23948W        W39757   4.255  17.907   1.189 -0.1724 -0.1952  0.2920
23949W        W39758   6.558   0.223   5.685  0.0832 -0.0550 -0.0891
23950W        W39759   1.442  10.080   4.883  0.1058  0.2101 -0.0729
23951W        W39760   7.073  14.070  12.951 -0.1823  0.0700  0.2096
23952W        W39761   1.482   4.592   2.919 -0.0902 -0.0199 -0.0721
23953W        W39762   8.213   1.227  12.230  0.0308  0.1450  0.2233
23954W        W39763  11.211   1.659   2.892  0.4825  0.1090  0.1558
23955W        W39764  16.546  17.252  10.975 -0.0650 -0.0847 -0.1199
23956W        W39765  13.275   7.214   4.424 -0.1222  0.0711 -0.0070
23957W        W39766   1.422  11.776   2.810  0.0101  0.2991  0.0677
23958W        W39767   7.332   6.922  13.057  0.5269  0.2597 -0.1939
23959W        W39768  17.378  13.714  13.553 -0.0435 -0.1279 -0.1133
23960W        W39769  18.435  15.227  11.482 -0.1671 -0.2962 -0.1585
23961W        W39770  12.698   6.386   4.374 -0.0827 -0.2027 -0.1177
23962W        W39771   3.846   5.633  10.244 -0.2424  0.0297  0.2463
23963W        W39772   2.788   2.173   9.136  0.0522  0.1404  0.1347
23964W        W39773  17.860  11.444   2.083  0.0506 -0.0719  0.0760
23965W        W39774   6.173   5.005  14.305 -0.1677 -0.0824  0.0939
23966W        W39775   7.248  17.314   2.957 -0.0054  0.2108  0.1376
23967W        W39776   1.498  14.844   4.660  0.2937 -0.1764 -0.4113
23968W        W39777   3.704  16.284   3.460 -0.0707  0.2045  0.4449
23969W        W39778   2.362  18.373  10.476 -0.2277 -0.1735  0.4052
23970W        W39779  11.963   5.227   3.001 -0.2284 -0.2533  0.1370
23971W        W39780  13.622   3.789   1.508  0.1833 -0.0554 -0.1612
23972W        W39781   2.718  13.704   9.041 -0.1130  0.0787 -0.0867
23973W        W39782  12.274   0.131  12.453 -0.1550 -0.0190 -0.0910
23974W        W39783   7.263   8.743   4.790  0.1842 -0.2373 -0.1777
23975W        W39784   0.894  16.169   4.606  0.0178 -0.0453 -0.3817
23976W        W39785  16.178   5.904  11.929  0.1898 -0.0846 -0.0030
23977W        W39786  10.004  13.304   2.666 -0.1442  0.2715 -0.1168
23978W        W39787  14.237   8.002   4.034 -0.1959 -0.0392  0.3507
23979W        W39788   6.216   5.277  10.536  0.1354  0.0228 -0.0737
23980W        W39789  10.214  18.450  12.321 -0.0618  0.2076 -0.3500
23981W        W39790  14.975   3.600  14.585  0.1113 -0.0238  0.2732
23982W        W39791  15.146  15.902  12.442  0.1439  0.0644  0.2652
23983W        W39792   7.213   5.170   9.938  0.0258  0.0952 -0.2479
23984W        W39793  14.852   1.448   4.979 -0.1364 -0.1395  0.0299
23985W        W39794   9.020  11.619   1.473  0.1307 -0.1808 -0.0116
23986W        W39795  18.968   2.568   9.972 -0.1389 -0.1384  0.0227
23987W        W39796  18.096   8.696   3.682 -0.0569  0.5704 -0.5182
23988W        W39797  18.848  12.035   4.137  0.1057 -0.0888  0.2381
23989W        W39798   4.075  17.495  10.465 -0.0152 -0.1740 -0.0305
23990W        W39799   6.789  18.220   0.735  0.3336 -0.3032 -0.1880
23991W        W39800  19.018   5.378   0.587  0.0520  0.1791 -0.2741
23992W        W39801  18.043  10.115  12.772  0.1661 -0.1977 -0.2116
23993W        W39802   8.842  15.024   1.835  0.0658  0.3189 -0.2459
23994W        W39803  18.617  18.562   3.539  0.1863  0.0777 -0.0603
23995W        W39804   3.249  17.701   4.535  0.1078 -0.0353  0.1261
23996W        W39805   0.276   9.308  12.671 -0.0957  0.1938  0.0445
23997W        W39806  17.811  11.879  11.781 -0.0970 -0.0444  0.0463
23998W        W39807  10.240   5.839  14.554 -0.0056  0.3305  0.2393
23999W        W39808  10.317   0.306   2.616 -0.0591  0.1111 -0.1369
24000W        W39809  16.354  18.172   4.729  0.2042 -0.1256 -0.2674
24001W        W39810   1.743  17.692  15.003 -0.1055  0.0744 -0.0378
24002W        W39811   4.070  11.885   2.443  0.2473  0.2090 -0.1241
24003W        W39812   3.743   3.050  10.592  0.0815 -0.1828  0.0868
24004W        W39813   8.770   4.455  10.550 -0.0507 -0.2827 -0.0373
24005W        W39814   1.211   3.483  13.275  0.2618 -0.0986  0.0423
24006W        W39815   6.627   0.958  11.285 -0.1277  0.1066  0.3572
24007W        W39816   0.846  18.205  10.337  0.2637 -0.0377 -0.2449
24008W        W39817  13.695   3.766  10.380 -0.2161 -0.1910  0.0058
24009W        W39818  18.570   5.601  13.210  0.0865 -0.2081  0.1784
24010W        W39819   8.588  16.868  14.647  0.1333 -0.0435 -0.1513
24011W        W39820   3.387   1.805   5.102 -0.3063 -0.0343 -0.0487
24012W        W39821   3.194  17.744  13.221 -0.0801 -0.0906  0.1331
24013W        W39822  13.494   1.877  14.014  0.2256  0.2349  0.0495
24014W        W39823   9.580  15.523   3.290 -0.0673 -0.0475  0.0932
24015W        W39824  17.848  12.452   4.970 -0.0190  0.1526  0.1572
24016W        W39825   8.530  15.490  13.029 -0.2718  0.2458 -0.0066
24017W        W39826   8.956   9.859  13.321 -0.0450  0.3315 -0.2742
24018W        W39827  17.243   0.356   4.349  0.0897 -0.0340  0.1612
24019W        W39828   8.057   8.410   2.333  0.0824 -0.1596  0.0615
24020W        W39829  17.609  12.028   5.017  0.0456  0.1721 -0.0853
24021W        W39830  17.939   7.964   1.511 -0.3372 -0.0186  0.0380
24022W        W39831   1.187   3.393   2.563 -0.2728 -0.1621 -0.2359
24023W        W39832   0.991   7.559  13.241  0.4546  0.1239  0.1118
24024W        W39833   8.179  12.110   3.808 -0.0700  0.3219  0.1903
24025W        W39834  18.230  17.252  13.909  0.0425  0.0267  0.0337
24026W        W39835   2.744  10.427   2.978 -0.1438 -0.1598  0.0488
24027W        W39836   4.174  10.453  10.998 -0.2296 -0.0892  0.1221
24028W        W39837   1.754   5.874  14.606  0.0028 -0.0642  0.1130
24029W        W39838   0.891   6.086   2.765 -0.0200 -0.0330 -0.3159
24030W        W39839  18.609   0.274   2.869  0.0726  0.3171 -0.2528
24031W        W39840   5.994   9.101  14.135 -0.0279  0.3024  0.3375
24032W        W39841  13.784  10.453  14.023  0.0318  0.0353 -0.1926
24033W        W39842   3.398   3.833  10.974 -0.0406 -0.0712  0.0143
24034W        W39843   2.307   3.708  11.764  0.2794  0.0940  0.0373
24035W        W39844  18.181  10.792  11.809 -0.0680  0.0190  0.1643
24036W        W39845  18.998   4.555  13.070 -0.2292 -0.1202 -0.0218
24037W        W39846   3.895   8.027   5.641  0.3853  0.0938  0.1201
24038W        W39847   2.424  16.958  10.718 -0.2232  0.1503  0.5702
24039W        W39848  14.780   1.053   4.140  0.1727 -0.0435  0.1562
24040W        W39849  17.490   7.703   5.869 -0.0069  0.1365  0.0548
24041W        W39850  14.795   6.756   4.340  0.0292  0.2475 -0.0900
24042W        W39851   2.124  12.845  12.974  0.0546 -0.1070  0.0028
24043W        W39852   7.538   5.880   9.591 -0.0898  0.1442 -0.0149
24044W        W39853  18.078   2.321   3.915 -0.0845  0.0937  0.1598
24045W        W39854   5.930   9.395   4.429  0.4699 -0.1590 -0.1305
24046W        W39855   9.112  11.373   1.959 -0.0627  0.2526  0.1912
24047W        W39856   2.963  10.919  10.861 -0.1307 -0.2412  0.0446
24048W        W39857   3.546   0.782   1.644 -0.1374 -0.2698 -0.2101
24049W        W39858   4.539  11.769  12.905  0.2144 -0.0223 -0.5283
24050W        W39859   5.985   2.650   4.878  0.2466  0.1971 -0.2749
24051W        W39860   7.657   7.338   0.759  0.0351  0.2333 -0.1148
24052W        W39861  14.395  13.829   1.566 -0.0745 -0.2372 -0.3288
24053W        W39862  10.384  18.743  11.865 -0.2025 -0.0748  0.0161
24054W        W39863  15.446  14.278   5.157  0.0998  0.0158 -0.2875
24055W        W39864   5.950  11.571  12.139 -0.3859 -0.1601 -0.3394
24056W        W39865  12.288  11.826   1.346 -0.3356 -0.0797  0.0841
24057W        W39866  14.991   9.304  11.109 -0.0673  0.1991 -0.0219
24058W        W39867  16.008  12.787   0.665 -0.4994 -0.1610  0.1004
24059W        W39868  13.113  10.414  14.845 -0.0308  0.0543 -0.0421
24060W        W39869  14.889  12.723  12.341  0.2465 -0.1146  0.0830
24061W        W39870   6.160  10.730   3.176 -0.0019 -0.2767 -0.1638
24062W        W39871  14.850   9.547   5.062  0.0745 -0.4570 -0.0312
24063W        W39872   3.555  14.511   3.267  0.1278 -0.0459  0.1671
24064W        W39873   7.486  14.892  12.208  0.0584 -0.2550 -0.1476
24065W        W39874   5.234   0.880  12.405  0.1066  0.0305  0.0466
24066W        W39875   5.027  11.182  12.879  0.2688 -0.4153  0.1717
24067W        W39876   7.997  17.238  14.918 -0.1390 -0.0434 -0.0504
24068W        W39877   7.110   6.167   0.558  0.2208  0.1311  0.0649
24069W        W39878   4.355  14.202   4.424  0.2656 -0.1244  0.4335
24070W        W39879  13.967   0.167  11.889  0.1052 -0.5286  0.3384
24071W        W39880  18.254  16.749  14.064  0.1285  0.0770  0.3009
24072W        W39881   7.110  10.477   1.879  0.2348  0.1065  0.0697
24073W        W39882  14.271  14.163  12.269 -0.1779 -0.0150  0.3705
24074W        W39883  17.009  13.478  11.807  0.0483  0.1778  0.0186
24075W        W39884   9.116   8.420   1.497  0.0579 -0.1531 -0.3849
24076W        W39885   2.317   0.015  15.005  0.1778 -0.0382  0.4046
24077W        W39886   8.653   9.266  12.640  0.2457  0.2584  0.2417
24078W        W39887   7.655   7.093   2.364 -0.1361 -0.1463  0.0597
24079W        W39888  11.951  11.274   1.903 -0.1738  0.3033  0.1742
24080W        W39889   5.659   3.958   2.803 -0.0637 -0.2132 -0.0443
24081W        W39890   1.713  16.771   3.082  0.0865  0.0859  0.2988
24082W        W39891   9.929   0.419  10.710 -0.3241 -0.0299  0.4833
24083W        W39892   2.913   1.250  11.830  0.2661 -0.1734 -0.2286
24084W        W39893   8.325  12.202   2.680  0.1141 -0.0173  0.0317
24085W        W39894  18.405  13.225  14.421  0.5059  0.3024  0.2588
24086W        W39895   3.281  11.337   1.399  0.0349 -0.0766 -0.1414
24087W        W39896   8.572  15.733  13.560  0.1093  0.0867 -0.2680
24088W        W39897  12.795  16.463  10.982 -0.1397 -0.2969  0.2921
24089W        W39898   5.838   5.982  12.320  0.2960 -0.1720 -0.1092
24090W        W39899   7.639  14.132  11.233 -0.0472 -0.0884  0.1100
24091W        W39900   8.863  12.609  13.606  0.2601  0.0538 -0.1456
24092W        W39901   1.428   1.831   0.923  0.3080 -0.2685  0.4361
24093W        W39902  16.324  10.505   4.284  0.1430 -0.1293  0.1736
24094W        W39903   7.605   5.740  11.559 -0.2045 -0.0391 -0.0060
24095W        W39904  14.754  14.650  11.410 -0.1307  0.1265  0.0241
24096W        W39905   0.878  17.215  12.691  0.3239  0.0661 -0.1681
24097W        W39906   0.759   7.222   0.766 -0.1398  0.0245 -0.2711
24098W        W39907   1.629   4.097  11.590  0.2396  0.0829 -0.1273
24099W        W39908  11.315   9.817  14.717 -0.0325  0.1749  0.1088
24100W        W39909   6.530   9.449   1.656  0.1297  0.0460  0.0708
24101W        W39910   8.409  17.340   3.581  0.0457 -0.1500  0.1235
24102W        W39911  10.945   0.411   5.313  0.0493  0.1533 -0.1352
24103W        W39912   1.460  10.759  13.138  0.3054 -0.2795 -0.0899
24104W        W39913   6.607   9.799  12.286 -0.1627  0.2167  0.2802
24105W        W39914  12.783  13.959  14.615  0.0998 -0.1906 -0.0091
24106W        W39915   2.117   1.510   3.634 -0.1122 -0.1078  0.1842
24107W        W39916  17.906  16.195  13.324 -0.1772 -0.3222 -0.0287
24108W        W39917   0.568   3.266  11.206  0.1370  0.2201  0.0098
24109W        W39918   2.130  18.288   1.858  0.1103  0.0542  0.0924
24110W        W39919   5.922   9.410  10.601 -0.0652  0.0812  0.0947
24111W        W39920  13.893  13.582  11.796  0.1599 -0.2626 -0.2292
24112W        W39921  17.625   4.449  14.540 -0.1866  0.1040 -0.0210
24113W        W39922  13.763  13.898  13.143 -0.0447 -0.1105 -0.3373
24114W        W39923   6.936  11.528   1.092 -0.0710  0.0138 -0.0734
24115W        W39924   0.944   1.584   3.697  0.1904 -0.0515  0.0749
24116W        W39925   1.735  11.380   4.213 -0.1265  0.2767 -0.0495
24117W        W39926   8.269  13.315   0.105  0.0191  0.0134 -0.0522
24118W        W39927   1.374  11.439   4.520 -0.0491  0.2387 -0.0671
24119W        W39928   5.397   3.370  13.811 -0.0575  0.0300 -0.0858
24120W        W39929  11.859  16.849   5.267  0.4313  0.2185  0.1811
24121W        W39930   2.446  15.650  13.664  0.0957 -0.0887  0.3301
24122W        W39931  15.938   4.715  14.247 -0.1605 -0.0212 -0.2438
24123W        W39932   4.787   2.128   4.713 -0.1939 -0.0923 -0.0273
24124W        W39933   2.534  10.325   4.626 -0.2079 -0.1383 -0.0640
24125W        W39934   4.271  11.873  10.558  0.1959  0.1883  0.1032
24126W        W39935  12.147  10.128   2.021  0.1333 -0.1609 -0.1590
24127W        W39936   8.146  18.605  12.312 -0.3278  0.0030  0.0484
24128W        W39937  18.990  10.991   0.956  0.0580  0.3094 -0.1018
24129W        W39938  12.925   8.305  10.255  0.0053  0.5728  0.1525
24130W        W39939  17.579   8.111  11.784 -0.0477 -0.2287 -0.2826
24131W        W39940   5.674  15.832   2.102  0.1966  0.3051  0.2129
24132W        W39941   7.906  18.106   3.819  0.1135 -0.2631  0.0756
24133W        W39942  14.574   3.281   2.929 -0.0640  0.0509 -0.1540
24134W        W39943  17.785   6.598  14.465  0.2723 -0.0637 -0.1947
24135W        W39944   3.548   8.464  15.147 -0.0404 -0.0636 -0.2212
24136W        W39945  15.924  11.709   0.267  0.0700  0.0935  0.1106
24137W        W39946  17.049   2.567  12.751  0.0038  0.1140  0.2638
24138W        W39947   3.304   8.972   2.179  0.3330 -0.0961 -0.0549
24139W        W39948  10.003  18.502  14.297  0.0258 -0.0184 -0.1263
24140W        W39949  11.090  18.284   3.734 -0.0996 -0.3392 -0.0892
24141W        W39950  10.272  15.681  13.408 -0.0222 -0.0656 -0.2159
24142W        W39951  13.223  12.266  12.671  0.4078  0.1059  0.2640
24143W        W39952   0.530  10.362   4.489  0.0746 -0.2507  0.2389
24144W        W39953   0.301   3.368  12.678 -0.0313  0.0925 -0.5724
24145W        W39954  13.365  12.362  11.635  0.1018 -0.2753 -0.1973
24146W        W39955   9.882  14.248  12.119 -0.0364  0.2488 -0.0521
24147W        W39956  17.697   2.016   4.104 -0.1705 -0.3903  0.1384
24148W        W39957   7.454  10.103   2.396 -0.2005 -0.1145 -0.1069
24149W        W39958  13.809   2.616   1.527  0.0657 -0.1433  0.0617
24150W        W39959   0.846  11.769   3.840  0.0804  0.5614  0.0852
24151W        W39960  16.601   4.612  11.737  0.0135  0.1433  0.0804
24152W        W39961   8.053  16.249  12.770 -0.3170  0.0917  0.2307
24153W        W39962   9.319   8.540   4.188  0.1870 -0.0567  0.0136
24154W        W39963   3.182   4.569  10.823 -0.3533  0.0641 -0.1023
24155W        W39964  12.007  13.939   1.820  0.0470 -0.1688 -0.2051
24156W        W39965   6.187   5.585  14.979  0.0019  0.2123  0.3385
24157W        W39966  14.129   3.686   3.695 -0.1116 -0.1560  0.1638
24158W        W39967  14.870  13.181   2.926 -0.0947  0.3113  0.0875
24159W        W39968   1.739  12.754   4.550  0.1870  0.1558 -0.0303
24160W        W39969  12.250   1.944   0.340  0.2185 -0.0236  0.5731
24161W        W39970   6.758  17.870   4.479  0.0357 -0.0679 -0.2121
24162W        W39971  10.572   6.377  10.127  0.1044 -0.1489  0.1412
24163W        W39972   1.982  14.610  12.403  0.3081 -0.0110  0.3263
24164W        W39973  18.941  18.782   0.115 -0.1750 -0.3798 -0.3004
24165W        W39974   5.545   4.158   1.534 -0.2101 -0.0555 -0.1132
24166W        W39975   6.344  17.732  10.084 -0.1954 -0.0316 -0.2261
24167W        W39976   6.781  12.909   0.214  0.2122  0.0518 -0.2326
24168W        W39977  12.198   3.955  12.758  0.2514 -0.1943  0.0703
24169W        W39978  10.396  13.810  11.340 -0.1835 -0.2023 -0.0785
24170W        W39979   8.999   0.902  11.103  0.0949 -0.2406  0.1263
24171W        W39980  16.310  19.034  10.815 -0.0075  0.3639 -0.4994
24172W        W39981  18.671  11.014  11.762 -0.1439 -0.0219  0.4716
24173W        W39982   3.093   4.845   1.937  0.1025 -0.4107 -0.0919
24174W        W39983  15.926   1.832   0.383  0.3297  0.1107 -0.0545
24175W        W39984   7.043   5.091   1.987 -0.2833  0.2979 -0.1352
24176W        W39985   0.876   3.636   2.236 -0.2268  0.1998  0.1225
24177W        W39986  16.181   7.732  14.787  0.2197  0.1039 -0.2820
24178W        W39987  13.073   4.953  12.516  0.0139 -0.1518 -0.0727
24179W        W39988   6.341   5.645   4.623  0.0524  0.1551  0.0991
24180W        W39989   3.979   0.382   3.666 -0.3097 -0.1550 -0.0228
24181W        W39990  14.627   7.892   1.452 -0.0887 -0.3551 -0.0874
24182W        W39991   4.598  13.766   9.446 -0.0331  0.0826 -0.3601
24183W        W39992   1.913  17.369  13.750 -0.3021 -0.3258  0.1055
24184W        W39993  12.391   5.978   2.934 -0.0045 -0.1854 -0.1257
24185W        W39994  10.279  17.525  11.871 -0.1019  0.0143 -0.1513
24186W        W39995   8.371   4.501   3.974  0.0280  0.0499  0.0177
24187W        W39996   2.391  11.325  14.227 -0.1818 -0.2201  0.2587
24188W        W39997  14.385  16.231  15.197  0.0313 -0.5820  0.0729
24189W        W39998  11.537  14.530   2.063  0.1016 -0.1178 -0.0001
24190W        W39999   0.567  12.482  11.310 -0.0896  0.1296  0.3149
24191W        W40000   1.068  17.232   1.385  0.1661  0.0467 -0.3130
24192W        W40001   5.200   3.376   1.883  0.2182  0.0654 -0.0706
24193W        W40002   2.285   6.444   1.791  0.0523 -0.2753  0.0493
24194W        W40003   6.886   0.901  13.378 -0.0026 -0.0074  0.0094
24195W        W40004  12.505  10.831   3.326  0.1754 -0.2323 -0.1657
24196W        W40005  11.737  15.548  14.225  0.0087 -0.0449 -0.3751
24197W        W40006  13.664  10.853  14.864 -0.1753 -0.0440 -0.1947
24198W        W40007  11.936   3.902   1.719 -0.2279 -0.0681 -0.0524
24199W        W40008  15.664  18.799  14.521  0.1314  0.2426 -0.0135
24200W        W40009   5.410   9.578   4.491 -0.0953 -0.1911 -0.0776
24201W        W40010  15.472  13.062  13.355  0.1160  0.1597  0.2216
24202W        W40011   6.622  17.463   4.886 -0.2535 -0.0373  0.4349
24203W        W40012  13.485   9.440   3.052  0.3320 -0.0345 -0.1516
24204W        W40013   4.777   4.516   1.906 -0.3088 -0.0812 -0.3348
24205W        W40014   3.683   1.675  13.038 -0.2097 -0.1035 -0.0781
24206W        W40015  16.844  17.359   4.720  0.0163  0.3041  0.2506
24207W        W40016  10.554  10.543   1.522  0.0046 -0.2532  0.0243
24208W        W40017   5.998   5.063  11.440 -0.0531  0.2226 -0.1675
24209W        W40018  14.013   2.249   5.784  0.2444  0.1996 -0.3032
24210W        W40019  19.097   4.204   1.437 -0.1102 -0.1651  0.1466
24211W        W40020  13.328  17.599   2.321 -0.0646 -0.2047 -0.2369
24212W        W40021   9.979   4.061   4.475 -0.0607  0.3426  0.2563
24213W        W40022  15.979  18.707  15.027  0.1092  0.2236 -0.0264
24214W        W40023  12.432  15.025  13.156 -0.1582 -0.0203 -0.1880
24215W        W40024   9.100   4.001   0.231  0.2331  0.3307 -0.1313
24216W        W40025  10.864   9.231  14.324  0.2778 -0.1337  0.0943
24217W        W40026   3.968   5.976  12.060  0.0295 -0.3396 -0.0776
24218W        W40027   5.920  14.267  14.224 -0.1219  0.0058  0.1078
24219W        W40028   0.041  14.988  11.224 -0.3267  0.1789  0.0553
24220W        W40029  18.667   2.399   2.911  0.1114  0.0965 -0.0530
24221W        W40030  13.440  15.303  14.936 -0.0947 -0.2885  0.0916
24222W        W40031  18.877  12.549  12.894 -0.3441  0.2837  0.1504
24223W        W40032  14.365   1.382   4.948 -0.2297 -0.1255 -0.1820
24224W        W40033  17.417   6.024   1.458 -0.1800  0.1506 -0.0795
24225W        W40034  13.235   4.532  12.818 -0.1027  0.3232 -0.0809
24226W        W40035   9.187   1.491  11.309  0.0592 -0.0400 -0.0911
24227W        W40036  15.959  12.211   1.363 -0.0636  0.3251 -0.2529
24228W        W40037   1.214   0.153  10.333  0.0493 -0.0670  0.0875
24229W        W40038  13.901   6.527  10.641 -0.2438 -0.2446 -0.0553
24230W        W40039   3.421  10.079   0.553  0.2297 -0.3851 -0.0738
24231W        W40040   5.682   4.871  10.250  0.0324 -0.2109  0.1133
24232W        W40041   8.988  18.000   5.238 -0.3239  0.0524  0.0765
24233W        W40042  18.191   3.168   0.832  0.2583 -0.2331 -0.0005
24234W        W40043  10.079   6.444   3.118 -0.0064 -0.0057 -0.2162
24235W        W40044  10.191   7.007   5.096 -0.0088 -0.2756 -0.0908
24236W        W40045   6.526  18.118  13.970 -0.0216  0.2775 -0.0169
24237W        W40046  18.437   4.306   2.183  0.0348  0.0715 -0.2677
24238W        W40047  11.679  15.035  12.543 -0.0666  0.0316  0.3667
24239W        W40048   0.646  14.592   2.633 -0.2398  0.0074 -0.2409
24240W        W40049  11.578   6.010   0.691  0.4010  0.2297  0.0878
24241W        W40050  16.648  13.661  12.239  0.3962  0.1215  0.1343
24242W        W40051   2.721   1.216  13.222  0.3144 -0.2759  0.1708
24243W        W40052   6.491  11.218  10.870 -0.2015 -0.0058  0.3500
24244W        W40053  18.581   4.898  11.681 -0.2602  0.0334  0.0038
24245W        W40054  15.584  14.899   4.229 -0.0637  0.1147 -0.3324
24246W        W40055   7.340   0.506  11.244 -0.2036 -0.0612 -0.2352
24247W        W40056   2.963   4.654  13.245 -0.1956  0.1797 -0.0227
24248W        W40057  16.640  15.115  14.680 -0.0190  0.3096 -0.1731
24249W        W40058   3.386   2.287  12.344 -0.2455  0.2624 -0.1862
24250W        W40059  18.036   0.622   3.521  0.2161 -0.1331  0.0614
24251W        W40060   1.361   9.258   0.545  0.2440 -0.0297 -0.0046
24252W        W40061  14.347   0.548   3.931  0.2343  0.2514 -0.0048
24253W        W40062   2.245  15.589  14.137  0.1408  0.0677 -0.0323
24254W        W40063   3.037  18.943  13.835 -0.0884  0.1785 -0.0393
24255W        W40064  16.049   6.998  13.652  0.0915  0.3444 -0.1390
24256W        W40065  17.828   7.357   4.008 -0.0541 -0.0593 -0.2524
24257W        W40066  17.389   9.861  12.926 -0.1166 -0.4301  0.1748
24258W        W40067   9.701   2.153  11.687 -0.1088  0.0986 -0.1999
24259W        W40068  14.092   5.168  12.896 -0.2082 -0.2484 -0.0984
24260W        W40069  15.423   4.001  13.927 -0.4378  0.0518 -0.3156
24261W        W40070  13.678  15.350  13.845 -0.2057  0.2263  0.1223
24262W        W40071   1.710   2.258  10.821  0.2898 -0.1235  0.0170
24263W        W40072  12.912   9.229   3.190 -0.1395  0.3463  0.0353
24264W        W40073  17.545   4.224   1.552  0.1596 -0.2745 -0.0852
24265W        W40074   3.069   3.022  11.582  0.1964 -0.2774  0.4019
24266W        W40075  10.665   7.521   3.571 -0.0242 -0.3629  0.2078
24267W        W40076   4.122  10.217   2.909  0.3604 -0.0496  0.3925
24268W        W40077  16.900  17.492  12.850  0.2480 -0.1459 -0.2779
24269W        W40078  13.675  18.561   4.074 -0.2236  0.2668  0.1092
24270W        W40079   5.222  10.947  12.201  0.1472  0.3256  0.2452
24271W        W40080  18.484   3.436   2.254  0.0723  0.0253  0.2525
24272W        W40081  18.321  10.689  12.858  0.2087  0.1533  0.0269
24273W        W40082   5.594  14.825   0.654  0.0926  0.0429 -0.2037
24274W        W40083   5.610   8.356   5.046  0.0951  0.3613  0.0785
24275W        W40084  11.175  17.393  12.907 -0.0569  0.2846  0.0879
24276W        W40085   5.866  13.385  13.174  0.2949 -0.1830 -0.3690
24277W        W40086   1.550  10.172  11.264 -0.4500 -0.0645 -0.2308
24278W        W40087  10.427   0.797  11.380 -0.0387  0.0743  0.3841
24279W        W40088  11.875  18.669  10.959 -0.0785 -0.3268  0.0290
24280W        W40089   6.746  11.638  14.956  0.0288  0.1181  0.0653
24281W        W40090   7.839  10.888  10.690 -0.0608 -0.3104  0.2826
24282W        W40091   6.543   7.996   2.278 -0.2065  0.0141  0.2112
24283W        W40092  17.319  14.023   4.334  0.0933  0.3079  0.1098
24284W        W40093   0.430  11.661  10.180 -0.2001  0.1170  0.1570
24285W        W40094  16.308   2.410  14.425 -0.0322  0.2999 -0.0441
24286W        W40095  13.389  10.038   2.750 -0.3120 -0.0726  0.1268
24287W        W40096   7.700   8.199  12.098 -0.1419 -0.0349 -0.0177
24288W        W40097   8.609   8.020  12.010 -0.1253  0.0419  0.3538
24289W        W40098  15.860  12.192   0.012 -0.0116  0.2166  0.0289
24290W        W40099  18.808   8.151  11.939 -0.0567 -0.0139 -0.0757
24291W        W40100  10.380  13.177   2.170  0.2007 -0.0712 -0.0249
24292W        W40101   0.628   8.852   4.215  0.0813  0.0840  0.1944
24293W        W40102  10.353  11.688   2.374  0.0987  0.0288 -0.1099
24294W        W40103   7.301   5.475   2.330 -0.1790  0.1058 -0.0033
24295W        W40104  17.444   2.235   5.930  0.0520  0.0834 -0.2843
24296W        W40105   2.663  16.709   1.196 -0.1651  0.2143 -0.1094
24297W        W40106  18.802  18.202  11.617  0.2333 -0.0782 -0.3062
24298W        W40107  10.911   7.382   4.212  0.2358 -0.2359  0.1221
24299W        W40108  14.212  16.452  13.161 -0.0958 -0.0088 -0.0601
24300W        W40109   2.073  15.707   9.107  0.4326 -0.2296 -0.1997
24301W        W40110  18.716   8.290  14.787  0.2409 -0.2071 -0.4247
24302W        W40111  18.184  15.279  12.870  0.1424 -0.0472 -0.2256
24303W        W40112  16.582  13.933   0.358 -0.0670  0.3087  0.0548
24304W        W40113  14.896  12.672  14.761  0.2115 -0.1309 -0.0940
24305W        W40114   5.646  15.657   1.238 -0.0930  0.2250 -0.2981
24306W        W40115  11.800   6.380  12.751 -0.2064  0.1052  0.3038
24307W        W40116  19.088   9.377  14.009  0.1975 -0.1508  0.2563
24308W        W40117  12.796  11.188   0.785  0.0955  0.0149 -0.0505
24309W        W40118   5.205   4.736   3.163 -0.2781  0.0758  0.1018
24310W        W40119  17.885   3.450  11.897  0.0292 -0.1515  0.0563
24311W        W40120  15.380   0.850  11.426 -0.0263 -0.0921 -0.0793
24312W        W40121  12.425   8.023  13.906  0.2146  0.3802 -0.5560
24313W        W40122  13.192  16.595  12.418  0.0556  0.2730  0.0381
24314W        W40123   9.654  13.875   1.037 -0.2596 -0.1351  0.0397
24315W        W40124  18.178  10.372  10.656  0.1609  0.3037  0.2820
24316W        W40125  15.230   3.339   1.260  0.0435 -0.1496 -0.0806
24317W        W40126   4.874  14.635   3.939 -0.1918 -0.0609 -0.0564
24318W        W40127   3.277  11.624  14.233 -0.1485  0.1544  0.3005
24319W        W40128   8.118   3.044   2.692 -0.0396  0.1730 -0.1512
24320W        W40129   6.513   5.936   4.277  0.0813  0.1018 -0.0118
24321W        W40130   6.510   5.118  11.251 -0.0821 -0.1342 -0.1493
24322W        W40131  16.191  15.795  14.368 -0.2100  0.2753 -0.2368
24323W        W40132  10.719  18.442  14.223 -0.2300  0.1074  0.2431
24324W        W40133   6.188   4.720  12.351  0.0323 -0.1047  0.2163
24325W        W40134   8.462   5.856   9.411  0.1229  0.0154 -0.0261
24326W        W40135  12.305   8.952  12.916 -0.1545 -0.0454  0.1737
24327W        W40136  17.699  14.875   0.122  0.1787  0.2323 -0.1193
24328W        W40137  14.421   4.831  13.674  0.4269  0.0392  0.3090
24329W        W40138  13.175  10.966  14.698  0.0423 -0.3065  0.0440
24330W        W40139  11.381  17.719   2.395  0.1766  0.1235  0.0812
24331W        W40140   3.501   5.211   3.725  0.0845  0.8082 -0.2748
24332W        W40141  13.389   7.046   0.503 -0.1691  0.1726  0.1894
24333W        W40142  18.370   7.771   1.839  0.0340 -0.1509 -0.0146
24334W        W40143   7.837   1.503  12.191  0.0387 -0.1177 -0.5476
24335W        W40144  10.263   0.852   3.308 -0.1586 -0.1918 -0.4587
24336W        W40145  19.042  13.903   2.706  0.2118 -0.0545 -0.0123
24337W        W40146  10.031   4.274   3.606  0.3305 -0.1447 -0.2346
24338W        W40147  14.300  15.112  14.503  0.2774  0.0913  0.0050
24339W        W40148   2.139   3.948   2.724 -0.2237  0.1941  0.2868
24340W        W40149   4.356  13.867   5.563  0.0720  0.1950 -0.2610
24341W        W40150  19.149   2.123   5.411  0.2164 -0.1105 -0.1425
24342W        W40151  16.274  11.658  12.467  0.1911 -0.4862 -0.1795
24343W        W40152   9.046  18.052  13.192  0.1405  0.0979 -0.0638
24344W        W40153   6.905  18.670  14.394 -0.1789 -0.2504  0.3118
24345W        W40154   6.694   5.708  13.241  0.0125  0.1429 -0.1186
24346W        W40155  17.616  13.125   3.962  0.0445  0.1045 -0.2254
24347W        W40156  14.925  13.325  11.887 -0.1399 -0.0890  0.7170
24348W        W40157   9.423  12.778   3.237 -0.2387  0.0292 -0.0795
24349W        W40158  12.852   8.079   4.047  0.0669  0.0559 -0.0989
24350W        W40159   2.500  17.091   2.554  0.1762  0.1200  0.0015
24351W        W40160   2.309   4.066   3.820 -0.4525 -0.1674  0.1612
24352W        W40161   6.034  18.167  12.235  0.0682 -0.0822 -0.0374
24353W        W40162  15.108   6.016   4.243  0.3794 -0.0889 -0.0674
24354W        W40163  18.673  14.653   0.143  0.2450  0.2365  0.0291
24355W        W40164   2.902   5.159   4.461 -0.1870  0.0433  0.2249
24356W        W40165   5.549  16.777   1.513  0.2634  0.2103  0.1044
24357W        W40166  15.149  13.074   1.416  0.0002 -0.0756 -0.3842
24358W        W40167  11.775  17.756  14.303 -0.2655  0.1071  0.0417
24359W        W40168  17.677  18.231   4.844  0.1142 -0.0274  0.1801
24360W        W40169   0.112   7.159  10.487  0.1454  0.1090 -0.0611
24361W        W40170  15.006   8.948  12.171  0.0548 -0.1322  0.0894
24362W        W40171  10.515   5.653  12.911  0.0555  0.3393 -0.0719
24363W        W40172   8.268   1.595   0.678  0.1779 -0.0336  0.1432
24364W        W40173   5.677   1.560   1.300  0.1159  0.0353 -0.3471
24365W        W40174  14.229  15.562   2.549 -0.0810  0.1521 -0.0710
24366W        W40175   9.272   7.244   3.301  0.0398 -0.2253 -0.1067
24367W        W40176  18.356  15.549  15.090  0.1842  0.0989 -0.2471
24368W        W40177   0.740  12.730  13.727 -0.2116  0.1864 -0.0904
24369W        W40178   5.545  14.701   1.282 -0.0717  0.0240 -0.2405
24370W        W40179   5.650   0.691  11.581 -0.0890  0.2544  0.0304
24371W        W40180   1.926  10.239  11.718 -0.3786 -0.0038  0.1351
24372W        W40181   0.731   1.386   1.554 -0.1670 -0.2397  0.0312
24373W        W40182   6.452  15.468   0.122  0.0563  0.0063 -0.2422
24374W        W40183   2.109  15.741   3.825  0.0460 -0.1005  0.3758
24375W        W40184  12.792   4.500  12.530  0.2641 -0.1355  0.0237
24376W        W40185  17.848   5.520   1.331 -0.0673  0.0110  0.4826
24377W        W40186   3.031  16.619   3.004 -0.2358 -0.1737 -0.1337
24378W        W40187  13.216   2.747  11.072  0.1924 -0.1236  0.2132
24379W        W40188   2.714   7.140   0.677  0.2388 -0.2424 -0.3430
24380W        W40189  17.742   1.145   3.120 -0.4357 -0.0638 -0.1290
24381W        W40190  16.641   5.377   2.332  0.1020 -0.2619 -0.1403
24382W        W40191   0.919  14.965  13.383  0.2250  0.0243 -0.2621
24383W        W40192  12.744  14.725   1.942  0.0318  0.0357 -0.0545
24384W        W40193  16.816   8.749   2.996  0.1188 -0.0359  0.0039
24385W        W40194  15.139   8.469   2.594 -0.0730  0.2380 -0.1524
24386W        W40195   6.120  10.913   4.407 -0.2314 -0.1197  0.2601
24387W        W40196  10.045  17.278   4.351  0.1637 -0.0046 -0.1414
24388W        W40197   1.472   5.288   1.071 -0.1165  0.1318  0.1904
24389W        W40198   8.063   1.080  11.506  0.1768 -0.1752  0.0521
24390W        W40199  14.620  18.032  13.320  0.1236 -0.0282 -0.0812
24391W        W40200  14.212  17.883   2.907 -0.0360 -0.2080  0.3532
24392W        W40201   0.161  12.081   1.521  0.1123 -0.3006  0.1038
24393W        W40202   3.308  12.798   1.761 -0.0830  0.0798  0.0953
24394W        W40203   4.968  10.768   4.694  0.2827  0.0065 -0.1744
24395W        W40204   3.262  15.544   3.958  0.0322 -0.0194 -0.0563
24396W        W40205   3.497   7.024   1.112 -0.1159 -0.1311  0.1054
24397W        W40206  10.841  12.762  14.825 -0.1007  0.1711 -0.5510
24398W        W40207  11.173  16.473   3.172  0.2476 -0.1239 -0.3238
24399W        W40208   2.277   8.997   3.117 -0.0326 -0.2012  0.2762
24400W        W40209  13.356   4.518   0.023  0.0040 -0.4006  0.0172
24401W        W40210   5.785  10.395  14.877  0.0585 -0.1309  0.2119
24402W        W40211  18.768  12.034  14.085 -0.0533  0.0714 -0.0493
24403W        W40212  14.234  11.961   3.036 -0.1915 -0.1557 -0.1657
24404W        W40213   2.713  12.558   4.552  0.1400  0.1147 -0.1491
24405W        W40214  11.930  10.715   2.716  0.2035 -0.2255 -0.0457
24406W        W40215   7.230   5.759   1.345 -0.5478 -0.1020  0.3104
24407W        W40216   7.282  17.797   4.397  0.3788  0.2204 -0.3168
24408W        W40217  13.182  18.159   1.543  0.1667  0.1962  0.0195
24409W        W40218   3.916   6.560   2.495  0.1149  0.2615  0.1700
24410W        W40219   5.013   6.896  10.249 -0.3462  0.0351 -0.1007
24411W        W40220   3.311   5.637  14.546 -0.1714 -0.0640  0.1384
24412W        W40221  18.505  13.969  11.049 -0.2704  0.0605  0.0281
24413W        W40222  15.746   4.219   1.688  0.2779  0.2404  0.0883
24414W        W40223  11.455   5.459  14.814 -0.1760  0.1165 -0.1529
24415W        W40224   6.612   9.032   0.849  0.0815  0.1686  0.2720
24416W        W40225   6.478   6.434  14.583 -0.1928 -0.2241  0.1144
24417W        W40226   9.505  15.435   4.282  0.0849  0.0456  0.3460
24418W        W40227   4.658  12.498   3.824  0.1311 -0.0042 -0.3660
24419W        W40228  11.632   2.438  12.291  0.0352  0.1910  0.4789
24420W        W40229   9.536   2.143  12.220 -0.2345  0.2781  0.2207
24421W        W40230   6.671  14.444  10.594 -0.1051 -0.2559  0.0993
24422W        W40231   7.744   5.820  12.440 -0.1274  0.2599 -0.1709
24423W        W40232  15.616   3.040   1.163  0.1968 -0.3233 -0.1772
24424W        W40233   9.602  17.393   5.384 -0.0100  0.0555 -0.0908
24425W        W40234   6.515   5.189   1.900  0.2389  0.0176  0.2545
24426W        W40235   0.534   5.424  10.094  0.2445 -0.0302  0.1889
24427W        W40236   2.123  14.903  15.102  0.2156  0.0583 -0.1316
24428W        W40237  16.022  10.900   0.337 -0.1988  0.0632 -0.2119
24429W        W40238  11.456   2.153   1.298 -0.2623 -0.0141  0.2417
24430W        W40239  15.221   9.995  13.964  0.0827  0.0050  0.1792
24431W        W40240   8.682   2.153   1.442 -0.1016  0.0470  0.1490
24432W        W40241  15.967   4.615   2.305  0.1364 -0.2400 -0.0977
24433W        W40242   4.731  14.024  11.721 -0.2006  0.2872 -0.0831
24434W        W40243   5.872   0.398   2.759  0.3593 -0.0083  0.2890
24435W        W40244  15.845  11.040   5.150 -0.1919  0.3348  0.2247
24436W        W40245  16.000   9.346  12.876 -0.0043 -0.1331 -0.0388
24437W        W40246  11.519   2.629   3.693  0.0033  0.2901 -0.1394
24438W        W40247   8.802   1.833   0.640  0.1108  0.0767 -0.1306
24439W        W40248  12.954  18.383   4.372 -0.4138 -0.0252 -0.1238
24440W        W40249  16.330   9.797   1.153  0.1172  0.1547 -0.0303
24441W        W40250   6.977   8.840   5.182 -0.1010 -0.1732 -0.0225
24442W        W40251  10.349  15.152  11.212 -0.1451 -0.1110 -0.0214
24443W        W40252   8.757  16.891   0.872  0.0394 -0.0082  0.1040
24444W        W40253  13.314   4.556  11.748  0.1384  0.2550  0.0632
24445W        W40254  14.543  16.061   4.743  0.3126  0.2792 -0.0839
24446W        W40255   6.547   1.364  12.193 -0.0160 -0.2594 -0.2452
24447W        W40256  17.673  16.858  10.714 -0.0374 -0.3724 -0.1815
24448W        W40257  18.053   5.630  13.164 -0.1083  0.0828 -0.0111
24449W        W40258   4.188  15.691   0.376  0.1617 -0.0083 -0.5408
24450W        W40259  17.616  17.339  10.975  0.1033  0.1732 -0.1258
24451W        W40260  11.160  12.304   5.518  0.1310 -0.2111  0.2340
24452W        W40261   7.652  15.751  14.672  0.0477 -0.3008  0.0499
24453W        W40262  11.341   5.358   1.766  0.0808  0.2178  0.0237
24454W        W40263   9.248   8.067  13.202 -0.4109  0.0730 -0.3022
24455W        W40264  17.329   7.285   2.387 -0.1119 -0.2207 -0.3526
24456W        W40265   3.284  15.455  10.915 -0.0387 -0.2011  0.4040
24457W        W40266   6.127  14.731  14.187 -0.0932 -0.0956 -0.4439
24458W        W40267  18.839   7.090  11.901  0.0249  0.1441  0.0274
24459W        W40268  17.360   3.781  13.565  0.0524 -0.1676  0.2082
24460W        W40269   0.305  12.860   0.937 -0.1155 -0.3641 -0.0430
24461W        W40270   3.972   3.459  13.310 -0.3553 -0.3561 -0.0694
24462W        W40271  13.918  14.207   5.769  0.1999 -0.0110 -0.4795
24463W        W40272   6.436   2.837  12.722  0.1048 -0.2210  0.3097
24464W        W40273   7.438  17.841  12.963  0.0088 -0.2515  0.1474
24465W        W40274  12.886   5.721   3.665  0.1861 -0.0422 -0.3774
24466W        W40275   6.544   7.512   2.474 -0.1491 -0.4890 -0.4066
24467W        W40276  11.615  18.547   0.217 -0.0937 -0.0915  0.2099
24468W        W40277  16.167   7.493   1.404 -0.2269  0.2075  0.3134
24469W        W40278   9.399  10.661  13.422 -0.0823 -0.1344 -0.0484
24470W        W40279   6.500   6.566  15.147  0.0561 -0.2002 -0.1812
24471W        W40280   5.186  17.964  14.093  0.3860 -0.0575 -0.1957
24472W        W40281   8.062   4.860   2.821  0.2339  0.1794  0.0431
24473W        W40282  12.295  14.565  11.693  0.0315 -0.0675 -0.1405
24474W        W40283   6.852   4.714   3.771 -0.1364  0.0765  0.8129
24475W        W40284  15.387   9.930   3.459  0.0569  0.2519  0.2233
24476W        W40285  15.418   5.324   2.588  0.3333  0.1482  0.1319
24477W        W40286   1.659   5.292   0.578  0.3133  0.0641  0.0165
24478W        W40287  14.426  18.978  11.821  0.1179 -0.0939  0.0054
24479W        W40288   1.297  13.560   1.525  0.1238  0.2125  0.1903
24480W        W40289  18.590   8.205   2.671 -0.2578 -0.1364 -0.3013
24481W        W40290  17.158  14.348   1.036 -0.3129  0.1230  0.1807
24482W        W40291   1.068   0.995  12.820  0.3309  0.1471 -0.1841
24483W        W40292   6.501  18.971   2.903 -0.2942  0.2769 -0.2167
24484W        W40293  11.419   8.863  11.348  0.1014 -0.0510 -0.3418
24485W        W40294  11.968  15.198   3.242  0.0519  0.2423  0.2740
24486W        W40295   4.784  15.147  14.844  0.2005 -0.1256 -0.0661
24487W        W40296  10.798   6.896  11.330  0.2290  0.0889  0.0017
24488W        W40297   0.572   8.056   3.693  0.2062  0.1057 -0.1667
24489W        W40298   1.467   1.999   4.856  0.0026 -0.1952 -0.0826
24490W        W40299  16.918   1.425   4.053 -0.1372  0.1582 -0.1126
24491W        W40300  14.698   9.532   3.543  0.1041  0.0222 -0.1974
24492W        W40301  11.891   8.577  15.056 -0.0624 -0.0637 -0.0271
24493W        W40302   9.800   4.942  10.248 -0.1167  0.2311  0.0656
24494W        W40303   2.522  16.654   5.216  0.2319  0.1327  0.1197
24495W        W40304  17.555  14.757  14.158  0.2462  0.2135 -0.2046
24496W        W40305  18.889   9.895   2.495  0.1281  0.1315  0.1193
24497W        W40306  16.951   2.235   5.084  0.2162  0.2123  0.0115
24498W        W40307  13.630  12.320  13.506  0.0583  0.3531 -0.0357
24499W        W40308   1.135  18.626  15.155  0.2096  0.0707 -0.3252
24500W        W40309   4.223   3.720  10.523  0.2252  0.0625 -0.0970
24501W        W40310  10.743  13.922  12.194 -0.0953 -0.1227 -0.0126
24502W        W40311   7.912   3.335   2.354  0.2264  0.0985  0.0573
24503W        W40312   2.275   1.303   3.141  0.0067  0.0485  0.1217
24504W        W40313   2.625   9.718  10.573  0.1710 -0.1745  0.5277
24505W        W40314  11.871   9.060   1.338  0.1320 -0.0072  0.0006
24506W        W40315  11.911  12.376   5.552  0.2323  0.1351 -0.2048
24507W        W40316  17.437   9.723  11.092  0.2275 -0.1686 -0.1251
24508W        W40317   0.172   4.182  12.852  0.0953  0.2188  0.3119
24509W        W40318  12.982   0.351   2.060 -0.4020 -0.2598 -0.1472
24510W        W40319   7.437   6.572   4.378  0.1866 -0.0034  0.1767
24511W        W40320   0.282  12.291   1.035 -0.1625 -0.1484 -0.0743
24512W        W40321   7.927  17.249   4.904 -0.0440 -0.0367  0.1167
24513W        W40322  14.068   1.009  10.848 -0.0437 -0.1406 -0.0719
24514W        W40323   6.301  15.455   4.932  0.0907 -0.1027 -0.2751
24515W        W40324  12.930   3.088  14.092  0.3034  0.2513  0.2528
24516W        W40325   2.136   3.563   1.590 -0.0370 -0.0510 -0.1514
24517W        W40326   7.271  14.916  13.147  0.0911  0.0158 -0.3814
24518W        W40327  14.931   3.533  15.084  0.2141 -0.1034  0.0253
24519W        W40328   4.404   2.608   2.515 -0.3891 -0.1626  0.0563
24520W        W40329  16.356   7.207   3.792 -0.1661 -0.0669  0.5093
24521W        W40330   9.775  16.006   3.664  0.3494  0.3918 -0.2414
24522W        W40331  18.832   3.721  12.093 -0.3380  0.4186 -0.0455
24523W        W40332   8.764  15.082   0.468  0.1078  0.0856 -0.0956
24524W        W40333  16.266   2.694   4.643  0.1325  0.1073 -0.1930
24525W        W40334   7.042  12.570  12.934 -0.0509  0.1486  0.1679
24526W        W40335   1.514  15.448   1.336  0.0518  0.4418 -0.7034
24527W        W40336  12.780  15.190   2.140  0.0893 -0.2403  0.1414
24528W        W40337   5.897   3.213  14.057  0.1415  0.6971 -0.0154
24529W        W40338   9.069   8.242   2.366 -0.1441  0.0505  0.0207
24530W        W40339   9.508   7.376  10.405  0.1274 -0.0305  0.3894
24531W        W40340   7.641  13.245   4.785  0.2163  0.0636 -0.0704
24532W        W40341   2.063  17.593   3.244 -0.1775 -0.0888 -0.1619
24533W        W40342  13.293  11.690  14.134  0.0286  0.1086  0.2310
24534W        W40343   1.485  13.086  15.108 -0.1840  0.1443  0.2075
24535W        W40344   8.054   0.723  12.396 -0.0333 -0.3112  0.1560
24536W        W40345  17.992  18.064   2.305  0.0525  0.2315 -0.2606
24537W        W40346   9.367  18.767   1.791  0.0824 -0.0086  0.1680
24538W        W40347   2.176   2.558  13.250  0.1336  0.0130 -0.0762
24539W        W40348  16.781   5.174   4.730 -0.0382  0.1390  0.0665
24540W        W40349  11.806  18.062   4.300 -0.1944 -0.0951 -0.0092
24541W        W40350  13.507  10.429  14.512 -0.1190 -0.2650  0.1691
24542W        W40351  11.355  10.369  11.030 -0.2115  0.4430 -0.0611
24543W        W40352   3.923   3.421  10.791 -0.0023 -0.1572 -0.0557
24544W        W40353  15.989   5.829  13.027  0.1683  0.0146 -0.0178
24545W        W40354   7.161   1.321   1.121 -0.1413  0.2315 -0.1960
24546W        W40355   0.656  10.181   3.097  0.2210  0.1690  0.0032
24547W        W40356   4.802   0.011  13.514 -0.0747  0.1590 -0.1731
24548W        W40357  15.213   1.584  10.753  0.2567  0.2993  0.0056
24549W        W40358   4.084  15.686  12.097  0.0486 -0.1608  0.1350
24550W        W40359   6.048   4.452  11.742 -0.1616 -0.1736 -0.0510
24551W        W40360   5.447  16.192  12.488  0.3618  0.0608 -0.1647
24552W        W40361  12.059  11.385   1.385  0.0213  0.0539  0.0494
24553W        W40362   3.350  16.898  14.273  0.0401  0.0730  0.1251
24554W        W40363   3.169  18.624  11.178 -0.1197 -0.2213  0.0361
24555W        W40364   1.832   9.690  12.007 -0.2902  0.1744 -0.3985
24556W        W40365   4.913  11.974   4.983  0.0810 -0.4234  0.0450
24557W        W40366  16.742  17.085   2.560  0.0435  0.0335  0.0131
24558W        W40367   6.073   9.143   0.957  0.0242 -0.0493 -0.1556
24559W        W40368   1.974   3.875   2.105 -0.3209 -0.1624 -0.3129
24560W        W40369   1.705  10.337  13.309 -0.2319  0.1295  0.2021
24561W        W40370   5.317   2.797  14.704 -0.0111  0.0839 -0.0250
24562W        W40371  17.708  13.300   0.877 -0.0440  0.2087  0.0072
24563W        W40372  11.191  10.965  13.881 -0.0441 -0.0998 -0.2284
24564W        W40373  17.112   8.255  14.085  0.2467 -0.2788 -0.3865
24565W        W40374   6.615   5.392  13.616  0.0202  0.2751  0.0505
24566W        W40375   4.917   7.937  14.655  0.2459 -0.0409  0.1274
24567W        W40376  11.565   4.079   1.205  0.3318  0.0716 -0.1772
24568W        W40377  19.017  13.639  15.046  0.0063  0.0171 -0.2112
24569W        W40378   0.128  18.337  14.207  0.0503  0.1651  0.1174
24570W        W40379  12.940   2.198  10.179 -0.1224 -0.0516  0.1892
24571W        W40380  18.277   0.864   2.316 -0.0005 -0.0978 -0.0575
24572W        W40381   4.595  11.788   9.679  0.2850  0.2852 -0.3027
24573W        W40382   8.220   0.896   2.809 -0.0478 -0.0472  0.0663
24574W        W40383   3.173  12.872  11.860  0.2156 -0.1051  0.0328
24575W        W40384   7.569   3.146   2.660  0.1049  0.5385  0.3209
24576W        W40385  14.290  14.934  15.106 -0.0379  0.1783  0.1494
24577W        W40386  18.168  17.526  12.617  0.1521  0.1038  0.2605
24578W        W40387   7.269   5.891   2.493  0.0494 -0.1574  0.2427
24579W        W40388   5.004   6.387   1.328 -0.2754  0.3431  0.1636
24580W        W40389  18.326  13.355   4.669 -0.2551 -0.0479  0.2057
24581W        W40390  17.125   9.379   4.317  0.1650  0.3534  0.3843
24582W        W40391   9.011  19.007   2.775  0.1429 -0.1200  0.0632
24583W        W40392  14.870   7.910   1.933 -0.3360 -0.0315  0.1920
24584W        W40393  18.952   9.631  15.074  0.1882 -0.1081 -0.0008
24585W        W40394   8.723   8.847   0.359 -0.0273  0.1046 -0.0204
24586W        W40395   2.673   0.777  14.918 -0.0748  0.2466  0.4784
24587W        W40396   4.012   0.884   4.961  0.2904 -0.0233 -0.3679
24588W        W40397  11.836  17.646   2.473  0.0635  0.1433  0.1844
24589W        W40398  13.207  18.465   3.912  0.0950  0.1587 -0.0535
24590W        W40399   2.004   5.090   1.476 -0.2210  0.0314  0.0410
24591W        W40400   0.241   6.423  12.302 -0.0123 -0.0105  0.0204
24592W        W40401   8.399  11.829  11.453 -0.0809  0.1103  0.3583
24593W        W40402   5.636  13.229  14.799 -0.0838  0.1727 -0.2347
24594W        W40403   6.312   5.168  12.425 -0.0330 -0.0164 -0.0916
24595W        W40404   8.806  14.464  12.997  0.0209  0.2395  0.1051
24596W        W40405  10.642   2.360   4.524 -0.0089  0.0287  0.1300
24597W        W40406   7.160  13.181   5.226 -0.1995  0.3467  0.2355
24598W        W40407   8.124   3.739   1.106 -0.2131 -0.0650  0.1452
24599W        W40408   4.122   0.544  11.422 -0.1370  0.1828 -0.2394
24600W        W40409   4.335   4.167  13.129  0.0553  0.2903  0.0372
24601W        W40410  18.959   1.780  13.946 -0.0379 -0.0399  0.2359
24602W        W40411  12.632  11.626   4.850  0.1658 -0.0462 -0.2806
24603W        W40412   8.092   4.282   0.993  0.0180  0.0911 -0.4017
24604W        W40413   6.352  11.046   9.491  0.3234 -0.1149  0.0565
24605W        W40414  12.107   8.678  11.087  0.4115  0.3099  0.3548
24606W        W40415   0.269   7.594   3.538 -0.2114 -0.0429 -0.0763
24607W        W40416  17.358   0.898   3.329  0.2328  0.2263  0.0666
24608W        W40417   2.932  11.924  12.065 -0.3208  0.2685 -0.2054
24609W        W40418  13.451  14.851  11.809 -0.3578  0.3499  0.1919
24610W        W40419   7.865   6.693  13.410 -0.3507 -0.3571  0.0853
24611W        W40420   6.124   5.500  14.452 -0.3908  0.2813  0.1128
24612W        W40421   1.900   2.534   0.590 -0.1399  0.0126  0.2248
24613W        W40422   2.356   3.244  12.563  0.0777  0.0433 -0.2641
24614W        W40423   6.055   5.099  15.073  0.0419 -0.2085 -0.0785
24615W        W40424  17.697   4.120  13.096  0.1321 -0.0902  0.2925
24616W        W40425  11.542   7.411   5.025 -0.1878 -0.1676  0.2956
24617W        W40426   8.230  16.688  12.444 -0.3314 -0.1100 -0.1531
24618W        W40427   2.621   1.933  12.526 -0.2143  0.0691  0.3492
24619W        W40428  12.926  12.146   4.952 -0.0507  0.0634 -0.1733
24620W        W40429  11.221  18.306  13.876 -0.2178 -0.1373 -0.3598
24621W        W40430  15.020  11.526   2.770 -0.3662 -0.1154 -0.1679
24622W        W40431  13.148  16.643  11.315  0.0868  0.0906 -0.1947
24623W        W40432  16.538  11.874  12.093  0.4712 -0.0068 -0.2259
24624W        W40433  15.354   4.976  14.163  0.3435 -0.1794  0.2070
24625W        W40434  12.728   3.346  14.507 -0.0197  0.2042  0.1402
24626W        W40435  14.246   0.649  10.050 -0.0075 -0.2116 -0.1010
24627W        W40436  12.041  10.569  14.699  0.1106  0.3429 -0.2034
24628W        W40437  17.803   7.622  14.440 -0.3038  0.3157 -0.0443
24629W        W40438   1.107  14.651  11.780 -0.0538  0.1218 -0.5655
24630W        W40439   4.354  18.383  14.334 -0.2312 -0.0747  0.0473
24631W        W40440   5.362  14.183  12.461 -0.0308 -0.1300 -0.1462
24632W        W40441   4.830  15.745   3.706 -0.1484  0.1357 -0.1681
24633W        W40442  12.909   2.825   2.783  0.1595 -0.0073 -0.0355
24634W        W40443  18.195  18.283   5.200  0.0845  0.1481 -0.0620
24635W        W40444  12.300   2.624  13.768  0.2494  0.0355  0.5576
24636W        W40445  16.898  11.926   4.418 -0.0470 -0.1490  0.0848
24637W        W40446   7.667   3.584  13.979 -0.0783  0.1842  0.2658
24638W        W40447  11.083  12.508   3.745  0.0522 -0.1755  0.2457
24639W        W40448   1.792   7.860   1.107  0.0094  0.2430  0.0863
24640W        W40449  12.904   1.606   2.989 -0.3746 -0.2837  0.2120
24641W        W40450   7.558   9.030   4.095  0.1354  0.1909  0.3293
24642W        W40451   1.066   0.743   3.361  0.0057  0.4144  0.2876
24643W        W40452  13.808   8.089   9.692 -0.1799  0.2622  0.2198
24644W        W40453   0.207  12.208  11.513  0.1928  0.2490  0.2192
24645W        W40454  13.064  11.305   2.454  0.0462  0.1519  0.0904
24646W        W40455  18.053   8.199  10.460  0.4091  0.0194  0.2144
24647W        W40456  10.767  15.733   1.454  0.3032 -0.1129  0.0078
24648W        W40457  12.470   4.699   4.016 -0.0027 -0.1720 -0.0509
24649W        W40458  13.379   8.346   1.608  0.2191  0.0312  0.1236
24650W        W40459  13.281  14.618   2.685  0.0609 -0.0509 -0.0721
24651W        W40460  16.029  13.094  14.020 -0.2529  0.1527  0.0835
24652W        W40461   0.479   0.776  12.371  0.0428 -0.2268 -0.1519
24653W        W40462  18.599   9.863  12.443  0.1886 -0.1724  0.0302
24654W        W40463   5.382  17.731  10.240  0.0044 -0.0116 -0.0606
24655W        W40464  17.242   3.294   5.522  0.1664  0.0547 -0.1928
24656W        W40465   5.536   5.483   2.529  0.0868 -0.1440  0.4076
24657W        W40466  13.619   1.988   0.108  0.0829  0.0503  0.0879
24658W        W40467  17.429  16.152  13.687 -0.1969  0.1930  0.1023
24659W        W40468   1.066  12.271   4.521 -0.2440 -0.2146  0.2063
24660W        W40469   0.975  18.316  12.128  0.2036  0.0130  0.1283
24661W        W40470   5.347   4.259   4.640  0.2242 -0.0495  0.1257
24662W        W40471  15.073  14.839  10.598  0.3112 -0.1484 -0.3469
24663W        W40472  12.434  18.791  10.905  0.0903  0.0587 -0.2325
24664W        W40473  12.817  17.296   6.018  0.0530 -0.2916  0.1675
24665W        W40474  16.446  16.611   2.091 -0.1873  0.0016  0.2890
24666W        W40475   0.590  13.498  12.725  0.0838  0.1326 -0.1985
24667W        W40476  11.453   6.404   3.001 -0.3007 -0.1441  0.0518
24668W        W40477  18.459   9.354  11.613  0.0132  0.3773  0.1375
24669W        W40478  13.488  17.299  12.849  0.0422  0.1326 -0.3364
24670W        W40479   2.493   9.239   0.948 -0.0695  0.3543 -0.5172
24671W        W40480  10.448  16.647  14.933  0.1721 -0.1035  0.1524
24672W        W40481   5.689   8.918  12.683  0.0528  0.3163 -0.0552
24673W        W40482  16.603   2.539  10.955  0.2205  0.3788  0.0960
24674W        W40483  18.823  17.868  10.821 -0.0801  0.0504 -0.1082
24675W        W40484  11.445   1.122   5.532  0.0210 -0.0855  0.1258
24676W        W40485  11.988  11.332  14.570  0.0097 -0.0268 -0.0096
24677W        W40486   3.620   8.746   3.146 -0.0983 -0.2832  0.1717
24678W        W40487   1.265  17.896   4.759  0.1847 -0.0026 -0.0478
24679W        W40488   9.315  18.415  11.718  0.0910 -0.0503 -0.1035
24680W        W40489  14.407  16.134  12.294  0.1242 -0.0373 -0.2463
24681W        W40490  15.638  13.037   3.898 -0.2410 -0.2001  0.2398
24682W        W40491  17.536   0.483   0.130 -0.1850 -0.1267 -0.2768
24683W        W40492  10.816  17.940  13.971 -0.1371 -0.0290  0.2895
24684W        W40493   1.269  13.650  14.654 -0.1188  0.0647 -0.2057
24685W        W40494  12.723   4.331  14.417 -0.4307  0.0785 -0.1199
24686W        W40495  13.114  11.945  10.859  0.0248  0.1830  0.1684
24687W        W40496   1.876   3.668  15.051  0.1104 -0.0599  0.0380
24688W        W40497  13.699  17.918   5.252 -0.1248  0.2892  0.0956
24689W        W40498  17.221   1.330  11.836 -0.1336  0.0138  0.0874
24690W        W40499   1.828   7.976  13.099 -0.1776  0.1584 -0.1049
24691W        W40500   3.829   9.340  14.785  0.3362 -0.3429  0.1642
24692W        W40501  16.610   5.004   0.722  0.0188  0.2303 -0.3969
24693W        W40502  12.367  15.613  14.105 -0.0311  0.0429  0.0606
24694W        W40503  18.223   0.394  13.756 -0.4268  0.0234  0.2016
24695W        W40504   5.381   2.670   3.705  0.2220  0.1963 -0.1433
24696W        W40505  12.015  13.225   2.436  0.2621 -0.3224 -0.0865
24697W        W40506   6.083   1.643   1.920  0.3195 -0.3560 -0.0734
24698W        W40507   4.064   9.462   1.044 -0.2729  0.1418  0.2547
24699W        W40508   3.890  13.075  12.301  0.2675 -0.1912  0.0265
24700W        W40509  11.040  15.875   3.942 -0.0596 -0.1475 -0.2410
24701W        W40510  18.042   7.782   4.104  0.0160 -0.1935 -0.0807
24702W        W40511   0.362  13.394   9.293 -0.0446 -0.2870 -0.1470
24703W        W40512  12.477   2.032  12.696  0.0308 -0.1041 -0.2735
24704W        W40513   9.685  14.699   1.419 -0.2845 -0.2305  0.2349
24705W        W40514   3.807  16.685  14.086  0.2085  0.1311 -0.1054
24706W        W40515   2.923   8.370  14.632  0.1341  0.3734  0.3015
24707W        W40516   8.919   5.583   0.631 -0.2000  0.4427 -0.1089
24708W        W40517   3.278   4.419   3.527  0.0918 -0.3811  0.1538
24709W        W40518   8.867   9.627   4.039 -0.0734 -0.1406 -0.0106
24710W        W40519   7.274   1.614  12.209 -0.0904  0.3183  0.1247
24711W        W40520  10.540  13.538   4.937 -0.2586  0.0834  0.0827
24712W        W40521  15.617  15.534   1.097 -0.0595  0.1025  0.2136
24713W        W40522  12.869   7.476  14.928 -0.1287 -0.1591  0.0662
24714W        W40523  18.089   0.492  11.079  0.0337  0.1893 -0.3503
24715W        W40524  16.607  14.826  13.254 -0.0382  0.0824  0.1322
24716W        W40525  18.540  10.617  10.428 -0.1693 -0.4391  0.1284
24717W        W40526   9.127  14.534  14.219  0.2365 -0.0919  0.0355
24718W        W40527   9.484   3.752   1.353  0.0445  0.2450  0.0638
24719W        W40528  15.230  14.904  11.318  0.2846 -0.0402 -0.2417
24720W        W40529   1.292   7.105   0.073 -0.1886 -0.0221 -0.1819
24721W        W40530   7.726  14.048   3.081  0.0241 -0.0225 -0.5856
24722W        W40531  18.422  15.398   9.810 -0.2623  0.0568 -0.2281
24723W        W40532  15.065  11.504  10.483  0.0542  0.0573  0.1003
24724W        W40533  17.345  11.032   4.701  0.0144 -0.0225 -0.2364
24725W        W40534   4.660  14.768   0.155  0.2628  0.3983  0.2001
24726W        W40535   5.661  16.793  14.164 -0.0804  0.0612 -0.2747
24727W        W40536   9.117   0.620  12.188  0.0562 -0.0542  0.2388
24728W        W40537  14.454   6.824   0.820  0.0926 -0.1981 -0.1993
24729W        W40538   7.042   2.190  13.065  0.1444  0.2926  0.1719
24730W        W40539  13.639   6.750   2.744  0.1306  0.4526 -0.0259
24731W        W40540   1.329  15.263   0.889 -0.1012 -0.2544 -0.0567
24732W        W40541   3.572  13.925   2.376 -0.3181 -0.0469 -0.1477
24733W        W40542   1.932   5.646   0.164 -0.1178  0.3712 -0.1686
24734W        W40543   8.407   7.064  11.138  0.2590  0.1614  0.0113
24735W        W40544  14.224  15.102   1.244 -0.4012 -0.1251  0.0335
24736W        W40545   7.582   8.230  12.939 -0.1335  0.0527 -0.1479
24737W        W40546  17.945   4.516  13.347  0.0032  0.0891  0.0582
24738W        W40547   0.156   1.336  14.639  0.0628  0.1433  0.0656
24739W        W40548  12.888  13.146   5.679  0.0818  0.1110  0.0019
24740W        W40549  14.022   8.502   0.686  0.2009 -0.2668  0.0308
24741W        W40550  11.972   9.989  10.969  0.0486  0.1031 -0.2072
24742W        W40551   6.778   7.253  13.864 -0.5145 -0.1037  0.3104
24743W        W40552  12.467   4.197   2.125 -0.4274 -0.0085 -0.2126
24744W        W40553   5.379   7.472   2.106 -0.1113  0.0872 -0.0076
24745W        W40554   1.058  13.113   0.776 -0.2826  0.1957 -0.0678
24746W        W40555  17.029  12.345  12.604 -0.0031 -0.0546  0.0132
24747W        W40556  15.707   3.938  13.467  0.2205  0.2621 -0.2158
24748W        W40557   1.699  12.050  11.770  0.1855  0.2807  0.2330
24749W        W40558  17.923   2.682  10.850 -0.0378 -0.2398 -0.0646
24750W        W40559   3.664  15.865  13.527 -0.1211  0.3792  0.0347
24751W        W40560  16.321  11.208  10.510  0.0150 -0.0498  0.1323
24752W        W40561  16.652  14.552   0.074  0.2159 -0.0736 -0.3462
24753W        W40562  17.212  12.685   3.018 -0.2137  0.0445 -0.0405
24754W        W40563   6.974  18.729  10.295 -0.1387  0.1199  0.1307
24755W        W40564   9.084   7.537  14.473 -0.1597 -0.0799 -0.1112
24756W        W40565   5.463  14.472  14.913  0.0447 -0.0377  0.1830
24757W        W40566  19.075   5.061   4.240 -0.0947  0.0825 -0.0847
24758W        W40567   4.981   5.993  14.831  0.2261 -0.1317  0.2221
24759W        W40568   5.101   6.208   0.823 -0.3317 -0.0288  0.0546
24760W        W40569  15.795   5.723   1.927 -0.0244  0.1810 -0.1149
24761W        W40570  16.500   6.897  12.157  0.2696 -0.1311 -0.1697
24762W        W40571   9.906  11.708   0.422  0.0797  0.2347  0.0785
24763W        W40572  10.190   3.556  11.941  0.1770 -0.1680 -0.2013
24764W        W40573   1.062   5.688  13.705  0.3839  0.3518 -0.0951
24765W        W40574  10.763   4.229   0.973 -0.1418 -0.1959  0.1527
24766W        W40575  17.277  16.635  10.889  0.3055  0.4215 -0.1672
24767W        W40576  10.628   8.644   3.048 -0.1429 -0.0924  0.4253
24768W        W40577   4.968  16.434   1.252 -0.0960 -0.1584 -0.3311
24769W        W40578  18.122  12.248   4.060  0.0870 -0.3161  0.0877
24770W        W40579  16.299  11.483   2.224  0.1520  0.2808  0.1782
24771W        W40580   4.909  18.061  10.066  0.1454 -0.1690  0.0135
24772W        W40581  13.262   1.794  14.778 -0.0321 -0.2061  0.1354
24773W        W40582  10.531   1.407   4.071  0.2472 -0.2705  0.4082
24774W        W40583   7.472  18.185   2.305 -0.2337  0.3076 -0.2193
24775W        W40584   8.819  10.444  11.106 -0.1750 -0.0321  0.1344
24776W        W40585   3.837   7.341  10.902 -0.1532 -0.1514 -0.0758
24777W        W40586   2.380  13.849   3.351 -0.2574  0.0731 -0.1572
24778W        W40587  10.314   6.286   1.076  0.0276  0.0145 -0.1175
24779W        W40588   8.351  16.791  14.235  0.1283  0.0111 -0.0222
24780W        W40589   0.968   9.852  12.547  0.1100  0.0678  0.0113
24781W        W40590   5.591  12.514   1.846  0.1261  0.0847 -0.0177
24782W        W40591  11.743  15.987   2.736 -0.5380 -0.2866 -0.1905
24783W        W40592  18.626  13.388  10.230  0.3989  0.0238  0.5407
24784W        W40593   0.789  17.182  13.238  0.0082  0.2112 -0.3050
24785W        W40594   0.804  14.778  14.393  0.2665  0.0184 -0.2718
24786W        W40595  12.168   6.992   0.910 -0.1222 -0.0755  0.1907
24787W        W40596  16.531   0.655   2.983  0.1341 -0.1502 -0.2297
24788W        W40597   8.255  15.779  11.699 -0.0882  0.1119 -0.2862
24789W        W40598  12.606   8.999  10.667  0.0498  0.0245  0.1214
24790W        W40599   4.895  14.054   1.595  0.0010 -0.2681 -0.0391
24791W        W40600  18.282  15.502   3.420 -0.3497 -0.2615 -0.2181
24792W        W40601  15.565   1.289  14.689 -0.1401  0.1052  0.1534
24793W        W40602  16.908   7.125  13.053 -0.0824  0.1210 -0.0455
24794W        W40603   3.044  13.103  13.092  0.0476  0.3219  0.1990
24795W        W40604   2.729   4.447   1.748 -0.0535 -0.2868  0.0525
24796W        W40605   0.940   1.460  13.066  0.0419 -0.1460  0.0787
24797W        W40606   8.460   2.116   3.835  0.1209 -0.0717 -0.0799
24798W        W40607  16.291  16.001  15.037 -0.0847 -0.0010 -0.0745
24799W        W40608   3.489   3.522  14.975  0.1014 -0.1372  0.1697
24800W        W40609   8.078   8.505   0.606 -0.0667  0.1179  0.1811
24801W        W40610   3.953   3.415  10.233  0.0328  0.0091  0.0735
24802W        W40611  13.420   2.990  11.961  0.1128  0.0259  0.0111
24803W        W40612  11.929  12.883   3.225  0.6186 -0.2000 -0.0938
24804W        W40613   8.581   1.311   3.694  0.0285  0.3657  0.2542
24805W        W40614   7.785   4.042   0.554 -0.0930 -0.0102  0.0206
24806W        W40615  13.651  16.077   5.320  0.0464  0.1456  0.0216
24807W        W40616  12.969   7.429  13.942 -0.1435  0.0507  0.2475
24808W        W40617  13.525   1.159  14.278  0.0486  0.2460 -0.1490
24809W        W40618  11.108   9.598  15.165  0.1971 -0.1592 -0.3236
24810W        W40619   1.477  10.157   0.371 -0.0196  0.0601 -0.2329
24811W        W40620  15.758  18.284   3.171  0.3453 -0.0614  0.0129
24812W        W40621  18.067  16.257   5.480  0.0398 -0.0560 -0.2196
24813W        W40622  11.426   7.159  10.514  0.0716  0.3032  0.1941
24814W        W40623  14.689  16.247  13.239 -0.1201  0.1296 -0.2843
24815W        W40624  10.676   7.272  11.703 -0.1082  0.0440 -0.0107
24816W        W40625  14.909  15.726   4.005  0.1748 -0.0681  0.0357
24817W        W40626  18.925   0.056   2.077  0.2544 -0.0489 -0.0620
24818W        W40627   1.166  11.993  10.324  0.0597  0.2484 -0.0458
24819W        W40628   8.770   0.363  14.257  0.1148  0.3052 -0.2061
24820W        W40629   5.113  16.083  13.944 -0.3661  0.0284 -0.3590
24821W        W40630  10.970  18.944  11.925 -0.1554 -0.0356  0.1492
24822W        W40631  15.521   0.381  12.515  0.2012 -0.1680 -0.1107
24823W        W40632  12.728  18.147  12.257  0.1448 -0.0228 -0.2215
24824W        W40633  11.880  14.536   5.213  0.0577  0.0705  0.4557
24825W        W40634   5.063  16.044  12.252  0.1306  0.2549 -0.3009
24826W        W40635   1.368  12.588  13.518 -0.2481 -0.2370 -0.2801
24827W        W40636  14.348  18.483   2.167 -0.2303 -0.1087  0.3141
24828W        W40637   5.892   6.862   0.233  0.0561 -0.1501  0.5281
24829W        W40638  13.349  15.938  10.228  0.2144  0.1436 -0.0914
24830W        W40639   2.406  18.782   4.554  0.2184  0.0383  0.1479
24831W        W40640  14.095  17.259  12.825 -0.0365 -0.0569  0.1023
24832W        W40641   9.426   8.281  12.382 -0.2735 -0.2489 -0.4883
24833W        W40642  18.095  14.006  12.312 -0.1159 -0.1013 -0.1223
24834W        W40643  10.960   5.931   2.280  0.2014  0.0992 -0.0764
24835W        W40644  12.791  14.080   5.561  0.0779  0.2603 -0.0561
24836W        W40645   4.082  11.358   0.109 -0.7385  0.0522 -0.2031
24837W        W40646  14.128  17.412  12.044 -0.0336  0.1226 -0.1122
24838W        W40647   5.528   3.195   4.395 -0.0541  0.3607 -0.0482
24839W        W40648   7.830   6.682   2.074 -0.0159 -0.2739 -0.0499
24840W        W40649  13.051   1.289   1.521 -0.0473 -0.1173  0.2394
24841W        W40650  14.769  12.310   0.469  0.2263 -0.0882  0.1011
24842W        W40651   7.670  10.424  12.034  0.1447 -0.1169 -0.0535
24843W        W40652   1.339   3.025   3.361 -0.1617 -0.0355 -0.1376
24844W        W40653   7.923  13.155   1.607 -0.1200  0.0664 -0.0451
24845W        W40654  11.239  11.394   4.180  0.0389 -0.3413 -0.3459
24846W        W40655  11.308  12.281   1.476  0.1401 -0.0811  0.0637
24847W        W40656  13.782  13.621  15.155  0.0634 -0.0606 -0.0858
24848W        W40657   7.943  17.424   0.717 -0.3706 -0.0939 -0.1956
24849W        W40658   2.707  16.525  13.978  0.2621 -0.2851  0.2044
24850W        W40659  18.708  18.462   5.232  0.3596  0.3561  0.0932
24851W        W40660   0.416  15.068  14.210 -0.2622 -0.1679 -0.1462
24852W        W40661   6.383   5.729  10.698 -0.1255  0.0422  0.1574
24853W        W40662  10.912   6.005   4.805  0.1944 -0.0858  0.1483
24854W        W40663   6.805   4.519   2.706 -0.0058  0.0996 -0.3441
24855W        W40664  12.129   8.095   2.946  0.1647 -0.0561 -0.1430
24856W        W40665   6.028  14.584  15.117 -0.1712  0.1596 -0.3176
24857W        W40666  13.745  14.157   4.688  0.2590 -0.3228 -0.1298
24858W        W40667  14.585  13.789   0.163 -0.1340  0.1960  0.1902
24859W        W40668   2.153   3.948   0.526  0.2438 -0.0442  0.2247
24860W        W40669   1.814  15.769   2.678 -0.1304  0.3189  0.0067
24861W        W40670   5.501   4.383   3.854 -0.0645  0.2766  0.1087
24862W        W40671   4.518  10.989  14.285 -0.2053 -0.1336  0.0093
24863W        W40672  16.204  14.957   3.389  0.4105 -0.1325  0.1447
24864W        W40673   5.935  15.797   4.710  0.0704 -0.0397 -0.2249
24865W        W40674   3.142   5.019   0.162 -0.0433 -0.1088  0.1968
24866W        W40675   6.681  11.192   0.577 -0.0659  0.2946  0.0512
24867W        W40676   4.817   4.954   2.914 -0.2888 -0.0133 -0.0413
24868W        W40677  16.117   9.655   5.718  0.2568  0.2828 -0.0881
24869W        W40678   1.487   7.741   5.046 -0.1331  0.1451  0.0621
24870W        W40679  11.841   3.609  12.501 -0.2664 -0.3146  0.2268
24871W        W40680  15.908   2.277  14.835 -0.0275 -0.0028 -0.0266
24872W        W40681   3.624  13.586  14.170  0.1099  0.1943 -0.2388
24873W        W40682   2.061  13.128   1.069  0.2647 -0.3448 -0.2701
24874W        W40683   1.152   9.925  14.851 -0.0678  0.0024  0.0814
24875W        W40684  10.801  18.822  12.765 -0.2383 -0.0239 -0.1461
24876W        W40685   5.290  17.473   3.318 -0.1734  0.3151 -0.0335
24877W        W40686   0.175  16.579  15.004 -0.0290 -0.2889  0.2096
24878W        W40687  17.212  13.099  14.623  0.2588 -0.1687 -0.2321
24879W        W40688   8.266  16.130   5.349 -0.0861  0.2658  0.1694
24880W        W40689  14.948   0.084  15.036  0.1604 -0.4204  0.0960
24881W        W40690   0.915  18.461   4.902 -0.0629 -0.1076  0.2612
24882W        W40691   4.262   1.383  11.576 -0.0130  0.2095 -0.1363
24883W        W40692  13.661  16.737  12.039  0.3528  0.0126 -0.1736
24884W        W40693  10.678   6.525   3.912 -0.2915 -0.0630 -0.0476
24885W        W40694  10.803   7.294   2.575  0.0954  0.0387  0.4229
24886W        W40695   0.792  13.784  14.881 -0.0830 -0.0640 -0.0664
24887W        W40696   7.840  14.867   0.608 -0.0447 -0.3002 -0.2297
24888W        W40697   2.869  19.021   5.097 -0.0491 -0.0235  0.2277
24889W        W40698   7.666  13.190   2.034 -0.1271 -0.3251  0.1063
24890W        W40699   5.783  13.323  10.845 -0.3634 -0.0537 -0.1878
24891W        W40700   1.936   5.133  13.498 -0.1336 -0.1756  0.1090
24892W        W40701   0.077  11.623  14.865 -0.1196 -0.4416 -0.1351
24893W        W40702  12.006  15.632   4.409  0.1417  0.2368  0.2205
24894W        W40703   3.650   1.879   4.350  0.0848  0.1202 -0.0669
24895W        W40704   8.571   0.858  11.375 -0.1725 -0.2343 -0.2743
24896W        W40705   5.814  18.080  12.645 -0.2770  0.4713 -0.4789
24897W        W40706   1.554   7.192   3.281 -0.0260  0.1283 -0.2667
24898W        W40707   8.617   7.334  14.451  0.0542  0.2175  0.1277
24899W        W40708  11.597   3.803  10.974  0.0826 -0.2051 -0.1294
24900W        W40709  16.337  11.869   1.174 -0.2083 -0.1979 -0.1517
24901W        W40710   2.076   7.957  13.503  0.0674  0.2799  0.1372
24902W        W40711  10.807  18.305  13.572  0.1764 -0.0299  0.1589
24903W        W40712   0.271   5.506   0.239 -0.2039 -0.1037 -0.1946
24904W        W40713   6.936   7.567   4.225 -0.3307  0.3469  0.2574
24905W        W40714   0.592  15.588  12.523 -0.1184  0.1814 -0.0421
24906W        W40715   4.416  16.544   5.299  0.1973  0.0459  0.0396
24907W        W40716  18.589   1.035   0.022 -0.2376  0.1676  0.2499
24908W        W40717  12.739   9.316  12.707  0.0826 -0.0067  0.1507
24909W        W40718   0.860  10.887   3.889  0.2181  0.0688 -0.0037
24910W        W40719   0.475  18.722   3.396 -0.0890  0.2011  0.0813
24911W        W40720  11.294  16.943   0.947 -0.0565 -0.2348  0.1876
24912W        W40721  13.130  11.405  13.326  0.0579  0.1937  0.0394
24913W        W40722   4.860   9.354   1.105 -0.0042  0.1641  0.0903
24914W        W40723   8.709  10.975  11.149  0.0163 -0.3553  0.4565
24915W        W40724  16.462  10.606  14.865  0.4064 -0.1660 -0.1227
24916W        W40725   7.400   4.489   4.600 -0.0480 -0.2112  0.2734
24917W        W40726   5.820   7.671   1.935  0.0071  0.0932 -0.2789
24918W        W40727   3.481  18.340  12.294 -0.5456  0.1291  0.2688
24919W        W40728   7.557  15.051   4.567  0.0257  0.1648 -0.0061
24920W        W40729  17.265  18.364   3.733 -0.1724 -0.1186 -0.0706
24921W        W40730  11.298  13.850  14.060 -0.0270 -0.3241 -0.2940
24922W        W40731   6.052  14.631   1.048 -0.0500  0.1151  0.0528
24923W        W40732  10.487  14.149   5.197 -0.1405 -0.1682 -0.1257
24924W        W40733  18.965  17.458   0.598 -0.1191 -0.1993 -0.0140
24925W        W40734  13.445   8.958  13.905  0.0203 -0.0463  0.0225
24926W        W40735  18.282   2.035   2.730 -0.0710 -0.0037 -0.0876
24927W        W40736  19.074   6.852   1.681 -0.0048 -0.3191  0.1580
24928W        W40737  10.332   2.262   1.586  0.1979 -0.0779 -0.2936
24929W        W40738  11.127   3.775   5.006 -0.0775  0.2443  0.1618
24930W        W40739  10.518   5.016   3.857  0.1705  0.3065 -0.2027
24931W        W40740  18.968  13.662   5.596  0.1315 -0.3103 -0.2444
24932W        W40741   7.165  11.625  14.605  0.1086 -0.2480  0.0105
24933W        W40742  13.778  18.292  11.986 -0.1548 -0.2479  0.3359
24934W        W40743   5.376  12.013   4.225 -0.1336  0.1846 -0.4354
24935W        W40744   3.749   5.482   0.569 -0.1180 -0.1030  0.0129
24936W        W40745   3.560   2.654  12.120 -0.1038 -0.2107 -0.2102
24937W        W40746   6.297   3.610   3.508  0.1234  0.1060  0.1466
24938W        W40747   6.448  18.118   1.217 -0.2093  0.2162  0.0622
24939W        W40748   5.320   7.497   3.023  0.2145  0.1417  0.3990
24940W        W40749  16.522   9.169   1.961 -0.0340  0.1983  0.2125
24941W        W40750   8.088  11.125  13.234 -0.3503 -0.1804 -0.2288
24942W        W40751  16.595  14.765   2.322  0.0094  0.4255 -0.2349
24943W        W40752   8.761   4.011   2.527  0.0760 -0.1313 -0.1077
24944W        W40753   1.224  14.575  15.009  0.1605 -0.7979  0.2803
24945W        W40754   2.980   0.019   0.034 -0.1680 -0.4330  0.2155
24946W        W40755   7.768  12.783   4.806  0.2086  0.0098 -0.0146
24947W        W40756   8.774  17.722   4.696 -0.3327 -0.3140 -0.0291
24948W        W40757  14.244   0.167  12.694  0.1227  0.1414 -0.1778
24949W        W40758   6.691   3.322   3.277  0.2159 -0.1829  0.1622
24950W        W40759   9.404   2.896   1.940  0.1829  0.4513  0.2730
24951W        W40760   3.739   6.570  14.261  0.0584 -0.1478  0.0287
24952W        W40761   2.397  10.185   0.567  0.1998 -0.1460 -0.0759
24953W        W40762   9.746  16.521  13.955  0.1275  0.2726 -0.1582
24954W        W40763  13.011   4.489  14.766 -0.0971  0.0792 -0.2342
24955W        W40764  13.396  13.001   3.884  0.1542  0.2187 -0.0472
24956W        W40765   1.723   7.815  11.028  0.1739  0.1497 -0.2013
24957W        W40766   7.156   7.472  11.943 -0.2325  0.0414  0.1181
24958W        W40767   5.355  10.054   1.745 -0.0821 -0.2063 -0.2477
24959W        W40768   6.067   9.047   1.782 -0.3564 -0.1381  0.0592
24960W        W40769   9.147  16.108  11.621  0.1215  0.1526  0.0042
24961W        W40770  15.184   5.214   4.884  0.1009  0.0010  0.2913
24962W        W40771  12.082   1.759  14.245  0.1143  0.0207  0.0632
24963W        W40772  18.223   7.275   4.342  0.0906 -0.3714  0.4074
24964W        W40773   8.381  14.770  14.158  0.0545 -0.0504 -0.2458
24965W        W40774   0.066   6.222  14.183  0.2003 -0.1732 -0.2451
24966W        W40775   3.199  10.782  13.880  0.0704 -0.2441 -0.5020
24967W        W40776  18.334   3.019  14.298  0.1876 -0.1473  0.0080
24968W        W40777   8.627  10.321   5.114 -0.2532  0.1107  0.0937
24969W        W40778  14.092  14.164   5.184  0.1112 -0.1484 -0.0433
24970W        W40779  18.770  11.595   4.509 -0.1441  0.0610  0.2277
24971W        W40780   4.558   4.044   2.972 -0.1324 -0.3361 -0.0516
24972W        W40781  14.594   2.398   3.561 -0.1471  0.1128  0.0736
24973W        W40782  17.776   0.497   5.351  0.1172  0.1045  0.3073
24974W        W40783  15.219   8.362  15.031 -0.1801  0.0646 -0.2558
24975W        W40784   6.508  17.729   1.515  0.1168  0.0446  0.3521
24976W        W40785  11.080  12.317  14.798 -0.0300  0.1286 -0.0174
24977W        W40786   5.501  18.293   3.233  0.1684  0.1028 -0.2408
24978W        W40787   2.053   7.684  11.426  0.2914  0.0323 -0.1086
24979W        W40788   9.486   4.240  13.272 -0.0403 -0.0621  0.1619
24980W        W40789  15.359  14.553  12.721 -0.1640 -0.1050 -0.0794
24981W        W40790  18.378  11.965  11.597  0.0891  0.1542 -0.1980
24982W        W40791  14.902   6.535   9.895  0.0550 -0.4325  0.0418
24983W        W40792  10.942   7.512  13.855  0.1541  0.1465 -0.2305
24984W        W40793  14.065   1.343   3.003 -0.2808 -0.1362 -0.1121
24985W        W40794  14.796   4.250   4.969 -0.0735 -0.2384  0.1541
24986W        W40795  15.028   8.308   3.175 -0.1920  0.4400  0.0567
24987W        W40796  16.669   1.344   5.328  0.1508  0.0571  0.2345
24988W        W40797  13.695  12.623   1.784 -0.0296 -0.1733 -0.0547
24989W        W40798  10.452   0.146   4.094 -0.4243 -0.1306 -0.1987
24990W        W40799   1.409   2.645  11.245  0.0269 -0.1754  0.0536
24991W        W40800  12.151   7.579   4.323 -0.1234  0.2045 -0.3483
24992W        W40801   5.758   5.404   3.926  0.3244  0.0012  0.2759
24993W        W40802   5.510   6.885  10.159  0.1799 -0.1765 -0.0954
24994W        W40803   3.253   0.630  11.883 -0.3549 -0.3061  0.0275
24995W        W40804  11.888  17.718  13.621 -0.0767  0.1538  0.2785
24996W        W40805   7.598   3.446  13.297  0.0358  0.0290 -0.1355
24997W        W40806   6.315   8.383   0.514 -0.2336 -0.1106 -0.2357
24998W        W40807   7.058  17.018   3.870  0.0865  0.0420  0.4167
24999W        W40808   3.239   2.930   9.446 -0.2165  0.2881 -0.0277
25000W        W40809  17.230  18.265   2.460  0.4624  0.0702  0.2439
25001W        W40810  18.675   9.316  13.718 -0.1500  0.1900  0.1945
25002W        W40811   9.105  17.016   2.558 -0.0466 -0.1461 -0.2184
25003W        W40812   2.330   5.240   3.200 -0.3375  0.4667 -0.1332
25004W        W40813   6.578   7.715  13.623 -0.0179  0.1231  0.1068
25005W        W40814   9.153  14.093  13.069 -0.0719 -0.1355  0.0238
25006W        W40815  18.835  11.459  13.113  0.0418 -0.0468  0.0854
25007W        W40816  11.487   8.597   0.193  0.0519 -0.1230 -0.1122
25008W        W40817   5.847  10.898   2.423  0.0059 -0.0576  0.3601
25009W        W40818  12.911  13.186   4.106 -0.0664 -0.1410  0.2095
25010W        W40819   1.826  11.498   1.093 -0.2773 -0.0690  0.1738
25011W        W40820  11.188   4.612  10.213 -0.1736 -0.4490 -0.3061
25012W        W40821   7.990   8.444   1.727 -0.0431 -0.1060 -0.0384
25013W        W40822   3.585  15.888   1.344  0.1348 -0.1028 -0.0570
25014W        W40823  12.969   6.933   3.268  0.0324  0.2505  0.2153
25015W        W40824   6.243  16.164   3.902  0.0500 -0.2518  0.2362
25016W        W40825  17.361  19.064  15.150  0.0152  0.1737 -0.0964
25017W        W40826   1.548   4.027  10.489 -0.4047  0.2122  0.1136
25018W        W40827  10.021  12.268  11.556 -0.1841  0.3591  0.3100
25019W        W40828   2.326  13.566   3.839 -0.0642  0.3498 -0.0604
25020W        W40829   2.241  14.108  14.826  0.0040  0.2013 -0.1903
25021W        W40830  18.386  13.222   2.560 -0.1599 -0.0852  0.0944
25022W        W40831   7.668  18.856   0.911 -0.1621 -0.1701  0.0797
25023W        W40832   4.608   3.420   0.536 -0.1741 -0.0486 -0.1641
25024W        W40833  11.374  14.267  10.331 -0.2797 -0.1593 -0.1941
25025W        W40834  12.094   3.445  13.337 -0.1346 -0.4567  0.2534
25026W        W40835  14.904  16.732  14.959 -0.0847  0.0828 -0.1909
25027W        W40836  11.705  17.550  13.065  0.0390  0.3527  0.3559
25028W        W40837   7.980   7.368   1.541  0.1913 -0.0403 -0.0352
25029W        W40838  14.372  12.475   1.288 -0.2839 -0.2900 -0.0735
25030W        W40839   2.848  18.927  11.288  0.2817  0.1740  0.1544
25031W        W40840   5.654  12.210  11.110 -0.0304 -0.0822  0.2567
25032W        W40841   1.628  13.283  14.672  0.0920  0.0010 -0.0928
25033W        W40842  12.979  14.657  13.964  0.3090  0.2047 -0.0355
25034W        W40843   0.792   8.520  13.199  0.0472 -0.1427 -0.0413
25035W        W40844  16.826  14.096  13.915  0.3073 -0.0657 -0.1810
25036W        W40845  12.324  13.890   0.241 -0.3512  0.1907  0.0239
25037W        W40846  12.625   9.026   5.963 -0.0037 -0.2035 -0.6204
25038W        W40847  17.804   2.282  11.098 -0.2350 -0.2282 -0.0806
25039W        W40848   9.653   2.856   1.247  0.1434  0.2064  0.2554
25040W        W40849   8.138  10.486  12.189 -0.2046  0.1911 -0.3704
25041W        W40850   1.063  18.690   3.123 -0.0976  0.3059  0.0588
25042W        W40851   3.917   8.148   4.303 -0.0198 -0.0355 -0.0908
25043W        W40852   4.464   3.012  14.159 -0.0964  0.3027  0.0595
25044W        W40853   2.699  18.465   4.859 -0.2977  0.1990 -0.0392
25045W        W40854   0.310   1.934   2.181  0.2564  0.1039  0.0734
25046W        W40855   7.290  15.782  13.440 -0.0791  0.2171  0.2420
25047W        W40856   0.572   6.904  14.610 -0.0158  0.1899 -0.0730
25048W        W40857   7.792  11.690  13.762  0.0952  0.2812 -0.2763
25049W        W40858   1.632  17.464   2.068 -0.2266 -0.1499 -0.0476
25050W        W40859   1.740   1.789   1.268 -0.3257 -0.0917 -0.0257
25051W        W40860  12.238  14.927   0.535  0.1798 -0.5124 -0.3251
25052W        W40861   7.262  13.573  12.924 -0.1265 -0.0727  0.0668
25053W        W40862   9.070  12.737  10.833 -0.0715 -0.0760  0.0519
25054W        W40863  17.964  10.090   3.417 -0.2198 -0.2640  0.1483
25055W        W40864  14.510   3.644  14.102 -0.2504  0.2983  0.0603
25056W        W40865   7.367   1.109  13.484  0.2876 -0.3781  0.3302
25057W        W40866   8.929  13.019  11.248 -0.2363  0.0970 -0.2009
25058W        W40867   7.522   7.625  10.489 -0.3284  0.1184  0.2735
25059W        W40868  16.455  16.284   3.483  0.2529 -0.2545  0.3537
25060W        W40869  17.223   9.910   1.409 -0.3002 -0.2731  0.0573
25061W        W40870  12.366   7.420   1.740 -0.1726  0.0649  0.0015
25062W        W40871  18.841  15.099   2.526  0.0244 -0.0585  0.0355
25063W        W40872  16.644   6.839   2.809 -0.1118 -0.0618 -0.2727
25064W        W40873   5.469   3.004  15.099  0.1573 -0.2141  0.6194
25065W        W40874  12.473   9.418   9.774  0.0523 -0.0135  0.2545
25066W        W40875   4.871  18.240  12.537  0.0668 -0.2655 -0.1114
25067W        W40876   5.447  10.938   3.904 -0.1230 -0.0436 -0.0091
25068W        W40877   0.526   9.002  12.246  0.1039 -0.0788 -0.2077
25069W        W40878   8.956   6.788  13.591 -0.1838  0.2789 -0.2040
25070W        W40879   8.112   0.491   3.213  0.0147 -0.3587 -0.1741
25071W        W40880   3.459   1.472   4.562  0.1466 -0.1389  0.0355
25072W        W40881   3.450  19.025   1.353 -0.1056 -0.0322 -0.3360
25073W        W40882   1.250   2.397   2.584 -0.1134  0.0572 -0.1353
25074W        W40883  14.004   8.744   4.744  0.3295 -0.1467 -0.0506
25075W        W40884  13.259  19.131   5.275 -0.0241 -0.0724 -0.0607
25076W        W40885  18.258   6.347  13.788 -0.0795 -0.1996  0.1309
25077W        W40886  16.554  17.349  11.483 -0.2153 -0.3211 -0.0091
25078W        W40887  19.086  13.307   3.370 -0.1401  0.1482 -0.0785
25079W        W40888   7.458   6.062   5.346 -0.0801 -0.1445  0.1657
25080W        W40889   4.099   4.670  10.260 -0.1166 -0.0619 -0.2626
25081W        W40890  19.008   3.031   5.274 -0.1381  0.1099 -0.1190
25082W        W40891  10.439  18.110  13.738  0.1121  0.0113 -0.1250
25083W        W40892  14.765  13.461  13.840 -0.1389  0.1710 -0.1419
25084W        W40893  19.071   6.333  12.784  0.1407  0.4377 -0.0404
25085W        W40894  18.403   0.985  12.243  0.1770  0.1900  0.1526
25086W        W40895   7.032  17.434  10.550 -0.2275 -0.0936  0.0794
25087W        W40896  18.038  18.408  14.418 -0.1260  0.1123  0.1622
25088W        W40897  14.365   5.416  13.204  0.2330  0.0309  0.1286
25089W        W40898  13.332  13.100  14.560  0.0563  0.2484  0.0597
25090W        W40899   4.955   5.044   4.981  0.2798 -0.0328 -0.0634
25091W        W40900   6.682   0.958   0.029 -0.1669 -0.1763  0.2848
25092W        W40901  18.750  16.893  12.729  0.1097  0.2451  0.0386
25093W        W40902  15.871  16.933  12.489 -0.2864  0.0362 -0.2885
25094W        W40903   6.290  12.961   0.469  0.2061 -0.2127 -0.2999
25095W        W40904  11.355  11.550  13.109 -0.0059 -0.0189  0.1326
25096W        W40905  11.055   2.654   2.996 -0.0704 -0.2894  0.1197
25097W        W40906   6.897  12.190   4.541 -0.0343  0.1423  0.4319
25098W        W40907  12.407   0.406  12.851 -0.2276 -0.0424 -0.0491
25099W        W40908  10.094   4.737   0.301 -0.4830 -0.1056 -0.0774
25100W        W40909  12.066   6.690  12.214  0.0212  0.2828 -0.1646
25101W        W40910  16.440  16.912   0.726  0.2125 -0.3147 -0.0573
25102W        W40911  11.737   6.106   2.517  0.2388 -0.1793  0.3337
25103W        W40912   3.555   5.035   4.277 -0.0170  0.1495  0.1044
25104W        W40913  16.835  13.110  15.054  0.1295 -0.0552  0.0036
25105W        W40914  11.142  11.498   1.906 -0.2593  0.0315  0.0925
25106W        W40915  10.817   4.282   9.948 -0.1130  0.0488 -0.2410
25107W        W40916  15.133   9.714  10.785  0.2478 -0.0455 -0.0477
25108W        W40917   2.033   8.035   4.870 -0.0339 -0.3468  0.0699
25109W        W40918   4.112  12.475   1.703  0.0289  0.4970  0.1297
25110W        W40919   3.769  14.518  12.953  0.0962  0.0315 -0.1378
25111W        W40920   5.603   6.369   2.561 -0.2131 -0.3218  0.0505
25112W        W40921  10.285   3.142   2.957  0.3958 -0.0824 -0.4373
25113W        W40922  11.548   1.833  14.073 -0.0545  0.1451 -0.6229
25114W        W40923  15.958  15.885   4.448 -0.1564 -0.2767  0.1209
25115W        W40924   4.002  18.981   1.333  0.0767  0.0238  0.3916
25116W        W40925   7.904   9.992   1.445 -0.2324 -0.2803  0.1184
25117W        W40926  14.518   7.561   4.048  0.3551  0.0954  0.0196
25118W        W40927  11.787   1.987  12.406  0.2359  0.1814  0.0694
25119W        W40928   4.208   1.306   2.100  0.1384  0.0615 -0.0881
25120W        W40929  15.138   8.193   3.679  0.3123 -0.2413  0.2375
25121W        W40930   0.764   5.074  10.944 -0.0077 -0.0428 -0.1041
25122W        W40931   4.933  11.542   9.941 -0.3367 -0.1161 -0.1686
25123W        W40932  15.706   4.560  11.524  0.1381  0.4207  0.1128
25124W        W40933   6.644   2.314  10.887 -0.0246 -0.0804  0.0224
25125W        W40934   8.058   8.016   3.267  0.2986 -0.2491 -0.0939
25126W        W40935   1.219  11.676   2.376  0.0572  0.1703 -0.2039
25127W        W40936  15.414   6.198   2.679  0.4266 -0.0422  0.0910
25128W        W40937  19.139   9.356   3.323 -0.1606  0.0725  0.0166
25129W        W40938   4.626  15.300  11.368 -0.2559  0.1020 -0.1491
25130W        W40939   7.608   6.994   4.219 -0.0406 -0.2099  0.1606
25131W        W40940   0.103  17.790  11.013 -0.1962 -0.2668 -0.3827
25132W        W40941  13.685   4.258  11.568  0.1824  0.3115 -0.2806
25133W        W40942   4.889   8.177  10.755 -0.2059  0.1725  0.0201
25134W        W40943   0.273  18.107  12.496  0.0684  0.0389 -0.1314
25135W        W40944  18.514   9.769   2.862  0.1433  0.1179 -0.1565
25136W        W40945  13.877   7.211  11.560  0.0338 -0.0247 -0.4578
25137W        W40946  16.873  13.597  10.753 -0.0710 -0.1859 -0.1665
25138W        W40947   0.339   6.232   0.090 -0.0737 -0.1033 -0.0729
25139W        W40948  17.449  13.074  11.555  0.3200 -0.2819 -0.5247
25140W        W40949   5.525  11.604  11.873  0.2299 -0.1029 -0.0867
25141W        W40950  13.008  14.272  11.909 -0.0508  0.0015 -0.0016
25142W        W40951   1.544  13.964  14.243  0.3155 -0.1708  0.3416
25143W        W40952   6.338  17.282   4.445  0.1656  0.1469  0.0582
25144W        W40953   6.968   7.929   9.876 -0.0075 -0.0972  0.3334
25145W        W40954  16.513   8.999   1.484  0.2689 -0.1064 -0.2568
25146W        W40955   1.861   3.217  10.821  0.1070 -0.4222 -0.0218
25147W        W40956  11.034  18.376   0.561  0.1395 -0.0517 -0.1331
25148W        W40957  11.017   6.782  13.468  0.4679 -0.0974  0.2260
25149W        W40958   1.797   6.270   3.846  0.2310 -0.2469 -0.2022
25150W        W40959  15.110   6.017  11.592  0.0979 -0.2158  0.0691
25151W        W40960   7.272  12.517   3.322  0.0850  0.0971  0.1390
25152W        W40961  12.803  17.592   2.183  0.1455 -0.3762 -0.0957
25153W        W40962  12.736  14.199   4.963 -0.0026 -0.2045  0.2554
25154W        W40963  14.395   9.137  14.907  0.3812  0.0720 -0.1283
25155W        W40964  16.712   4.135  11.880  0.0693 -0.1533  0.0001
25156W        W40965   9.512   2.654  11.545  0.1010  0.1602  0.2979
25157W        W40966  14.847   1.632   0.930 -0.0222 -0.4397  0.1468
25158W        W40967  11.964   0.558  12.272 -0.1997  0.3194  0.1319
25159W        W40968  10.994  13.322  12.357  0.0588 -0.0759 -0.1399
25160W        W40969   4.052   0.838  10.321  0.2564  0.0489 -0.1128
25161W        W40970   6.195  11.447  13.698  0.0709 -0.1792 -0.0853
25162W        W40971  11.455  16.027   0.848 -0.1988  0.0496 -0.2304
25163W        W40972  10.095   4.462  10.950 -0.3975  0.0654  0.0654
25164W        W40973  16.866   8.246   0.825  0.3462 -0.0728 -0.1265
25165W        W40974  12.478  13.038  14.960 -0.1387  0.2549 -0.1646
25166W        W40975   3.040   4.332  11.883  0.0412 -0.1561  0.1329
25167W        W40976   1.832   5.089   4.899  0.2393 -0.3563 -0.2913
25168W        W40977   1.781   4.390   3.685 -0.0475  0.0495  0.3136
25169W        W40978  13.128   1.517   4.423 -0.1187 -0.2702 -0.0957
25170W        W40979   6.200  16.755   4.369  0.0681  0.3221 -0.1359
25171W        W40980  14.953  10.376   3.979 -0.0884 -0.0622  0.2632
25172W        W40981   3.859   5.981  10.586 -0.2500  0.2175  0.0363
25173W        W40982   1.674  15.607  10.807 -0.0828 -0.2800 -0.0010
25174W        W40983   7.113   7.017   0.498  0.2592 -0.3193  0.0642
25175W        W40984  18.656   4.731   2.517  0.0146  0.2564  0.1755
25176W        W40985   8.705   9.687   1.176  0.1660  0.2878  0.1241
25177W        W40986  10.278   1.654  14.499 -0.0042 -0.0629 -0.1043
25178W        W40987   6.073  18.709   0.412 -0.0175  0.0853 -0.0966
25179W        W40988  15.930   7.859   1.068  0.1113 -0.2024  0.3552
25180W        W40989   5.543   2.752   4.646  0.2199  0.2100  0.1064
25181W        W40990   7.199   4.920   4.160  0.1907 -0.2786  0.0311
25182W        W40991   5.614  10.109  14.489  0.5525  0.0938 -0.0462
25183W        W40992   4.237   8.177  15.189 -0.1645 -0.4140  0.0899
25184W        W40993  18.142  11.995  12.140  0.0298 -0.1613  0.1441
25185W        W40994  14.775   7.106   2.584 -0.1262  0.0733 -0.1300
25186W        W40995   3.445  14.335   3.778 -0.1720  0.3017 -0.4221
25187W        W40996  14.902   8.339  10.743 -0.1601  0.0467  0.1973
25188W        W40997  16.692  10.050   2.799 -0.4763  0.1681  0.1006
25189W        W40998   7.683   3.628   2.038  0.2769  0.0605 -0.5199
25190W        W40999  12.107  10.754   2.070 -0.0435 -0.0426  0.2597
25191W        W41000  11.775  18.930   3.804 -0.1956 -0.3078  0.0484
25192W        W41001   9.253  12.023   3.174 -0.0648 -0.1711 -0.1554
25193W        W41002  15.400   1.295   2.102  0.2426 -0.0472 -0.2705
25194W        W41003  11.973  14.207  11.514 -0.0452 -0.3167 -0.4534
25195W        W41004  14.546  13.060   0.245 -0.1191  0.0895  0.2993
25196W        W41005   9.695   7.057   0.198  0.2014  0.2559  0.0153
25197W        W41006  18.827   5.974   2.035  0.1275  0.0936  0.0365
25198W        W41007   3.411  18.835   3.842 -0.1339  0.1718 -0.2740
25199W        W41008   0.890   2.799  14.905 -0.1831 -0.2368 -0.1031
25200W        W41009   1.160   4.894  15.050 -0.1247  0.3005 -0.2528
25201W        W41010  14.196  13.309   1.781  0.2249 -0.1954 -0.1247
25202W        W41011   9.656  15.618  14.934 -0.0221 -0.2445  0.1947
25203W        W41012   3.268  14.945  11.390 -0.1712 -0.2084 -0.2374
25204W        W41013   9.603  15.208  12.799  0.0327  0.1039 -0.0137
25205W        W41014   7.124   7.832  11.625  0.3551 -0.0614  0.0551
25206W        W41015  11.432  16.048  11.193  0.2644  0.2416  0.1670
25207W        W41016  16.499  16.263  14.067  0.0003  0.3111  0.4638
25208W        W41017   7.786   5.870   2.618  0.1007  0.2528 -0.2832
25209W        W41018  18.247  16.937   1.376 -0.0855 -0.0988  0.0022
25210W        W41019   7.695  10.565   2.370 -0.1127 -0.1981  0.0325
25211W        W41020   8.873   6.188  12.761  0.1439 -0.2340  0.4789
25212W        W41021   7.776   1.884  10.239 -0.1018  0.0202 -0.0545
25213W        W41022   5.944   0.535   3.954 -0.0831  0.1187  0.2033
25214W        W41023  14.342  13.911   1.052  0.1061 -0.3794 -0.5275
25215W        W41024   8.651  16.336  11.000  0.1544 -0.0431 -0.0770
25216W        W41025   0.008   5.368  10.162 -0.1354  0.0894  0.2347
25217W        W41026   9.945   3.309  15.098 -0.0679 -0.0664  0.0894
25218W        W41027  10.846   0.721  14.868  0.0571 -0.1145 -0.1045
25219W        W41028  16.408  14.976   4.948  0.0052 -0.3129  0.0237
25220W        W41029  17.204  14.760   3.220  0.4291 -0.1375 -0.1987
25221W        W41030   5.899   8.310   0.350  0.1699 -0.0372  0.1552
25222W        W41031  14.104   0.494  14.699 -0.0174  0.4785  0.3610
25223W        W41032  11.198  13.908   0.933 -0.0723 -0.1998  0.1450
25224W        W41033   5.153   9.514   2.144  0.1220 -0.2121  0.2385
25225W        W41034   9.156   0.342  12.656  0.0620  0.0894  0.4899
25226W        W41035  18.597   9.853   5.168  0.0722  0.0611 -0.2568
25227W        W41036   9.793   0.884  13.147  0.1311  0.0512  0.2432
25228W        W41037   3.209   8.734  11.951 -0.3060 -0.1025 -0.1056
25229W        W41038  14.375  17.674  15.209 -0.3466  0.3073  0.0477
25230W        W41039   6.600   6.937  10.748 -0.0711  0.0228  0.1429
25231W        W41040   4.575   2.824   2.070  0.0860 -0.0680 -0.0520
25232W        W41041   1.300  16.796  10.405  0.0130 -0.1998  0.1334
25233W        W41042   2.350   9.414   2.421 -0.0515 -0.4028 -0.0460
25234W        W41043   1.805   2.213   0.209  0.1518 -0.1521 -0.0025
25235W        W41044  14.236   1.576  11.388  0.0087 -0.2873  0.0953
25236W        W41045   3.425   3.432   2.298  0.2298 -0.2437  0.0160
25237W        W41046  12.834  13.007  14.641 -0.1351 -0.2951  0.0718
25238W        W41047   5.545   8.177   0.660  0.4651  0.1530  0.1285
25239W        W41048   6.921  12.830   5.722 -0.1169  0.1600 -0.3087
25240W        W41049  13.617   9.819   0.269  0.0578  0.1685 -0.3618
25241W        W41050  14.233   0.627   4.423 -0.0244 -0.1091 -0.2658
25242W        W41051   4.747   2.180  14.314  0.2602  0.0484 -0.4294
25243W        W41052   1.723   5.380   5.257  0.2058  0.0015 -0.0270
25244W        W41053   0.963  13.815   4.403  0.6242 -0.0195  0.1140
25245W        W41054   4.117   6.351  11.727  0.2560 -0.2132  0.2502
25246W        W41055  15.038  11.898   0.605  0.1399 -0.2488  0.0423
25247W        W41056   9.949  12.429  15.204 -0.1669 -0.1823  0.0220
25248W        W41057   3.923  15.475   4.162 -0.0185 -0.0019  0.1736
25249W        W41058  10.437  17.857  12.808  0.3495  0.2790  0.3858
25250W        W41059   8.310  17.588  14.143 -0.1864 -0.2362 -0.0452
25251W        W41060   7.026  17.838   1.445 -0.0381  0.0971  0.0390
25252W        W41061  17.909  18.093   0.272 -0.1870  0.2318 -0.2166
25253W        W41062   5.888  15.968  14.607  0.3630  0.1362  0.1067
25254W        W41063   8.822   3.407  15.215 -0.1312  0.2430 -0.1773
25255W        W41064  12.143   8.436  11.533 -0.0842 -0.1398  0.3138
25256W        W41065   9.526  15.436   5.677 -0.0376  0.3356 -0.0108
25257W        W41066  10.225  13.443   1.777  0.1755 -0.2395 -0.1015
25258W        W41067   8.869   8.336  11.750  0.2412  0.5042  0.2699
25259W        W41068   5.885   3.044  10.122 -0.1080 -0.2892 -0.0597
25260W        W41069  14.958   6.852  14.747 -0.0486  0.0275  0.2208
25261W        W41070   1.555  18.802  14.880  0.0655  0.0187  0.0353
25262W        W41071   9.020  17.843  10.405 -0.3484  0.0684 -0.1515
25263W        W41072  16.367  12.307   5.595 -0.4404  0.1597 -0.1142
25264W        W41073  15.375   0.377  14.781  0.3014 -0.1649 -0.1809
25265W        W41074  17.635  14.119  13.188  0.0946 -0.0497 -0.0003
25266W        W41075  13.905   1.068   0.867 -0.2058 -0.0353 -0.0344
25267W        W41076   9.281   3.513  11.441 -0.0984  0.0378 -0.1840
25268W        W41077  19.010  15.877  12.493  0.3820  0.2004 -0.1012
25269W        W41078  16.471  16.846  11.309 -0.0129 -0.1758  0.2539
25270W        W41079  17.393   4.277   2.408  0.2087  0.1442  0.1845
25271W        W41080   7.174  10.131   2.844  0.2221 -0.1700 -0.0051
25272W        W41081   1.060   1.493  14.524  0.3296 -0.4851 -0.0769
25273W        W41082  18.070   3.658  14.507 -0.0906 -0.3672  0.0377
25274W        W41083  12.678  16.704  12.314 -0.0708 -0.1349 -0.2497
25275W        W41084  12.098   9.692  10.608 -0.1601  0.2418  0.1299
25276W        W41085  15.614  13.437   0.055 -0.2283 -0.0400 -0.1312
25277W        W41086   0.655   7.901  11.443  0.0070  0.2033  0.2623
25278W        W41087  15.418  17.711  14.426  0.3406 -0.1691  0.5310
25279W        W41088  17.554   0.930   0.458  0.3299 -0.1968 -0.0372
25280W        W41089   4.944   1.440   3.245 -0.3005 -0.1815 -0.1038
25281W        W41090   1.288   6.751   3.294 -0.0658 -0.0898  0.4153
25282W        W41091  15.074   5.375  13.954  0.2881  0.1429  0.0121
25283W        W41092   6.148  12.274  11.343  0.0829 -0.2425 -0.1683
25284W        W41093  18.148   7.396  11.478  0.0161  0.0914  0.0231
25285W        W41094  16.706  15.019   0.780 -0.1874  0.1500 -0.1168
25286W        W41095   1.580  12.816  12.237  0.0186  0.0683  0.0821
25287W        W41096  14.998   2.786  13.053 -0.0666  0.0850  0.2428
25288W        W41097  10.009   2.840   0.085 -0.0115 -0.1389  0.3905
25289W        W41098   2.660  12.668   3.087  0.1578  0.0958  0.0536
25290W        W41099   4.340  10.506   3.229 -0.0670  0.1654  0.3892
25291W        W41100  15.622   2.730   0.233 -0.0653 -0.2594  0.2602
25292W        W41101   4.146  19.136  14.813 -0.2321  0.0803  0.3512
25293W        W41102  11.531  18.720   2.772  0.0222 -0.0890 -0.2142
25294W        W41103  14.323  19.030   0.283  0.1690 -0.2954 -0.4706
25295W        W41104  14.388  18.367   4.918  0.1096 -0.1167  0.1549
25296W        W41105  16.623  10.137  14.071 -0.1645  0.0671  0.0067
25297W        W41106  18.017  14.062   0.454  0.0157  0.1582 -0.1186
25298W        W41107   6.256   9.086  12.657 -0.3655  0.1369  0.1566
25299W        W41108   7.321  15.980  10.605  0.3790 -0.2295 -0.0370
25300W        W41109   3.182   1.243   1.326  0.1667 -0.0566 -0.0751
25301W        W41110  16.609  15.472  11.756  0.1825  0.1330 -0.1842
25302W        W41111   5.498  10.133   2.290  0.4966 -0.0482 -0.1695
25303W        W41112   1.322  10.791   3.660  0.0228 -0.2125 -0.1634
25304W        W41113  17.803   0.130   0.857  0.1749 -0.3661  0.2859
25305W        W41114  12.682  18.032   1.235 -0.1004 -0.1409  0.2329
25306W        W41115  16.152   6.913   4.355  0.0546 -0.1933  0.2213
25307W        W41116  15.628  13.270  10.847 -0.3081  0.0335 -0.3424
25308W        W41117  18.833  11.123   1.562  0.0288  0.0750 -0.0237
25309W        W41118   0.063  15.943   4.394  0.1431 -0.3405  0.0649
25310W        W41119   4.533   9.834   2.963 -0.3040 -0.1168 -0.0030
25311W        W41120  14.588   7.802   3.184 -0.0181 -0.0764  0.1585
25312W        W41121   2.468   7.966  13.175 -0.2118 -0.1442  0.2664
25313W        W41122   0.909   9.493  14.695 -0.1093 -0.0618  0.0002
25314W        W41123   0.584   1.912   1.579 -0.3134  0.0502 -0.2368
25315W        W41124  18.579  15.645  13.205  0.2496  0.2877  0.0135
25316W        W41125  16.929   8.907   1.769  0.0551 -0.1505 -0.3346
25317W        W41126   2.954  16.825   3.505 -0.0570 -0.0001  0.1181
25318W        W41127   9.634   6.575   0.275  0.1118  0.0212  0.1763
25319W        W41128   0.791   3.096  11.881 -0.2761 -0.0146 -0.0211
25320W        W41129   4.104   0.019   9.746 -0.2062  0.3397  0.3224
25321W        W41130  12.771  10.786  15.150 -0.0816  0.1207 -0.0164
25322W        W41131  18.049   3.516  12.991  0.6355  0.0010 -0.0735
25323W        W41132   9.899   5.384   2.315 -0.3467 -0.1876 -0.1141
25324W        W41133   8.541   4.827   1.201 -0.2484 -0.0929 -0.2254
25325W        W41134  10.946  11.387   5.907  0.0882  0.3222  0.1948
25326W        W41135  11.627   4.157  11.272  0.0886  0.0827 -0.1927
25327W        W41136   7.651  18.600  10.383 -0.1185 -0.1955  0.2161
25328W        W41137  17.154   3.376   2.589  0.0536 -0.0677  0.0963
25329W        W41138  13.529  16.042   5.810 -0.0572  0.1835  0.0943
25330W        W41139  15.311  10.916   0.649  0.2186  0.0922  0.1883
25331W        W41140  18.053  11.664  11.006  0.2747  0.0281  0.2228
25332W        W41141  17.841   6.938   1.748 -0.3420 -0.2284  0.1574
25333W        W41142   3.134  13.582  14.293 -0.0084 -0.1644 -0.1686
25334W        W41143  12.130  14.017  10.988 -0.1252  0.0941 -0.0012
25335W        W41144  16.284  16.835   0.161  0.0990 -0.1315 -0.2551
25336W        W41145   8.195  19.012  13.077 -0.0429 -0.2724  0.1473
25337W        W41146   5.826  10.158   1.915 -0.0565  0.1061  0.1455
25338W        W41147   2.031   9.422  13.020 -0.2108 -0.0439  0.1507
25339W        W41148   3.395  11.289  11.030 -0.2105  0.2621 -0.1108
25340W        W41149  10.261   8.205  14.325 -0.3359  0.0405 -0.0670
25341W        W41150   1.243  14.678  13.163 -0.2926 -0.2450  0.1103
25342W        W41151   2.270   7.065   3.839  0.0968 -0.2017 -0.1532
25343W        W41152   4.496   5.889   3.836 -0.0475 -0.1805 -0.2915
25344W        W41153  17.688   3.164   5.683 -0.0148 -0.2206 -0.2960
25345W        W41154   8.096  13.525  11.603 -0.2183 -0.1671  0.0939
25346W        W41155  10.067  13.914   1.760 -0.1518 -0.6117  0.5729
25347W        W41156   7.082  10.572   0.144  0.0990  0.0197  0.0802
25348W        W41157  18.853   0.127   4.105 -0.0831  0.0356 -0.0171
25349W        W41158  13.728   3.087   4.691  0.0585 -0.1020  0.1820
25350W        W41159   5.052  10.219   2.510  0.0774 -0.1319 -0.0845
25351W        W41160   7.278   9.326  14.658  0.3251 -0.1274 -0.0360
25352W        W41161  17.055  11.812  14.418 -0.2010  0.1040  0.1425
25353W        W41162  15.816   1.591  14.360  0.3898  0.0909 -0.0020
25354W        W41163  12.889   8.282  14.129  0.3568 -0.2565  0.0226
25355W        W41164  14.494  17.098  12.017 -0.2231 -0.0184  0.0983
25356W        W41165   2.818  14.536   2.020 -0.0857 -0.1809 -0.2701
25357W        W41166  16.832  12.362   4.685  0.0810 -0.0960 -0.2508
25358W        W41167  10.459  14.914  10.239 -0.2514 -0.0663  0.1363
25359W        W41168  11.037   9.496   3.439 -0.1045  0.2536  0.1456
25360W        W41169   1.138   0.544   1.444 -0.2514 -0.1765 -0.1566
25361W        W41170  17.731   9.583  12.327  0.1421  0.5007 -0.2322
25362W        W41171  19.144  11.404  11.436 -0.1368  0.0478  0.2458
25363W        W41172  13.645  15.683   0.018 -0.2387 -0.2399  0.1042
25364W        W41173  13.431  11.897  11.936 -0.0635 -0.0948 -0.1658
25365W        W41174  16.303   1.022   5.765 -0.0839  0.0874  0.0277
25366W        W41175   1.623   8.446  12.849  0.2671 -0.2800  0.0666
25367W        W41176  17.455  16.951  14.793  0.2456  0.0707 -0.1336
25368W        W41177   8.435   8.388   0.205 -0.1432 -0.2258 -0.0311
25369W        W41178  17.458   5.429  14.771 -0.0840 -0.3240  0.0734
25370W        W41179   8.280   6.444  14.546 -0.1449  0.1998 -0.1992
25371W        W41180  15.793   1.481   1.770  0.3255 -0.2186 -0.0510
25372W        W41181   2.762  17.947   2.694 -0.3621 -0.1010  0.3512
25373W        W41182  12.179   6.443  14.872  0.0527 -0.2769  0.1919
25374W        W41183  15.816   9.923   1.160 -0.3740 -0.0057  0.2470
25375W        W41184   8.670  13.308  14.643  0.0124 -0.0272 -0.0841
25376W        W41185   9.252  14.236   0.282  0.0184  0.1215  0.2470
25377W        W41186   7.466   7.224  10.078 -0.3252  0.2482  0.2929
25378W        W41187   7.080  15.435   2.098  0.1552  0.2921 -0.0305
25379W        W41188   3.737   1.273   4.122  0.4204 -0.3108  0.0134
25380W        W41189   6.502  14.752   1.992 -0.1668  0.0583  0.0701
25381W        W41190   7.271  11.500   5.060 -0.4116 -0.0874  0.0442
25382W        W41191  14.381  11.360  14.764  0.2689  0.2763  0.2298
25383W        W41192  15.673  15.578   4.990 -0.0661  0.1050  0.0647
25384W        W41193  14.706   0.981  14.165 -0.0080  0.0067 -0.1968
25385W        W41194  11.418  17.477  15.139 -0.0898 -0.0638 -0.2658
25386W        W41195   4.040  12.439   9.865 -0.0075 -0.1949  0.0758
25387W        W41196  15.032  11.126   1.055 -0.2674  0.2481 -0.0197
25388W        W41197   0.194  13.637   2.265  0.3877  0.1520 -0.3226
25389W        W41198   9.988  12.276  12.178  0.1291  0.0616  0.2550
25390W        W41199  10.169   3.646  13.999  0.2284 -0.1039  0.0534
25391W        W41200  12.375  18.899  12.112  0.0406  0.0125 -0.1453
25392W        W41201  13.740  17.156   5.825  0.1609  0.1185 -0.0281
25393W        W41202  13.538   0.912   2.220 -0.1341  0.0194  0.0887
25394W        W41203  12.364   3.191  13.732  0.0177  0.0892 -0.0521
25395W        W41204  14.378  18.227   5.535 -0.2939  0.2177 -0.2618
25396W        W41205  12.463   8.318   1.336 -0.2452  0.0116 -0.0604
25397W        W41206  11.411   6.889   3.363  0.0950  0.0276  0.0262
25398W        W41207   8.803   1.970   2.251  0.1765  0.1401 -0.1559
25399W        W41208   0.036   8.197   2.852 -0.0255  0.0635 -0.0541
25400W        W41209  11.438  16.250  10.236 -0.0618 -0.0158 -0.0286
25401W        W41210   0.510   9.858  13.231  0.3062 -0.0456 -0.0588
25402W        W41211   6.507   1.881   1.812  0.2357  0.3114  0.3057
25403W        W41212   2.266   4.487   2.635 -0.0302 -0.0902 -0.0584
25404W        W41213   2.231   1.894   3.281  0.1675 -0.0170  0.2963
25405W        W41214  17.305  12.136   2.378  0.1592  0.0451 -0.1848
25406W        W41215  17.351   2.340  10.889 -0.1723  0.0781  0.2604
25407W        W41216  12.966   2.015   1.782  0.3786 -0.0484  0.1689
25408W        W41217  10.670   4.819   4.292 -0.1298 -0.0371  0.1616
25409W        W41218  18.392  14.080  13.900 -0.2713 -0.0178 -0.1259
25410W        W41219   2.752   0.601   0.718 -0.1443 -0.2193 -0.0227
25411W        W41220  16.001   3.394  14.211  0.3418 -0.6534 -0.0181
25412W        W41221  10.321  12.029  11.898 -0.1426 -0.4290 -0.2053
25413W        W41222  17.885  14.705  11.581 -0.2265 -0.1035 -0.0265
25414W        W41223  18.258  17.456  11.648  0.1303  0.0354 -0.2130
25415W        W41224   7.497  12.959   4.407 -0.1429  0.0788  0.1394
25416W        W41225  13.909  12.300   2.151 -0.0041  0.1260 -0.4320
25417W        W41226   8.818   1.177  12.248 -0.1250 -0.0181 -0.1838
25418W        W41227   4.306   4.589  12.354 -0.4045 -0.5608 -0.0015
25419W        W41228   2.395  14.690  11.679 -0.0612 -0.0519  0.1926
25420W        W41229  14.091  11.395  10.817 -0.3115 -0.2310 -0.1356
25421W        W41230  12.547  15.681   1.966 -0.1133 -0.0103 -0.1128
25422W        W41231   1.808  15.893  12.187  0.0378 -0.1087  0.0281
25423W        W41232  16.861  15.011   0.250  0.2757  0.0643 -0.2083
25424W        W41233   7.519  17.334   2.454  0.1045  0.1575  0.0600
25425W        W41234   9.425  13.514  13.404  0.0817 -0.0316  0.1155
25426W        W41235  14.475   4.644   5.087 -0.1460 -0.3861  0.1865
25427W        W41236  18.521   7.849   3.189 -0.3090  0.6611 -0.2265
25428W        W41237   7.726   3.411   3.586 -0.0880  0.2477  0.1769
25429W        W41238   0.237  14.780   2.876 -0.3203  0.0394 -0.2095
25430W        W41239  18.166   2.949   1.346  0.2077 -0.0487 -0.0350
25431W        W41240  10.243  16.134   3.954 -0.0539  0.2025  0.2519
25432W        W41241   3.636   9.574   4.143  0.1924 -0.1551 -0.3299
25433W        W41242  15.796   5.542  11.497  0.3195 -0.2895  0.2290
25434W        W41243  13.883   9.597   2.676 -0.0497  0.0859  0.2355
25435W        W41244   9.809  18.424   1.117  0.1315  0.1719  0.0284
25436W        W41245  10.874   3.923   0.435 -0.1335 -0.0508  0.1839
25437W        W41246   0.807  12.659   1.676 -0.1021  0.2353 -0.1004
25438W        W41247   9.663   2.296   4.579  0.1531 -0.1471  0.0175
25439W        W41248   6.882   9.724   3.068 -0.2168  0.0235 -0.1825
25440W        W41249   8.986  16.986  12.330  0.2613 -0.2529 -0.3206
25441W        W41250  13.938  18.423   3.695  0.1912  0.1607  0.0782
25442W        W41251  16.829   3.305   1.404  0.2188 -0.1857  0.2323
25443W        W41252   0.638   7.459  11.270 -0.1660 -0.1565 -0.1004
25444W        W41253   4.242   3.718   2.781 -0.2117  0.1866 -0.0550
25445W        W41254  14.914  15.196   4.038 -0.0709  0.0980  0.0585
25446W        W41255   1.465  10.927   1.756  0.0298  0.4225  0.0927
25447W        W41256  10.429   6.570  11.367 -0.0233  0.0864 -0.2749
25448W        W41257  13.923  18.433   4.647  0.3605 -0.0470  0.0508
25449W        W41258   0.820   1.630  14.050 -0.1341 -0.1578  0.2070
25450W        W41259   7.897  10.473   3.622  0.1994 -0.0298 -0.2008
25451W        W41260  16.754  15.579   2.380  0.0293 -0.1615 -0.1407
25452W        W41261   2.440  14.138  13.696  0.0255  0.2753 -0.0690
25453W        W41262   8.802   2.728   3.286  0.2335 -0.2886  0.1309
25454W        W41263  10.719   6.849  15.100  0.0045  0.1881  0.0847
25455W        W41264  11.453   6.226  10.662 -0.0616  0.0805 -0.1913
25456W        W41265   3.025   1.918   9.507 -0.1340  0.1117  0.1185
25457W        W41266   1.105  16.325   2.508 -0.1768 -0.2867 -0.4074
25458W        W41267   6.958   0.472  13.050 -0.0268 -0.0586 -0.0221
25459W        W41268  10.630  11.054  11.870  0.0912 -0.2668  0.0164
25460W        W41269   9.715   3.677  14.258 -0.2056  0.1203 -0.0800
25461W        W41270   0.328   2.655  14.796  0.1358 -0.0960 -0.0748
25462W        W41271  17.073  15.443  11.466 -0.0573 -0.0725 -0.1357
25463W        W41272  11.611  18.398   4.983  0.0744 -0.2701 -0.0498
25464W        W41273   3.205  12.732   3.020  0.0933 -0.0116  0.0596
25465W        W41274   9.999   5.541  12.858 -0.1032 -0.0474 -0.4368
25466W        W41275  12.529  14.118  11.679 -0.2695 -0.0290 -0.2958
25467W        W41276   6.147  11.150   2.757  0.1099  0.0280  0.0287
25468W        W41277   5.325  13.138   0.665  0.0367 -0.0114 -0.1259
25469W        W41278  14.188   2.004   3.740 -0.1197 -0.0994 -0.0334
25470W        W41279   9.226  14.585   3.149 -0.4017 -0.2866  0.1923
25471W        W41280  11.952   8.029   4.304 -0.0541 -0.0515  0.2526
25472W        W41281  15.226  17.008  12.386 -0.1548  0.3647 -0.0129
25473W        W41282   4.519   2.731   1.402  0.2991 -0.2718 -0.2025
25474W        W41283   8.529   0.520  10.079 -0.5453 -0.2120 -0.0430
25475W        W41284   9.135  16.991  10.842  0.1504 -0.1024 -0.0574
25476W        W41285  17.523  10.839  10.949 -0.0908 -0.0593  0.4382
25477W        W41286  18.431   9.574   2.369  0.0536  0.0577  0.0449
25478W        W41287   2.287   6.799   1.385  0.2622  0.0337 -0.2408
25479W        W41288  10.062  13.990   0.741  0.2559 -0.2697  0.0406
25480W        W41289  16.924  16.474  14.345  0.0211 -0.3261  0.0619
25481W        W41290  18.517  15.841  10.019 -0.1254  0.0061 -0.2054
25482W        W41291  11.244   2.418   0.869 -0.1820  0.1718  0.1350
25483W        W41292   9.556   4.380   3.608  0.0312 -0.3385  0.0947
25484W        W41293  13.693   5.413   4.546 -0.0520  0.1561  0.1418
25485W        W41294   6.518   5.919  13.643 -0.2472 -0.0114 -0.1798
25486W        W41295  17.724  16.040  14.709  0.3190  0.2372  0.1162
25487W        W41296   2.761   7.812  12.018 -0.0867  0.3494 -0.3673
25488W        W41297  12.789  18.261   5.363 -0.0363  0.0279 -0.0992
25489W        W41298   2.378   8.899  10.547  0.1263 -0.1469 -0.1982
25490W        W41299  16.808  15.112  14.095 -0.0268  0.2462 -0.2167
25491W        W41300   0.482   3.454   4.058 -0.3558  0.5693  0.0538
25492W        W41301  14.081  13.278  12.556 -0.2373 -0.0542 -0.1081
25493W        W41302  13.065  15.160  13.888 -0.1100  0.1662 -0.0677
25494W        W41303   0.842   5.185   1.081 -0.3748 -0.0304 -0.0282
25495W        W41304   6.913   6.530   4.247  0.3046  0.1240 -0.2392
25496W        W41305   9.321   5.222   3.058  0.0253 -0.0009 -0.0135
25497W        W41306  15.371   2.324   1.848 -0.2986 -0.1329  0.0719
25498W        W41307   4.082   7.763  14.100 -0.1814  0.0447 -0.0931
25499W        W41308  18.431   7.589   0.782  0.0718  0.1577 -0.1249
25500W        W41309   4.133   6.295  14.599 -0.1503 -0.0225  0.0584
25501W        W41310   8.509   2.942   1.654 -0.1637  0.0504  0.1112
25502W        W41311   8.515   1.683  14.980 -0.2788 -0.0366  0.1656
25503W        W41312  18.450  18.339   2.152 -0.3584  0.0589  0.1656
25504W        W41313  12.959   6.436   0.028 -0.1021 -0.1221 -0.0399
25505W        W41314   9.234  17.111   0.889  0.2466  0.2978 -0.1467
25506W        W41315  17.101  14.209  12.201  0.0695  0.3064 -0.0201
25507W        W41316   1.483   4.354  13.645 -0.3431  0.0023 -0.0892
25508W        W41317   4.471   5.508  12.610  0.0132  0.4772  0.2140
25509W        W41318   1.339   5.296  11.591 -0.3896 -0.2256 -0.0608
25510W        W41319  13.335  11.708   9.803  0.3773  0.2954 -0.0740
25511W        W41320   0.000   1.328   0.893 -0.0346 -0.0171  0.1485
25512W        W41321  13.835  14.730   6.068 -0.2035 -0.1252 -0.0718
25513W        W41322   4.579  16.978   1.695  0.0459  0.3065 -0.3633
25514W        W41323  17.558  10.147   2.100  0.0074 -0.1700  0.1023
25515W        W41324   8.590   8.775   2.721 -0.3004 -0.0557 -0.1372
25516W        W41325   8.536   8.392   2.290 -0.1185 -0.0841 -0.2699
25517W        W41326   9.305   8.561   2.913  0.0770  0.2043  0.0533
25518W        W41327  17.818   0.317  13.486  0.3645 -0.3637 -0.1524
25519W        W41328   6.658  12.005   3.892 -0.1283  0.1782 -0.2589
25520W        W41329   6.122  13.232   2.211  0.1257 -0.0822 -0.0469
25521W        W41330   7.295   0.449   4.354  0.0545  0.0861 -0.1976
25522W        W41331   4.015  17.263  14.599  0.0519  0.0578  0.1374
25523W        W41332  13.817  13.753  14.279  0.1533  0.2002 -0.3367
25524W        W41333  16.945  19.122  13.037  0.1898 -0.0304 -0.0367
25525W        W41334  11.831   2.891   0.124  0.1086  0.2108  0.3694
25526W        W41335  17.357  10.689   4.326 -0.1380  0.0778 -0.3536
25527W        W41336  12.076   4.842   0.557 -0.3773  0.3392  0.0453
25528W        W41337   6.783  15.255  11.435  0.1190  0.0906  0.0617
25529W        W41338  11.999   9.770   0.935  0.0308 -0.2424 -0.2024
25530W        W41339   4.637   8.459   2.271 -0.0132 -0.1411  0.1688
25531W        W41340   7.293   3.397  13.737 -0.2642  0.2049  0.0892
25532W        W41341  16.560   1.992  14.163  0.0555 -0.1441  0.0972
25533W        W41342   4.227  12.775   3.634  0.1014  0.3312 -0.0722
25534W        W41343  17.594   7.522  12.494  0.0091  0.0384  0.3397
25535W        W41344  18.697  11.366   3.025  0.0559  0.0320 -0.2565
25536W        W41345  16.327   1.353   4.677 -0.0858  0.3054  0.1862
25537W        W41346  18.525   7.131   0.952 -0.0114  0.1505 -0.0956
25538W        W41347   5.483  18.268  14.584  0.0671 -0.1395  0.1722
25539W        W41348  16.910   9.439  13.126 -0.0150 -0.0963  0.1647
25540W        W41349  17.458  18.757  11.016  0.2228  0.1064 -0.1937
25541W        W41350   9.077  18.571  13.901 -0.0663 -0.0051 -0.1400
25542W        W41351   2.226   0.924  10.732  0.0034 -0.2078  0.0649
25543W        W41352   5.018   6.836  14.929  0.0284 -0.2182  0.0006
25544W        W41353  18.710  17.353   2.084 -0.1406  0.0144 -0.0698
25545W        W41354  11.637  18.981   4.800 -0.3220  0.0456  0.0221
25546W        W41355  13.073   8.363   9.042  0.2371 -0.0983  0.0653
25547W        W41356   2.050   3.970  10.196 -0.1071  0.2770 -0.0797
25548W        W41357   3.557  14.925  10.362 -0.0082  0.1469  0.0163
25549W        W41358   2.685   1.681   2.832  0.1983 -0.3057  0.0052
25550W        W41359   3.175  18.783   2.961 -0.1924 -0.1268 -0.2942
25551W        W41360   3.210  11.433  13.009  0.0494  0.0739  0.3163
25552W        W41361   4.337  11.148  11.208 -0.0314 -0.0578 -0.0194
25553W        W41362  10.579  13.220   1.251  0.0145  0.3077  0.2114
25554W        W41363   9.339  12.288  10.043 -0.1479  0.0439 -0.0966
25555W        W41364   0.611  10.111  14.862  0.2067  0.0591 -0.0156
25556W        W41365   9.420   9.657  12.794 -0.0358  0.3021 -0.1943
25557W        W41366   7.828   2.048   1.694 -0.1790 -0.0207  0.3633
25558W        W41367  13.737  19.037   2.925 -0.1125  0.1915  0.2362
25559W        W41368  18.442  18.022  11.136 -0.2738 -0.2646  0.0737
25560W        W41369   4.375   5.128  12.157 -0.1681 -0.0818  0.0204
25561W        W41370   2.978  14.947   3.284 -0.1394  0.1387 -0.1375
25562W        W41371   2.040   8.928  11.366 -0.4042 -0.0848  0.4603
25563W        W41372   3.910   8.267  14.782  0.2870 -0.1594 -0.0577
25564W        W41373   8.992  15.231   2.608  0.1568 -0.2367 -0.1950
25565W        W41374   6.248  16.372  12.010 -0.1655 -0.1351 -0.1250
25566W        W41375  13.880  18.812  11.885 -0.2914 -0.2779 -0.1643
25567W        W41376  10.130   9.699   1.363  0.0873 -0.0216 -0.0500
25568W        W41377  10.509   6.625   0.666 -0.0050 -0.0690  0.3060
25569W        W41378   0.207   9.114   0.711 -0.0469  0.0438  0.2835
25570W        W41379   5.569   9.987  14.996  0.1080 -0.3562 -0.2279
25571W        W41380   8.525  14.592   0.449  0.0570  0.0325 -0.1896
25572W        W41381   5.351  13.724  12.261  0.0375 -0.0868  0.1355
25573W        W41382   5.529  16.535  15.203 -0.2657  0.0663  0.4411
25574W        W41383  15.543   7.471   1.375 -0.0429 -0.1793  0.0247
25575W        W41384  10.318  15.358  14.367 -0.0596  0.0718  0.1315
25576W        W41385  10.655  10.678  13.052 -0.3095 -0.3399  0.2979
25577W        W41386   5.983   5.164   1.344 -0.1920 -0.2452 -0.1513
25578W        W41387   9.664  13.733   0.073  0.2645  0.1800  0.1353
25579W        W41388  16.500  16.397  12.785  0.0866  0.2544 -0.3579
25580W        W41389  11.160   8.303   0.991  0.3777  0.0442 -0.1396
25581W        W41390  17.217  14.617   0.116 -0.0873  0.1561 -0.2850
25582W        W41391   9.459  15.264  11.480 -0.1342  0.4086  0.3473
25583W        W41392  12.123  18.771   4.461  0.0355  0.3993  0.1249
25584W        W41393  12.057   5.091   9.177 -0.1158  0.0728  0.0538
25585W        W41394   1.699   8.778  13.356  0.0558  0.0068 -0.4037
25586W        W41395  18.872   2.729  13.097  0.1630 -0.1817 -0.0437
25587W        W41396  13.808  17.385  12.429 -0.3278  0.2216 -0.1937
25588W        W41397  12.803  16.253  11.610 -0.0500 -0.1559 -0.0923
25589W        W41398   0.876  13.043   3.133 -0.2388  0.2076 -0.0418
25590W        W41399   7.327  19.034   4.103  0.0045 -0.1064  0.0118
25591W        W41400  11.448   0.097  14.907 -0.2428 -0.0374  0.0418
25592W        W41401  15.322   8.814   4.697  0.1058  0.0496 -0.1063
25593W        W41402   4.853  18.953   4.398  0.4032  0.0549  0.0162
25594W        W41403   2.786   2.048  11.555  0.0886 -0.0207 -0.0156
25595W        W41404   0.188  16.414   0.249 -0.1229  0.1294 -0.1284
25596W        W41405  18.136  13.201  11.062  0.2656 -0.2191 -0.2169
25597W        W41406   3.868   4.402  15.091  0.0495  0.3491  0.1981
25598W        W41407   5.348   7.996   2.845 -0.0721  0.0026  0.0580
25599W        W41408  16.627  16.247   4.969  0.0390 -0.0191  0.1224
25600W        W41409   8.743  10.122   4.000  0.1658  0.3123  0.1078
25601W        W41410   4.508  14.777  12.493 -0.2681  0.6408 -0.0011
25602W        W41411  10.771   7.386  14.735 -0.2888  0.2376  0.0326
25603W        W41412  17.078  15.701  10.087 -0.0554  0.4216  0.0070
25604W        W41413   2.288   0.883  11.264 -0.1697 -0.1091  0.2292
25605W        W41414   5.483  11.503   4.122 -0.0934  0.2287 -0.1037
25606W        W41415   4.394  17.402  14.933 -0.2150  0.0993  0.0306
25607W        W41416  15.030   2.882  11.458 -0.0971  0.1139  0.3150
25608W        W41417  18.451   9.032   0.907  0.0951 -0.1467  0.1012
25609W        W41418   7.163   8.234  14.001  0.2007 -0.1445  0.1354
25610W        W41419   1.639  15.326   3.127  0.1364 -0.4390 -0.4834
25611W        W41420   3.630   2.582   9.409  0.0131 -0.1254  0.1657
25612W        W41421   3.955  12.676   4.479  0.1985 -0.3519  0.1725
25613W        W41422   3.931   7.717   4.528  0.2048  0.1349 -0.1724
25614W        W41423  16.615   8.817   0.414 -0.2644  0.2514  0.0667
25615W        W41424   4.685  14.660  13.523 -0.1321 -0.3198 -0.3050
25616W        W41425   5.920  11.287   4.013  0.1813  0.1136  0.0966
25617W        W41426   6.661   2.529  13.062  0.1774 -0.0293  0.2839
25618W        W41427  11.019   3.005  12.743  0.3518  0.0289  0.2333
25619W        W41428  15.386  11.954   0.982 -0.2005 -0.6119 -0.4241
25620W        W41429   9.876   9.202   2.575  0.0756 -0.2234 -0.1406
25621W        W41430  11.038   2.854   0.418  0.0724 -0.0740 -0.3803
25622W        W41431   7.632  16.962   4.603 -0.0359 -0.3671 -0.1916
25623W        W41432   0.064  10.361   1.185 -0.2728  0.3099  0.1270
25624W        W41433   8.222  15.945  10.363  0.0214 -0.4187  0.1726
25625W        W41434   1.530  15.671   4.194  0.1285  0.0558  0.3075
25626W        W41435  16.834   7.759   3.102  0.1387  0.1578 -0.0436
25627W        W41436   2.262   6.025  10.820  0.1498  0.0378 -0.0416
25628W        W41437   5.400  11.060   2.213 -0.0241 -0.0199 -0.0621
25629W        W41438  14.080   2.519  14.897  0.2658 -0.3460  0.3386
25630W        W41439   2.261   7.502  13.801  0.1346  0.0213 -0.1021
25631W        W41440  12.911   8.891  14.041  0.0292  0.0560 -0.0898
25632W        W41441   1.549  16.384   2.242 -0.0454  0.0919 -0.0114
25633W        W41442  10.121   7.211   1.158 -0.3993 -0.1175 -0.1368
25634W        W41443  12.228   9.353   2.680  0.0752  0.0782 -0.1399
25635W        W41444   5.059  16.913   4.171  0.0382 -0.0892 -0.1979
25636W        W41445  12.998  18.217   0.549  0.1475  0.0536 -0.0575
25637W        W41446  15.162  15.378  10.347  0.3281 -0.2419 -0.0438
25638W        W41447  14.767   5.443  12.406  0.2861  0.4145  0.2120
25639W        W41448   1.768   9.063   1.596 -0.1860 -0.3295 -0.0498
25640W        W41449  17.011   5.849   0.291  0.2393 -0.2023  0.3685
25641W        W41450  16.345   3.193   5.986 -0.0712 -0.0418 -0.1443
25642W        W41451  15.400   1.445   2.652  0.0994  0.0239  0.1145
25643W        W41452   9.680   5.063   3.368 -0.0071 -0.0870 -0.0606
25644W        W41453   4.814  13.509   3.356  0.0736 -0.0559 -0.1624
25645W        W41454  11.538   2.120   3.795 -0.2270  0.0709  0.0094
25646W        W41455   2.614   4.417   2.211  0.0996  0.3110 -0.0403
25647W        W41456   8.538   0.631  14.599 -0.1656  0.1062  0.1071
25648W        W41457  14.129  18.109  13.060  0.3407  0.0990 -0.2151
25649W        W41458   1.952   7.415   2.100  0.2200  0.1011  0.1044
25650W        W41459   0.665   3.674  14.883  0.0951  0.2838  0.3808
25651W        W41460  14.808  18.378  13.007 -0.3838 -0.1944  0.0686
25652W        W41461   9.126  12.968   0.114 -0.0661 -0.2882  0.1975
25653W        W41462   8.276  15.071   0.470  0.3011  0.1415 -0.0979
25654W        W41463  10.068   4.611  10.009  0.0721  0.2221  0.1468
25655W        W41464   1.848  12.785   1.370  0.2068  0.0444 -0.1972
25656W        W41465  14.814   1.082   5.565  0.0337  0.2333  0.1330
25657W        W41466   4.353   3.289  13.759 -0.0411 -0.0490  0.0692
25658W        W41467  12.994  13.937   4.373 -0.0355 -0.1950  0.0735
25659W        W41468  13.066   3.671   4.213  0.2259 -0.2171  0.2177
25660W        W41469  12.467   0.325   1.905 -0.0271 -0.1905  0.0865
25661W        W41470  14.493  18.009   2.473  0.2255  0.1432  0.0611
25662W        W41471  18.796  10.121   4.248 -0.1565 -0.3889 -0.2428
25663W        W41472  12.920   3.725  11.193 -0.6125  0.0519  0.1079
25664W        W41473  16.738   1.754   4.989  0.1694 -0.0530  0.2952
25665W        W41474  10.761  11.023  12.720 -0.1820  0.3689 -0.3950
25666W        W41475   5.194  17.788   2.500 -0.0020  0.0930 -0.0119
25667W        W41476  15.152  16.549   2.273  0.2632  0.0208 -0.2603
25668W        W41477   1.557   2.343  12.666 -0.2775 -0.2164  0.3735
25669W        W41478  11.317   1.711  12.140  0.0972 -0.0656 -0.3252
25670W        W41479   5.491  18.050   0.968 -0.3107  0.1121  0.0915
25671W        W41480   7.407   7.429  11.375  0.1555  0.0744 -0.1057
25672W        W41481   4.677   0.943   4.063  0.0845 -0.1828  0.2262
25673W        W41482   4.428   5.068   3.878  0.0326 -0.4721  0.0789
25674W        W41483   3.895  16.510   5.387  0.0615 -0.1337 -0.1011
25675W        W41484   3.361  12.336  12.081  0.1030  0.0211 -0.0432
25676W        W41485   5.208  18.626  12.344  0.0650  0.1417 -0.1843
25677W        W41486  15.175  14.594  10.176 -0.1567 -0.1805  0.3275
25678W        W41487  14.703   8.793  12.609 -0.0230 -0.0033  0.2846
25679W        W41488  17.032   2.752  11.089  0.1207  0.0761 -0.0108
25680W        W41489   0.178  19.075   0.066 -0.3454  0.3090  0.3123
25681W        W41490  15.897  17.388  12.887  0.0726  0.0599  0.1743
25682W        W41491  13.831  13.998  14.758  0.1375  0.0427 -0.1727
25683W        W41492  10.454   2.208  13.291 -0.0630 -0.1915  0.1212
25684W        W41493  18.052   8.204  12.552 -0.1916 -0.1158  0.1526
25685W        W41494  15.524  11.889   0.493  0.2830 -0.0552  0.2468
25686W        W41495  17.300  17.170   4.633  0.0113 -0.0616  0.3023
25687W        W41496  16.248   0.403  14.303 -0.0078  0.1179 -0.0019
25688W        W41497  17.438  11.100   3.509 -0.1819  0.2067  0.1031
25689W        W41498  13.317   2.508  12.335 -0.1618  0.5555  0.0664
25690W        W41499   9.119   5.674  11.764  0.2037 -0.0153 -0.1293
25691W        W41500  17.565  10.448  12.074 -0.2038 -0.1669 -0.0969
25692W        W41501   1.983   4.436  14.879 -0.1721  0.2887  0.1960
25693W        W41502   1.852  14.632   4.930  0.3777  0.1919  0.1148
25694W        W41503   1.463   5.877   1.531  0.1617  0.1174 -0.2208
25695W        W41504  11.178  10.440   5.346 -0.3337  0.2398  0.1156
25696W        W41505  15.939   2.387   3.730 -0.1394  0.2313 -0.2043
25697W        W41506   1.054  10.627   0.886  0.3322  0.4437  0.0811
25698W        W41507  17.439   9.697   5.203 -0.0853 -0.1456 -0.0011
25699W        W41508   1.264   4.253   3.751 -0.2932  0.0938  0.0972
25700W        W41509   9.235  11.211  11.746 -0.0965  0.0762 -0.0933
25701W        W41510   3.407   7.482  14.469 -0.0251  0.0223  0.1070
25702W        W41511   0.446   5.630   4.353 -0.0015 -0.0427 -0.0586
25703W        W41512   1.932  11.250   9.824 -0.0374 -0.2306  0.0509
25704W        W41513   9.665  10.061   4.403  0.4148 -0.2182 -0.0120
25705W        W41514  16.622  15.819   3.687  0.0037 -0.2966 -0.0345
25706W        W41515  13.294   2.328   1.918 -0.0035  0.3233  0.1006
25707W        W41516   4.416   2.080   3.133  0.3070 -0.0338  0.2292
25708W        W41517  12.357  17.289  11.287 -0.0846  0.2142  0.3663
25709W        W41518  12.517  18.905  13.789  0.0206 -0.0261  0.1544
25710W        W41519  15.034   8.675   5.296  0.1600 -0.3561 -0.0104
25711W        W41520  12.959   7.741   0.544  0.1633  0.1135 -0.1920
25712W        W41521  16.645  10.354  13.265 -0.0753 -0.4305  0.4098
25713W        W41522   0.009  11.645  12.516 -0.0599  0.0391  0.0417
25714W        W41523  15.604   2.782   3.056 -0.0492 -0.0563  0.1049
25715W        W41524  14.801   3.643  11.262  0.1521 -0.0188 -0.0887
25716W        W41525  12.590  10.170   1.616  0.0898 -0.3110  0.0009
25717W        W41526  13.209  12.056   3.303 -0.0404  0.1520 -0.2666
25718W        W41527   4.738  13.368   5.579 -0.2769 -0.0936 -0.1028
25719W        W41528  11.261   6.776   1.867  0.0075 -0.1565  0.2118
25720W        W41529   1.837  17.570  11.112 -0.1104 -0.4304 -0.1437
25721W        W41530   7.271   9.458   4.110  0.2258 -0.1449 -0.0489
25722W        W41531  11.167   7.963  10.473  0.0104  0.3975 -0.0440
25723W        W41532  17.958   6.478   1.320  0.1289  0.0286 -0.1930
25724W        W41533  10.238   4.917  11.096  0.1849  0.2099  0.0785
25725W        W41534  18.483   6.608  11.948  0.3445  0.2813  0.0860
25726W        W41535   3.196  15.895   2.846  0.0577 -0.3399 -0.3644
25727W        W41536   3.571   7.548   1.152  0.1476  0.1597 -0.3588
25728W        W41537   6.765   0.408  11.263 -0.3813 -0.0367 -0.3436
25729W        W41538  11.234   4.265   2.008 -0.2091  0.1693  0.0993
25730W        W41539  14.288  12.051  12.055 -0.1755  0.0965 -0.0736
25731W        W41540  16.671  18.008   1.641 -0.2282 -0.0619 -0.0114
25732W        W41541  10.067   2.405   0.784  0.2030 -0.2555  0.0500
25733W        W41542   9.915  18.633  13.336  0.1144  0.0794  0.0513
25734W        W41543  18.023  10.645  14.467  0.3687  0.2132  0.0716
25735W        W41544  18.011   9.796  14.243 -0.3360 -0.0512 -0.1665
25736W        W41545  15.748   1.828  14.786 -0.1580  0.0745  0.2933
25737W        W41546   1.123   6.158   5.108  0.1089  0.0177 -0.2576
25738W        W41547   8.766   8.087  13.259  0.1353 -0.1134 -0.0061
25739W        W41548  10.907  14.148   4.358 -0.3746 -0.2625 -0.2599
25740W        W41549   4.756  14.606   1.820 -0.0375  0.0584 -0.0979
25741W        W41550   2.702   8.930  10.196 -0.0075  0.0056  0.1731
25742W        W41551  13.981  13.719   4.920 -0.1532  0.3091 -0.0846
25743W        W41552   2.456  16.011   2.290 -0.0205 -0.2047 -0.3299
25744W        W41553  17.554   8.992  12.471  0.0972 -0.0153  0.2005
25745W        W41554  16.505  18.817   2.894  0.0494  0.1997 -0.0758
25746W        W41555   9.904   5.709  12.336 -0.0320  0.2273 -0.0613
25747W        W41556   0.342  14.259  13.639 -0.0536 -0.0208  0.0984
25748W        W41557  17.909   9.262   3.613 -0.0884  0.1297 -0.1014
25749W        W41558  11.704  17.385  13.945  0.1202 -0.0156 -0.3904
25750W        W41559  17.234   7.915  12.796  0.0272  0.0457 -0.1785
25751W        W41560   6.688   6.851  10.258 -0.1191 -0.1825  0.3835
25752W        W41561   7.935  15.494  15.012 -0.1575 -0.2201 -0.0060
25753W        W41562   1.837  14.884   2.939 -0.1624  0.2156 -0.2113
25754W        W41563   4.079  13.695  14.036  0.1213 -0.0061 -0.1621
25755W        W41564  10.967   1.461   5.047 -0.0602 -0.3247 -0.1149
25756W        W41565  15.444  14.720  14.131  0.0321  0.0860  0.0098
25757W        W41566   5.992  14.810   0.332  0.1987 -0.1531 -0.0571
25758W        W41567  14.549   8.832   2.164 -0.1631 -0.0918 -0.0007
25759W        W41568  15.278  10.276  13.517 -0.0097 -0.3081 -0.1651
25760W        W41569  18.245   5.536   1.638  0.2102 -0.0428 -0.5051
25761W        W41570  17.525   8.791   0.144  0.1380 -0.1207  0.2823
25762W        W41571   9.004   0.522  13.112  0.3695 -0.0131 -0.1248
25763W        W41572  16.279  11.193   1.755  0.2590 -0.3704  0.1682
25764W        W41573  18.942   2.520  14.641 -0.0812 -0.0587  0.0978
25765W        W41574   2.606   6.740  13.736  0.0531  0.2475  0.1744
25766W        W41575   8.979  16.968  11.597  0.1804 -0.1343 -0.1070
25767W        W41576  18.987   7.240   4.570 -0.3700 -0.0025 -0.3132
25768W        W41577   0.576  13.304  10.671  0.2149  0.1156 -0.0582
25769W        W41578  11.651  11.503   5.183 -0.2287 -0.1962 -0.1425
25770W        W41579   8.125   1.828  14.405  0.0579  0.0158 -0.2359
25771W        W41580   6.752   6.059  10.953  0.2683  0.1519  0.1108
25772W        W41581   5.674  11.497  10.560  0.2027 -0.1607  0.2834
25773W        W41582  11.167  13.882  13.585 -0.1024 -0.1130 -0.0535
25774W        W41583   2.519  13.033  14.254 -0.2729 -0.0186 -0.3958
25775W        W41584   3.413  16.005   3.806 -0.0571  0.2465 -0.1302
25776W        W41585  10.832   5.899   0.013  0.3457  0.1356  0.2045
25777W        W41586  10.535   0.436   3.133 -0.0600  0.2830 -0.2315
25778W        W41587   0.882  11.586  13.723  0.3087 -0.2229  0.1106
25779W        W41588   7.869  10.657   0.202  0.2859 -0.1730 -0.2686
25780W        W41589   4.497  16.263   0.925 -0.1362  0.0227 -0.0054
25781W        W41590   6.726  13.302   9.648 -0.0787 -0.1031 -0.0721
25782W        W41591  14.509   4.890  13.151 -0.0054 -0.3896  0.0865
25783W        W41592   8.144   4.338   5.018  0.2238 -0.3977  0.1008
25784W        W41593   7.260  16.617  13.825 -0.1793 -0.0222 -0.0180
25785W        W41594   7.250  14.629  12.677 -0.0364 -0.1653 -0.2838
25786W        W41595   2.178  11.668   9.811  0.0926  0.0854 -0.1212
25787W        W41596   1.981   2.089   0.777  0.0182  0.0668  0.0046
25788W        W41597  12.329   0.232  14.684  0.1241  0.0617  0.1314
25789W        W41598  12.186   6.017  10.069 -0.1904  0.2629 -0.1231
25790W        W41599   4.155  15.323   3.304  0.1897  0.3119 -0.1238
25791W        W41600  18.190   1.898   4.175  0.2580  0.0265  0.2500
25792W        W41601   3.277   6.632  14.576 -0.0403  0.1823  0.1623
25793W        W41602   3.219   5.409   2.006  0.2365  0.0047  0.1299
25794W        W41603   9.252  12.683   3.798 -0.4630 -0.0697  0.1849
25795W        W41604   7.999   9.991  11.806  0.1649 -0.0652  0.2234
25796W        W41605  18.081  15.202   2.079 -0.0165 -0.0660  0.2732
25797W        W41606   6.647  16.442   0.093  0.2917 -0.0959  0.3084
25798W        W41607   6.454  14.058   9.787  0.2655  0.0938 -0.1107
25799W        W41608  12.080   8.347  14.330  0.0982  0.2665  0.2264
25800W        W41609  18.649   3.595  13.809 -0.2687 -0.0518 -0.1152
25801W        W41610   1.631  16.147  10.944  0.1196 -0.2873  0.0398
25802W        W41611  18.569  18.604  11.208  0.0254 -0.3078 -0.1087
25803W        W41612  12.629   1.009  14.420  0.3293 -0.0023  0.1299
25804W        W41613   5.287  14.161  13.772  0.1068 -0.0625 -0.2114
25805W        W41614  13.994  17.565   4.753 -0.0064 -0.2817  0.2574
25806W        W41615  11.758   5.545  15.182  0.2285 -0.2829  0.1736
25807W        W41616  15.965   6.555  10.880  0.1508 -0.1551  0.3769
25808W        W41617  12.997  16.153  12.545  0.1790  0.1969 -0.0362
25809W        W41618  17.844   9.505  11.278 -0.3004  0.2320 -0.2026
25810W        W41619   1.115  11.933  11.902  0.2134  0.3999 -0.0554
25811W        W41620   1.852  18.203   2.683  0.3408  0.0214  0.0634
25812W        W41621  11.151  16.890   1.852 -0.0322 -0.0415 -0.0195
25813W        W41622  14.032  18.176   1.477 -0.0838  0.1919 -0.3090
25814W        W41623   7.808  13.558  13.265 -0.2298  0.1989  0.2290
25815W        W41624  13.549   1.313  12.727  0.0754  0.4290 -0.0703
25816W        W41625  11.788  17.509   4.675 -0.2065  0.1614  0.3429
25817W        W41626   2.711  13.147   4.552 -0.2259  0.1072 -0.0148
25818W        W41627  16.714   2.667   4.955  0.1242  0.0141  0.0099
25819W        W41628  12.070  18.384   5.203 -0.3305  0.0734 -0.1833
25820W        W41629   1.178   8.269  11.665  0.1581  0.0674  0.3873
25821W        W41630   6.249   1.548   3.769 -0.1997  0.2186 -0.4091
25822W        W41631  11.750   0.719  11.502  0.1140  0.0780 -0.0032
25823W        W41632  11.798   1.130   5.896  0.1302 -0.1789 -0.0074
25824W        W41633  11.028   0.324  12.625 -0.0451 -0.3410 -0.0467
25825W        W41634   2.488  11.490   3.659  0.0092  0.1277 -0.0053
25826W        W41635   1.214  17.906   0.983 -0.3390  0.0735  0.1847
25827W        W41636   5.661   7.575  14.982 -0.1010 -0.1035  0.0711
25828W        W41637   4.562   5.616  13.593 -0.0756 -0.1890  0.2227
25829W        W41638   1.839  17.954   0.255 -0.0343  0.0820 -0.3102
25830W        W41639   9.894  16.120   2.441  0.1503 -0.0538  0.2796
25831W        W41640  11.601   6.653  12.352 -0.0011 -0.0524  0.2043
25832W        W41641  18.045   8.389  13.574  0.3300  0.2901 -0.1608
25833W        W41642  11.709  17.177   4.288 -0.1305  0.1691 -0.1618
25834W        W41643  11.550  17.540   0.431 -0.2386 -0.1428  0.0990
25835W        W41644  16.976   6.332  10.915 -0.2283 -0.0745  0.3134
25836W        W41645   6.215   7.662   1.571  0.0031 -0.0839 -0.0854
25837W        W41646  19.075   6.393   1.428  0.0825  0.1375 -0.1211
25838W        W41647   0.715  18.232   5.955  0.1439  0.3491 -0.0314
25839W        W41648  14.075  14.961   2.987 -0.0017 -0.1515 -0.1003
25840W        W41649  14.500   0.201  14.047 -0.1143  0.3522  0.1229
25841W        W41650  14.680   6.781  13.654  0.0651 -0.0197  0.3513
25842W        W41651   4.906   3.380  14.632 -0.2347 -0.0868 -0.1055
25843W        W41652  13.305  17.150   0.283 -0.1542  0.0999 -0.3007
25844W        W41653   4.108   7.381   1.479  0.1028  0.0313 -0.1366
25845W        W41654   3.001  13.378  13.452 -0.1778 -0.4996 -0.4492
25846W        W41655   8.103  13.751   3.307 -0.1531  0.3582 -0.2282
25847W        W41656  17.570  13.397  12.581  0.1518  0.3576 -0.3118
25848W        W41657   5.785   7.738  14.116 -0.1589 -0.0160  0.1218
25849W        W41658   8.030   0.648   9.915 -0.0406  0.0024 -0.1616
25850W        W41659   7.425  18.463   0.849 -0.1665  0.1182 -0.0276
25851W        W41660   2.207   0.589  14.955 -0.1208 -0.2443  0.3374
25852W        W41661   2.119  13.669  11.884 -0.3126 -0.1700 -0.1588
25853W        W41662   6.405  17.346   2.104 -0.0493  0.2542  0.2268
25854W        W41663  15.352  12.751   4.899  0.0743 -0.1606  0.3866
25855W        W41664  10.236   3.937  11.241 -0.3492 -0.5313 -0.1765
25856W        W41665   6.097   1.700  14.131  0.1484 -0.1290 -0.1151
25857W        W41666  11.524  13.123  14.539  0.2162  0.0475 -0.2083
25858W        W41667  17.695   1.408   1.767  0.0842 -0.1606  0.1180
25859W        W41668  12.939   3.562   2.315  0.1486  0.3886  0.1440
25860W        W41669   6.578   3.979  13.841 -0.1286  0.0856  0.1256
25861W        W41670  17.817  14.573   0.561 -0.1254  0.1228  0.0036
25862W        W41671   8.287   2.661   5.905  0.3167  0.4007  0.1375
25863W        W41672   2.997   9.952   1.051  0.0167 -0.2199  0.2549
25864W        W41673  14.638   8.236   3.398  0.1958  0.0513  0.0308
25865W        W41674   3.369  14.523  15.084  0.2551 -0.2829 -0.1148
25866W        W41675   9.748   1.633   9.578  0.0255 -0.0269 -0.1362
25867W        W41676  12.239   1.045   3.782  0.0314  0.0979 -0.2480
25868W        W41677   2.249  16.936   3.329 -0.1603  0.1626 -0.0052
25869W        W41678   7.807  11.951  14.294  0.2462 -0.0988 -0.2613
25870W        W41679   8.346   5.117  11.232 -0.1719 -0.0459 -0.0708
25871W        W41680   5.562  12.058  12.043 -0.0815 -0.0373 -0.0872
25872W        W41681   8.967   4.118   4.413 -0.3401 -0.0658 -0.4333
25873W        W41682  16.114  13.235   1.845 -0.0504 -0.0606  0.1163
25874W        W41683   5.761  13.061   4.878  0.2310  0.2623  0.0133
25875W        W41684  14.595   4.210   3.489 -0.1603  0.0610 -0.0494
25876W        W41685  11.238  17.542   4.752 -0.1027 -0.1624  0.1221
25877W        W41686  18.989  13.155  12.176 -0.0159 -0.3559 -0.0677
25878W        W41687  12.396  11.910  14.942 -0.3227 -0.0614  0.3221
25879W        W41688  17.520   0.608  12.724  0.0138  0.2557 -0.1978
25880W        W41689   1.432  12.924   1.078 -0.0133 -0.1902 -0.1974
25881W        W41690  14.305   9.726   4.445 -0.2447 -0.1230  0.3223
25882W        W41691  14.999   3.285   4.696  0.2077 -0.2941 -0.2734
25883W        W41692   3.409  17.638  15.026 -0.3192 -0.0928 -0.0089
25884W        W41693  10.652  15.876  12.425 -0.1341 -0.0388  0.0478
25885W        W41694   5.130  11.941   5.469  0.1809  0.1630 -0.0555
25886W        W41695  12.709  19.023   2.108 -0.2138  0.2216 -0.1506
25887W        W41696   5.460   5.993  13.752 -0.1739  0.1035 -0.1228
25888W        W41697  10.121   3.429  10.456 -0.1378 -0.1569 -0.1539
25889W        W41698  18.136   0.489  14.572  0.1207  0.1460 -0.2086
25890W        W41699  16.941   1.626   1.429 -0.1999 -0.1787  0.0878
25891W        W41700   9.137   8.084   2.877 -0.0207  0.2027  0.3610
25892W        W41701   7.339  11.488   2.832 -0.2297  0.2074 -0.1827
25893W        W41702   5.975  15.054   3.292  0.1182  0.1803  0.0693
25894W        W41703   5.874  13.093   1.273 -0.0519 -0.0644  0.0464
25895W        W41704   8.051   5.682   3.011  0.0025  0.1765  0.1893
25896W        W41705  15.504  14.302  10.991 -0.1342 -0.2709 -0.1123
25897W        W41706   4.657   1.763  10.367  0.3496 -0.3949 -0.3004
25898W        W41707   6.169   1.283   0.749 -0.1947 -0.0196 -0.0991
25899W        W41708  11.856   8.763  13.615  0.0196  0.1374 -0.1512
25900W        W41709   3.876   4.426  14.590 -0.1680  0.1654  0.2712
25901W        W41710  17.719  18.210   1.673  0.3177 -0.0478 -0.1249
25902W        W41711  10.932  10.613   1.207 -0.1770 -0.2248  0.0499
25903W        W41712   3.184  12.838  12.673  0.0085  0.2255 -0.1418
25904W        W41713   8.374   5.196  12.372  0.0579 -0.0581 -0.1423
25905W        W41714  18.394   6.718   4.051 -0.1969 -0.1306 -0.0407
25906W        W41715  10.873   5.054   5.571  0.1581 -0.0168  0.1020
25907W        W41716   7.526  10.945   1.091 -0.1622 -0.2779 -0.1080
25908W        W41717  18.372  13.831   0.619 -0.1508 -0.0811 -0.3596
25909W        W41718   1.358   0.759   4.088  0.1320 -0.0577 -0.2855
25910W        W41719  16.745   9.363  12.308  0.1116 -0.0158 -0.2762
25911W        W41720   8.478   4.715   3.158  0.0840  0.0423  0.1765
25912W        W41721   2.238  16.534  11.663  0.3962  0.2269 -0.0444
25913W        W41722   5.673  12.470  12.943  0.2803  0.2441 -0.2353
25914W        W41723  13.951  16.109   0.247 -0.0463  0.0809 -0.0613
25915W        W41724   3.213  18.853  14.941 -0.1407 -0.0989  0.1151
25916W        W41725  17.228   7.858   5.044 -0.1218  0.4426  0.0010
25917W        W41726   2.398   4.578   3.263 -0.0311 -0.0919 -0.0831
25918W        W41727   9.271   3.472  10.383 -0.2069  0.3450  0.0206
25919W        W41728   4.673  10.983   4.242  0.0569 -0.1475 -0.0823
25920W        W41729   5.353   4.920   3.683  0.2270 -0.2810  0.0840
25921W        W41730   8.127  15.280  13.272  0.2926  0.4036  0.0173
25922W        W41731   1.849   4.157   4.111  0.1718  0.2823  0.0303
25923W        W41732  14.618  14.783  10.914  0.1078 -0.0084 -0.0697
25924W        W41733  19.094  13.964   0.239  0.2947 -0.1772 -0.0243
25925W        W41734   8.609  14.233   4.195 -0.0805 -0.2495 -0.1348
25926W        W41735   9.238   8.649   2.030 -0.1051 -0.1590 -0.0157
25927W        W41736   1.838   8.332  10.966 -0.2611 -0.1306 -0.0190
25928W        W41737   3.861  10.564  14.287  0.1373  0.1713 -0.0365
25929W        W41738   0.186   2.025   3.358 -0.0711  0.0745  0.0004
25930W        W41739   6.091  18.466  14.740 -0.1141  0.2206  0.1448
25931W        W41740  14.085   0.648   3.345  0.0522 -0.0961 -0.0723
25932W        W41741   5.606  17.360  11.174  0.1917 -0.2207 -0.0457
25933W        W41742  14.675  12.060   3.827 -0.0012 -0.0073 -0.0018
25934W        W41743  15.981  18.793   5.533  0.2102 -0.0239 -0.0638
25935W        W41744  13.331  12.489   5.325  0.0492 -0.1498 -0.1928
25936W        W41745  13.537  10.941   1.052 -0.3201 -0.0466 -0.1225
25937W        W41746  15.769   6.227   1.829  0.1496 -0.0155 -0.5316
25938W        W41747  15.733  14.063   4.015 -0.0371 -0.3121 -0.2014
25939W        W41748   6.557  11.742   4.485 -0.0022 -0.3724  0.1213
25940W        W41749  12.467   9.425   4.583  0.0757  0.1417 -0.0307
25941W        W41750  17.260   3.904  12.916 -0.0255 -0.0019 -0.0582
25942W        W41751   0.996   9.292   2.315 -0.0458 -0.1879  0.0212
25943W        W41752   2.562  11.801  14.186 -0.1566 -0.0628  0.0997
25944W        W41753   8.375   1.417   2.693 -0.2343  0.2470 -0.0218
25945W        W41754   5.103   7.639  15.017 -0.0603  0.2607  0.1400
25946W        W41755  13.780   4.323   3.597  0.1173 -0.1723  0.1150
25947W        W41756  14.171  18.585  15.126 -0.3115 -0.1183  0.0218
25948W        W41757   3.364  15.567   1.003  0.2437 -0.2986 -0.3174
25949W        W41758  10.660   5.918  13.519  0.3633  0.1535 -0.1757
25950W        W41759   6.899  15.729   0.350  0.2694 -0.2032  0.0486
25951W        W41760   2.020  15.349   4.089  0.4569 -0.0665 -0.0270
25952W        W41761   7.288   4.601   2.840 -0.1374 -0.2850  0.0411
25953W        W41762  14.042   3.577   3.188  0.1600  0.3250 -0.0853
25954W        W41763   0.034  16.463  11.665  0.1465  0.0631  0.2511
25955W        W41764   2.943   0.089   2.226 -0.0617  0.1483  0.2332
25956W        W41765   2.054   3.463  10.343  0.0263 -0.0869 -0.0194
25957W        W41766   9.142  14.674  11.825  0.0264  0.0555  0.0042
25958W        W41767  17.088   3.217   4.002  0.2772 -0.4614  0.0510
25959W        W41768   1.076  12.444   4.017 -0.0388 -0.2950 -0.1871
25960W        W41769  10.830  11.782   4.879  0.0076  0.1370 -0.0902
25961W        W41770  10.983   8.211  10.102 -0.1311  0.0804 -0.1017
25962W        W41771   2.766  16.949  14.349 -0.2403  0.3081 -0.0639
25963W        W41772  13.377   2.579   3.975  0.0433 -0.1939  0.2198
25964W        W41773  12.391   7.163   0.460 -0.0680  0.3759  0.0087
25965W        W41774  14.090   6.727  11.926 -0.1887  0.2523  0.2767
25966W        W41775   5.229  13.348   3.588  0.1671  0.0931 -0.0397
25967W        W41776  11.820  11.455  11.190 -0.2521  0.0090  0.1820
25968W        W41777  14.409   6.971   0.278  0.1736 -0.1856 -0.3900
25969W        W41778   4.299   4.372  13.790  0.1361  0.3799 -0.0030
25970W        W41779   2.682   7.986  10.447 -0.0694  0.0125 -0.3052
25971W        W41780  16.302  11.339   0.281 -0.0347  0.0596  0.2641
25972W        W41781  13.503  15.196  13.283  0.0137  0.1905 -0.2207
25973W        W41782  12.370   2.646   1.487  0.2469  0.1770 -0.4814
25974W        W41783  13.218   1.566   3.559 -0.2551  0.0233  0.0791
25975W        W41784  13.057  11.241  15.120  0.2713 -0.0832  0.0276
25976W        W41785   1.036  17.533   3.227  0.2757  0.0945  0.2739
25977W        W41786  12.502  12.655  11.686  0.2792 -0.1514  0.1662
25978W        W41787   4.477   5.663  10.564  0.2739 -0.0522 -0.2989
25979W        W41788   9.691  14.190   1.518 -0.4179  0.0106  0.0832
25980W        W41789  12.958   2.720   4.442 -0.0706 -0.2087 -0.1847
25981W        W41790   0.815   3.631  11.028  0.0636  0.1422  0.0576
25982W        W41791  11.044  14.854  11.995  0.0065  0.1218 -0.1272
25983W        W41792  18.731  16.669   1.436  0.1382 -0.0756 -0.4536
25984W        W41793  18.036  11.181   0.115 -0.1747 -0.0922  0.0515
25985W        W41794   9.611  14.722  14.657 -0.1687 -0.1265 -0.1020
25986W        W41795   5.674  13.009   3.589  0.0557  0.2991  0.4537
25987W        W41796  12.536   9.345  12.203 -0.0004 -0.0170 -0.0299
25988W        W41797  12.398  16.071   2.460  0.0031 -0.1350 -0.2716
25989W        W41798   9.497  11.181   2.963 -0.1112 -0.0405  0.2666
25990W        W41799   7.863   7.871  14.474  0.0053 -0.2282 -0.0232
25991W        W41800  13.120  10.205   1.276 -0.3622  0.0317 -0.2689
25992W        W41801  13.248  18.850  14.528  0.0041  0.0686 -0.0741
25993W        W41802  12.052  13.867  11.945 -0.2952 -0.1633  0.2118
25994W        W41803  18.707   8.411   0.408  0.1954 -0.0555  0.0100
25995W        W41804  19.103   4.527  10.365  0.1887 -0.4289  0.0821
25996W        W41805   7.205  10.839   5.155 -0.2196  0.4590  0.0939
25997W        W41806   9.899  15.275   2.818 -0.3979 -0.3789 -0.4005
25998W        W41807   9.582   4.620   0.256 -0.0909 -0.2800 -0.1503
25999W        W41808   0.868   4.371   4.522 -0.1587 -0.3021 -0.0488
26000W        W41809  17.463   5.727  11.914 -0.0502  0.2454  0.1342
26001W        W41810   4.135   0.913   4.269 -0.2370  0.0869  0.1976
26002W        W41811   8.618   6.830  13.926  0.1033 -0.0775 -0.1107
26003W        W41812  15.901   4.460  10.655 -0.4593  0.0381 -0.3223
26004W        W41813  11.359  15.700   1.242  0.1782 -0.0477  0.1728
26005W        W41814   8.580  13.777  11.519 -0.1510 -0.2086  0.2693
26006W        W41815   6.330   1.827   4.824  0.3470 -0.0667  0.0763
26007W        W41816  15.481  12.406  11.208  0.1292 -0.1981 -0.2726
26008W        W41817  13.429   3.625  13.118  0.1873  0.1408  0.0426
26009W        W41818   7.082   4.707  12.015 -0.1166 -0.1381  0.0780
26010W        W41819   5.083   4.787  13.593 -0.1610  0.3091  0.0848
26011W        W41820  15.864  16.114  14.064  0.0163 -0.0979 -0.0230
26012W        W41821   3.901  10.087   1.582  0.3336  0.0814  0.0339
26013W        W41822  16.902  14.379   0.458  0.2470 -0.0173  0.2303
26014W        W41823  14.398  14.027   5.551 -0.2663  0.0035 -0.2213
26015W        W41824   8.769  12.926   3.313 -0.1107 -0.2673  0.0303
26016W        W41825   4.366  15.350   1.072  0.0169 -0.0006 -0.1169
26017W        W41826   0.031  18.334   5.213  0.3673 -0.0090  0.4214
26018W        W41827   1.217   3.690  10.701 -0.3153 -0.0858 -0.0090
26019W        W41828   9.644  11.718  13.345 -0.0156  0.2454 -0.0943
26020W        W41829  13.048   9.776  14.898 -0.0711  0.0529 -0.1688
26021W        W41830   0.812   6.771  11.861  0.0531  0.2152 -0.2499
26022W        W41831  10.742  17.866   0.728 -0.1287  0.4131  0.2366
26023W        W41832  15.728  15.042  12.917  0.1495  0.0949  0.5205
26024W        W41833  15.248  17.585   4.074  0.4306 -0.2972 -0.0629
26025W        W41834   5.539  17.246  13.720 -0.0549 -0.1494 -0.2104
26026W        W41835  17.993  13.525  13.182  0.1248 -0.2162 -0.1564
26027W        W41836   0.570   4.972  11.713  0.2034 -0.1788  0.0570
26028W        W41837  10.541   5.744  12.381 -0.4075  0.1598  0.2600
26029W        W41838  14.657   1.330  12.786 -0.1533  0.1815 -0.0459
26030W        W41839  13.834   4.488   0.148  0.1474 -0.2700 -0.2314
26031W        W41840   1.767   3.687   0.299  0.2404  0.0486  0.0343
26032W        W41841   4.199  15.864  11.448  0.2132  0.1157 -0.0901
26033W        W41842  17.942   7.709  10.608 -0.1190 -0.1689  0.3754
26034W        W41843   0.411   1.208  13.339 -0.3144  0.2143  0.1024
26035W        W41844  10.838  17.478   3.740  0.0968 -0.3693  0.2003
26036W        W41845   3.565  17.342  14.424 -0.1798  0.0991 -0.1617
26037W        W41846   7.747   5.987   1.313 -0.1008  0.0396 -0.2993
26038W        W41847  14.291  15.729   2.040  0.1707 -0.2428  0.0843
26039W        W41848  11.012   2.676   1.236 -0.0922 -0.1966  0.1043
26040W        W41849   0.795   6.474   1.773  0.0982  0.0964  0.0657
26041W        W41850  12.768   0.168  12.073 -0.1740 -0.2732 -0.0963
26042W        W41851  12.638   9.471  14.904 -0.3106 -0.0338  0.0813
26043W        W41852  16.996  13.906   0.674 -0.2848 -0.2240 -0.2453
26044W        W41853  14.754   5.835   2.149  0.1348 -0.1767 -0.1294
26045W        W41854  17.223  10.942  15.095  0.0660 -0.1795  0.2553
26046W        W41855  14.576   7.734  13.355  0.0407 -0.2389  0.2031
26047W        W41856  12.052  18.963   0.708  0.2821  0.1601  0.0904
26048W        W41857   6.085  13.370   1.717  0.1077 -0.1011  0.0794
26049W        W41858   2.554   8.841   2.233  0.2196  0.0801 -0.1419
26050W        W41859   4.291  10.985  12.304  0.0813  0.2846  0.3177
26051W        W41860  13.160   0.689   2.914  0.0599  0.1048 -0.4274
26052W        W41861  13.681   0.147  14.641 -0.0300  0.1025 -0.1354
26053W        W41862   0.653   2.273  14.839 -0.1985 -0.0511 -0.1523
26054W        W41863  18.610  14.556   3.319  0.0549 -0.0884 -0.1760
26055W        W41864  16.420  13.835   2.300 -0.2220 -0.0584 -0.0279
26056W        W41865   8.289   6.434  13.994  0.2622 -0.3625 -0.2341
26057W        W41866  12.942   6.621   1.303 -0.1783  0.2316 -0.1899
26058W        W41867   7.716  11.460   4.792  0.1355  0.2995  0.1139
26059W        W41868   7.166   3.044   9.888 -0.0480  0.0991  0.1169
26060W        W41869  12.691  13.904  11.117 -0.0906  0.5899 -0.1942
26061W        W41870   4.569   0.929  13.680  0.3071  0.3048  0.0968
26062W        W41871  18.061   8.195   0.365  0.3270 -0.3532 -0.1309
26063W        W41872   4.798  18.300   5.134 -0.0463 -0.0309 -0.1617
26064W        W41873   2.402   4.176  12.029  0.4404  0.2481  0.3237
26065W        W41874   2.956  18.849   4.143  0.0202 -0.0347  0.0551
26066W        W41875   7.656   1.353  11.739  0.0125  0.0455 -0.0660
26067W        W41876  10.581  10.162   1.073  0.1894  0.0376 -0.0103
26068W        W41877   1.767  18.692  12.594  0.1967 -0.2411 -0.1703
26069W        W41878   7.357  14.416  13.230 -0.1343 -0.1453  0.2040
26070W        W41879   8.835   5.175  13.697 -0.0410 -0.3096  0.2494
26071W        W41880  15.462   1.195   4.584  0.2014 -0.0180 -0.2839
26072W        W41881  16.613   4.611  10.231 -0.0099 -0.0637 -0.2685
26073W        W41882  13.717  15.634   2.761 -0.1342 -0.0721  0.2164
26074W        W41883  13.811  12.838  13.362  0.0462 -0.1061  0.1741
26075W        W41884  14.181  15.008  11.104 -0.0797 -0.0195  0.0379
26076W        W41885  15.445  13.417   0.530  0.3246 -0.0336 -0.0657
26077W        W41886   7.608  15.465  13.859 -0.0367 -0.3622  0.1370
26078W        W41887   8.843  13.387  11.672 -0.2630 -0.0867 -0.1253
26079W        W41888  17.277  16.473   1.298  0.2535  0.0004  0.0629
26080W        W41889   4.500   7.701   0.849 -0.1075 -0.1986  0.2258
26081W        W41890   9.028  10.475   2.307 -0.0426 -0.1494 -0.1644
26082W        W41891  16.085   9.618  11.828  0.0011  0.1298  0.0385
26083W        W41892  13.112  13.570   3.221  0.2769 -0.1113  0.3201
26084W        W41893  11.107   9.912  11.271  0.1368 -0.2364  0.3080
26085W        W41894  18.688  12.860   1.001 -0.2520 -0.1124 -0.2964
26086W        W41895   2.417  16.555   3.751 -0.1673  0.3622  0.2427
26087W        W41896   6.492   1.976  14.570  0.1908 -0.1342 -0.2125
26088W        W41897   0.958  11.944  10.841 -0.2149 -0.4398  0.2835
26089W        W41898  15.254  11.889  13.662  0.0056  0.2620  0.0733
26090W        W41899   9.037  11.558  10.270 -0.0380 -0.0551 -0.0844
26091W        W41900   1.521  16.872  15.213  0.1388  0.1762 -0.3733
26092W        W41901   8.902   0.504   3.761 -0.1544  0.3137  0.1648
26093W        W41902   5.887   2.175   4.802  0.1587  0.1731  0.4300
26094W        W41903  15.717   2.082   4.111  0.0798  0.2979 -0.0999
26095W        W41904  16.479  16.134  14.614 -0.2841 -0.2338  0.0444
26096W        W41905  14.929  17.289   2.989  0.2189  0.3998  0.0799
26097W        W41906  17.793   7.709  11.576 -0.1206  0.0953 -0.0118
26098W        W41907  10.192   6.513  12.576 -0.0382  0.1609  0.1087
26099W        W41908   5.651  16.524   3.570 -0.1123 -0.0671  0.0442
26100W        W41909  10.631   7.585   0.569 -0.2301 -0.1845 -0.0290
26101W        W41910  10.641   8.503  11.344  0.3018  0.2702 -0.2034
26102W        W41911   1.097   5.990  12.400 -0.1986  0.0596 -0.0786
26103W        W41912   5.151   8.843  11.809 -0.1651 -0.0047  0.0721
26104W        W41913   8.414  11.591   3.723  0.3161  0.1019  0.1252
26105W        W41914   5.343   9.239  12.217 -0.1620 -0.1719  0.1524
26106W        W41915   7.666  10.304  13.673 -0.1597 -0.0148  0.0845
26107W        W41916   5.537  13.836  14.131 -0.3514 -0.1155  0.1199
26108W        W41917  13.027  18.490  10.920  0.1134  0.3288  0.1537
26109W        W41918  13.907  14.778  11.482  0.1709  0.0085 -0.0653
26110W        W41919   9.073   4.533  13.469 -0.2482 -0.2405  0.0962
26111W        W41920  10.919  14.717  13.749  0.0578  0.0335  0.0794
26112W        W41921  10.959  12.771   5.619  0.2813 -0.0979 -0.1188
26113W        W41922  14.055  16.969  14.038  0.1542 -0.1208 -0.4633
26114W        W41923   8.191  18.079  13.238  0.1698  0.0632 -0.0265
26115W        W41924  17.856  14.340   1.818  0.4675  0.0367 -0.4342
26116W        W41925   5.499  15.678   0.334 -0.3136 -0.1237 -0.1019
26117W        W41926  15.379  12.640   3.570 -0.0580  0.3834 -0.0681
26118W        W41927  12.794  15.697   5.193 -0.0641  0.3348  0.2426
26119W        W41928  11.246   5.287   0.071 -0.0360  0.1272 -0.2127
26120W        W41929   6.352  14.064  14.984 -0.1342  0.0646  0.2017
26121W        W41930  18.472  13.246   4.169 -0.2658 -0.0045 -0.0065
26122W        W41931  13.008   3.239  11.562  0.2963 -0.1491 -0.0513
26123W        W41932  10.125  18.347   5.090  0.2443  0.0548  0.4476
26124W        W41933   3.332  17.157  11.976 -0.0307  0.3268 -0.1490
26125W        W41934  14.023  17.641  14.882  0.3014 -0.1833  0.2155
26126W        W41935  10.916   6.682   9.821 -0.2658  0.0487 -0.1488
26127W        W41936  10.347   2.293  14.024  0.0473 -0.2274  0.1594
26128W        W41937  10.005  17.198  10.513  0.1428  0.2614 -0.3479
26129W        W41938   2.146  10.836   9.663  0.0015 -0.0104  0.2539
26130W        W41939   0.339  13.932  15.145 -0.0311  0.0385 -0.3079
26131W        W41940   4.773  12.722   9.732  0.2886  0.0118 -0.0706
26132W        W41941   4.371   0.172  11.210 -0.0528  0.1794  0.0850
26133W        W41942   1.876   9.320  14.327 -0.0612 -0.2174 -0.2269
26134W        W41943   8.866   9.566  11.663 -0.0441  0.3232 -0.0479
26135W        W41944   6.775  10.594  10.239  0.1118  0.5670  0.0692
26136W        W41945   7.006   6.195  11.828 -0.2404  0.2830  0.1683
26137W        W41946   4.560   8.940  10.348 -0.1345 -0.1430 -0.0097
26138W        W41947   7.025   9.959   1.178 -0.2065 -0.0443  0.0131
26139W        W41948   9.281   2.152   4.214  0.4458  0.0673 -0.0234
26140W        W41949  14.869   9.966   3.614 -0.0547  0.3125  0.5376
26141W        W41950   1.393  16.909   2.165  0.2302  0.0906 -0.0690
26142W        W41951  17.151   3.350   4.574 -0.0969 -0.1406  0.1190
26143W        W41952   0.389  13.283  12.296  0.1020 -0.1812 -0.5629
26144W        W41953   6.792  10.393   1.472  0.2423 -0.1140  0.3271
26145W        W41954   8.108   0.281   2.572  0.0216 -0.1551  0.2225
26146W        W41955   6.034   7.271  10.705 -0.0919 -0.1086  0.1252
26147W        W41956   1.963   0.097  10.870 -0.0152 -0.0120  0.3870
26148W        W41957  10.600   3.468   2.744  0.0443  0.2353  0.0266
26149W        W41958  12.125  16.417   1.692 -0.0710 -0.2501  0.4486
26150W        W41959  11.264   0.822  14.038  0.0685 -0.0125  0.0663
26151W        W41960  13.100  12.671   5.770  0.2045 -0.1333 -0.1289
26152W        W41961  12.371  18.351  12.032  0.4347  0.0458  0.0206
26153W        W41962  14.222  17.573   2.497 -0.1138  0.2905 -0.1532
26154W        W41963   4.830   6.346   3.624 -0.1331  0.1006  0.0022
26155W        W41964  13.260  17.031  14.725  0.2044 -0.4282  0.4447
26156W        W41965   3.497   6.634  13.309  0.1107  0.5394  0.2199
26157W        W41966  13.290  11.116   3.513  0.0986  0.0397 -0.1082
26158W        W41967  13.541   2.356  11.126 -0.4217  0.2531  0.2044
26159W        W41968   1.225  17.247   1.894 -0.4039 -0.3655  0.5225
26160W        W41969  11.229  11.482   0.504 -0.1707  0.2209 -0.1806
26161W        W41970   1.322  11.262  12.407  0.1999 -0.0812  0.1205
26162W        W41971  14.907  11.342   3.905  0.2289  0.2865  0.0873
26163W        W41972   4.025  14.836  12.597  0.0162  0.1949 -0.2774
26164W        W41973   9.189   7.369   0.234  0.2042  0.0126  0.0554
26165W        W41974   3.276  18.959  14.426 -0.0425 -0.3413 -0.1587
26166W        W41975  17.746   9.168   3.095 -0.2111 -0.0170  0.4760
26167W        W41976  16.541   9.216   4.003  0.4928 -0.0574  0.1072
26168W        W41977   0.018   1.023  11.724  0.1650 -0.2926 -0.0711
26169W        W41978  16.388   4.266  11.405 -0.2617 -0.0568 -0.2258
26170W        W41979  15.383   3.717   9.598  0.2294 -0.1306  0.2173
26171W        W41980   5.613   5.516   2.019  0.1961  0.1539  0.1201
26172W        W41981  12.862   7.205   2.635 -0.1127 -0.3077  0.1107
26173W        W41982   6.663  18.097   0.213 -0.3748  0.0030  0.2285
26174W        W41983   4.760   2.453   1.066 -0.3457 -0.0486  0.1982
26175W        W41984   8.697   7.484   1.630  0.1784 -0.2942 -0.4858
26176W        W41985  16.498   6.710  13.748  0.0280 -0.0395  0.1596
26177W        W41986  11.302   4.263  12.481  0.3358  0.1425  0.0063
26178W        W41987   0.971   5.254  13.457  0.1790 -0.1463  0.0029
26179W        W41988   9.058   8.439  10.993  0.5558  0.2594 -0.0933
26180W        W41989   1.326   3.772   3.856 -0.1316  0.0879 -0.0744
26181W        W41990  13.566   0.979  11.603 -0.2819  0.0764 -0.3451
26182W        W41991   7.472  15.345   1.732  0.0542  0.0817  0.2245
26183W        W41992  14.514   6.311  12.613  0.0753  0.0526  0.1887
26184W        W41993   5.100   1.011  13.693  0.5048  0.0995 -0.2593
26185W        W41994  10.424   8.670   2.546  0.1665 -0.2944 -0.0195
26186W        W41995  14.014   0.704  11.838 -0.3334  0.2516 -0.0431
26187W        W41996  18.105   0.203   4.508  0.1290  0.2152  0.1046
26188W        W41997   8.973  12.587  11.531  0.0411 -0.0990 -0.6987
26189W        W41998   8.690   4.945   5.351 -0.0469 -0.1017 -0.4327
26190W        W41999  13.222  13.889  13.458 -0.0937 -0.1309  0.3719
26191W        W42000  15.067  10.525  13.917  0.0387  0.0574 -0.0889
26192W        W42001  13.041  13.421   0.876  0.2218 -0.0119  0.0912
26193W        W42002   3.260   6.715  10.347 -0.3455 -0.0767  0.0812
26194W        W42003  13.245   6.098   3.508 -0.2345  0.4007 -0.2865
26195W        W42004   2.981   2.899   4.577  0.0385  0.1774 -0.0993
26196W        W42005   5.873  16.629  10.956  0.1318  0.0438 -0.4454
26197W        W42006   7.674   4.015  11.975 -0.2157  0.2516  0.0597
26198W        W42007   9.839   8.012   2.261  0.0680  0.2392 -0.3892
26199W        W42008  10.020   6.181   1.471  0.1457 -0.1066 -0.0590
26200W        W42009   4.509   8.413   1.526 -0.4398  0.5815  0.0382
26201W        W42010  18.316   2.937   2.358 -0.4762 -0.1670 -0.0974
26202W        W42011  13.268   3.899   0.707 -0.1242 -0.0931 -0.0021
26203W        W42012   6.870  18.304  11.772  0.0746 -0.0755  0.0328
26204W        W42013  10.950  14.723   5.808 -0.0643 -0.0898  0.4718
26205W        W42014  10.088   1.120   0.972 -0.1150 -0.0933  0.0514
26206W        W42015   6.944   3.904   1.215  0.2907  0.1608  0.1595
26207W        W42016   0.970   2.246   1.565 -0.0991  0.0943  0.2286
26208W        W42017   0.700  17.163  10.638 -0.1338  0.0951  0.1969
26209W        W42018   9.326   2.741   9.886 -0.1365  0.0722 -0.0143
26210W        W42019   1.092   0.014  14.396  0.1156 -0.1339 -0.4212
26211W        W42020   5.268   7.105  14.294  0.1934  0.0774 -0.4036
26212W        W42021  14.172  13.425  10.286  0.2296 -0.1128 -0.2238
26213W        W42022   4.469  10.440  14.314 -0.2110  0.0028  0.0744
26214W        W42023   1.266   6.142  11.059 -0.2145  0.1209  0.2452
26215W        W42024  11.763   4.125  11.787  0.1309 -0.3066  0.0119
26216W        W42025   9.271  13.848  14.392  0.1670 -0.3263  0.0020
26217W        W42026   9.284   9.190  11.536  0.1554  0.0011  0.0713
26218W        W42027   2.925  13.607   4.713  0.1375  0.0586  0.0068
26219W        W42028   6.306  18.515   3.566 -0.1261  0.0477 -0.1630
26220W        W42029   3.472  16.465   3.949 -0.0032  0.0359  0.0592
26221W        W42030   6.452   5.766   1.904 -0.1324 -0.0596 -0.3390
26222W        W42031   2.988  13.715   1.746 -0.2032 -0.2813 -0.2627
26223W        W42032  10.700  13.089  13.512  0.0582  0.2375 -0.1229
26224W        W42033   1.962   5.522   1.700 -0.2158  0.2739  0.2077
26225W        W42034   4.842   8.511  10.115  0.1030 -0.0515  0.2766
26226W        W42035   0.368  15.424  10.576 -0.1565  0.1291 -0.2579
26227W        W42036  13.165  17.724  11.940  0.0033 -0.3616  0.1787
26228W        W42037  11.991  13.413   0.995  0.0243 -0.1361 -0.3281
26229W        W42038  18.373  11.247  13.241  0.1399 -0.1047 -0.3430
26230W        W42039  15.445   3.017   4.817 -0.1582 -0.1837  0.3144
26231W        W42040  12.801   5.249  10.165 -0.0382  0.3453  0.1280
26232W        W42041   7.399  11.724  12.508 -0.0964 -0.2780  0.2624
26233W        W42042   2.549   7.785  14.080  0.0376 -0.3027  0.1989
26234W        W42043   0.823   3.559  11.579  0.0191  0.1384  0.0542
26235W        W42044   2.929   0.277   4.750 -0.0870 -0.2161 -0.2231
26236W        W42045  14.088   3.781   4.199  0.5410  0.1890  0.2684
26237W        W42046  11.132   7.624   0.381  0.0092 -0.0187  0.2791
26238W        W42047  17.870   0.831  12.438 -0.0725 -0.0938  0.1660
26239W        W42048   3.592   2.891  11.097 -0.0351  0.0745 -0.0815
26240W        W42049   2.232   8.617  10.972 -0.2003 -0.1099  0.1569
26241W        W42050  13.072   4.328   9.255  0.1354  0.1631 -0.0830
26242W        W42051   3.738   3.830  12.329 -0.1110  0.0016 -0.0959
26243W        W42052  13.792   7.581   1.079 -0.1394 -0.0051 -0.1796
26244W        W42053  17.102   7.675   4.464 -0.2575  0.2708  0.0365
26245W        W42054   4.921  17.438  13.470  0.2152 -0.0452  0.0218
26246W        W42055  14.841   6.503  12.364  0.1587 -0.1530 -0.2581
26247W        W42056   7.804  16.208  11.346 -0.0794 -0.1870  0.2267
26248W        W42057   4.139  11.010  13.296 -0.0246 -0.2513  0.1476
26249W        W42058  18.128   2.132  14.053  0.0231 -0.1603 -0.1003
26250W        W42059  19.070   0.843   4.168 -0.3583  0.2597  0.1715
26251W        W42060  15.660   7.958  12.759 -0.2334 -0.2123  0.0110
26252W        W42061   8.901   9.409   1.774  0.0093 -0.2127  0.0691
26253W        W42062  13.941  15.271  12.953  0.0783  0.0989 -0.2685
26254W        W42063   3.038  18.605   3.556  0.1843 -0.1108  0.3350
26255W        W42064   4.042   2.668   9.128  0.4121  0.0891  0.0327
26256W        W42065   8.337   6.991  11.641  0.0960 -0.1196  0.0673
26257W        W42066  15.263   9.332   4.848  0.0699  0.2189  0.2144
26258W        W42067  13.909   8.847  14.968 -0.1892 -0.1704  0.0328
26259W        W42068   0.849   8.407   1.541  0.1388 -0.4334  0.1255
26260W        W42069   9.415   9.355   0.929 -0.3205  0.1845  0.0778
26261W        W42070   9.799  15.091   0.459 -0.2576 -0.0433  0.2028
26262W        W42071   0.482   8.030   9.471  0.3010  0.1958  0.0030
26263W        W42072  10.388  18.078  10.472 -0.0176  0.1244 -0.1653
26264W        W42073  11.179  16.717  13.300 -0.3402  0.4005 -0.2613
26265W        W42074   0.950  12.588   0.672 -0.1566  0.0443  0.2663
26266W        W42075   5.178  14.712   0.971 -0.1163  0.1549 -0.2586
26267W        W42076  16.247  11.969   5.203  0.1132  0.0803 -0.3236
26268W        W42077  10.889  10.196   1.709 -0.0038  0.1895  0.1013
26269W        W42078  15.247   0.752  12.790  0.1188 -0.0183  0.1451
26270W        W42079  13.895   4.682  12.533 -0.0918 -0.0933  0.0869
26271W        W42080   9.718  12.440   4.010  0.0094 -0.0646 -0.0398
26272W        W42081   3.946  12.253   0.236 -0.1866 -0.5788 -0.1561
26273W        W42082   9.519  16.073   5.645  0.0579  0.0881 -0.3598
26274W        W42083   5.404  15.844  14.714 -0.1655  0.0358  0.1848
26275W        W42084   5.232   1.919  11.555 -0.0555 -0.0787 -0.0863
26276W        W42085  18.072  13.409   2.040 -0.1258 -0.2895 -0.2243
26277W        W42086  17.016   3.973  11.513  0.0213  0.1489 -0.2011
26278W        W42087   7.914   0.936  11.922 -0.1309  0.0528  0.1854
26279W        W42088   3.781   0.285   2.499  0.0967 -0.0196  0.0846
26280W        W42089  18.044   7.067  14.842  0.1648  0.1022 -0.0509
26281W        W42090   9.271  16.213  15.041 -0.4551 -0.1923 -0.5276
26282W        W42091   5.390  13.702   0.907  0.1631  0.3965 -0.1695
26283W        W42092  15.316   0.356  14.264  0.4353  0.1401 -0.0411
26284W        W42093   3.493   9.906  10.212  0.0773  0.4556 -0.2065
26285W        W42094   3.053  16.376  10.731 -0.3113  0.0908  0.3759
26286W        W42095   8.111   2.924  14.322  0.4160  0.2242  0.0394
26287W        W42096  17.722  18.419  10.648  0.1366  0.1955  0.0280
26288W        W42097  17.795  15.197  14.377 -0.0859  0.0615  0.0551
26289W        W42098  17.063  17.116   1.694 -0.0309 -0.0060 -0.1828
26290W        W42099   9.810  14.614   4.455  0.0887  0.2079 -0.3476
26291W        W42100   1.937  16.849  13.007  0.1297  0.0516  0.0630
26292W        W42101   6.799  14.862   0.723 -0.1167  0.4127  0.0791
26293W        W42102   2.135  12.108  11.075 -0.1279  0.0589  0.2883
26294W        W42103  17.884  19.093  13.167  0.2989  0.2442 -0.0269
26295W        W42104   0.914  16.031   0.940  0.2952  0.2735  0.0531
26296W        W42105   1.572   0.597   3.048  0.0984 -0.4114 -0.2375
26297W        W42106   6.099  18.436  11.396  0.0175 -0.0191  0.2625
26298W        W42107  17.284   4.498   3.160  0.1547  0.0463  0.1839
26299W        W42108  17.508   0.149   2.586  0.0380  0.1130 -0.1833
26300W        W42109  15.055  15.974  14.673  0.1261 -0.1300 -0.1118
26301W        W42110   7.412  18.185   2.925  0.5446  0.0868  0.0166
26302W        W42111  13.167  13.472   1.775  0.0589  0.1985  0.1169
26303W        W42112  10.637   3.714  10.714 -0.2088  0.2356  0.2052
26304W        W42113  17.027  11.914  15.079 -0.0811  0.1297  0.1000
26305W        W42114  11.620   4.332  14.573 -0.0284  0.1090 -0.0096
26306W        W42115   0.925  15.131   0.394  0.0445  0.3116  0.4228
26307W        W42116  17.875   1.452   0.831  0.2307 -0.2154  0.0647
26308W        W42117   5.374  11.436  12.401  0.1033 -0.1433  0.1189
26309W        W42118  16.468  14.621   0.513 -0.0423 -0.1076  0.0528
26310W        W42119   4.560   6.240   2.189 -0.1063  0.0156 -0.0155
26311W        W42120  10.789   3.678   3.147  0.4102 -0.0042  0.3166
26312W        W42121   3.155   6.769   3.263 -0.2039  0.0414  0.2232
26313W        W42122   1.024  15.043  10.787 -0.1235  0.1513  0.2420
26314W        W42123  10.302  17.806   5.060  0.2323 -0.0656  0.1220
26315W        W42124  13.526   4.136  12.454  0.1017  0.0343 -0.1164
26316W        W42125  16.542   2.785   1.288 -0.0566 -0.2107  0.0522
26317W        W42126   4.305  18.831   9.381 -0.2329 -0.0529 -0.1240
26318W        W42127  12.557  16.653   1.829  0.1257  0.1899 -0.0898
26319W        W42128   9.920   0.387  14.360  0.2568  0.0346 -0.0227
26320W        W42129   8.775   6.936  10.786  0.3846 -0.2531 -0.0085
26321W        W42130  13.488  11.531  10.968 -0.2635 -0.1984  0.0507
26322W        W42131  15.301  12.743  11.539 -0.1529 -0.0446 -0.2766
26323W        W42132   8.625  16.518   4.333 -0.1977  0.2039  0.0712
26324W        W42133   3.507  13.047   3.277 -0.0185  0.1403  0.1138
26325W        W42134   3.715   0.851   0.617 -0.2487  0.4180 -0.0884
26326W        W42135   4.148  17.903  11.961 -0.1149 -0.0459  0.0559
26327W        W42136  14.832   9.694   5.695 -0.1634  0.0183 -0.1837
26328W        W42137  15.089   4.206  12.881  0.0053 -0.2557  0.0150
26329W        W42138   9.283   8.717  12.815 -0.0125  0.0614  0.0573
26330W        W42139   3.681   2.275   3.597  0.2434 -0.0394  0.1961
26331W        W42140   9.066  16.798   1.828  0.2832 -0.2898 -0.0940
26332W        W42141   6.986  10.556   5.590 -0.1544 -0.0231  0.2410
26333W        W42142   1.052   5.773   2.401 -0.3831 -0.1933  0.1053
26334W        W42143  15.341  11.921  12.689  0.3371 -0.1166 -0.1577
26335W        W42144   6.741  13.814   4.185 -0.1348  0.1216  0.1035
26336W        W42145  18.913   5.467   3.968  0.0855  0.0414  0.0801
26337W        W42146   7.420  10.176   1.484  0.0078 -0.0560  0.1915
26338W        W42147   3.343   3.116   4.867  0.2458  0.0199  0.1320
26339W        W42148   4.722   7.640   3.694 -0.1251  0.0021 -0.2804
26340W        W42149   2.417   1.120  12.540  0.2688  0.0744 -0.0556
26341W        W42150  18.982   7.939  12.566 -0.2889 -0.0768 -0.0078
26342W        W42151   9.853   5.126  13.175  0.2804  0.0144  0.0166
26343W        W42152  14.904   9.062  14.172 -0.0166  0.2182  0.1791
26344W        W42153   2.405   5.154  13.877  0.3745 -0.0410  0.1055
26345W        W42154  10.102   4.242   3.086 -0.0825 -0.0061  0.1843
26346W        W42155  12.700   8.641   0.458  0.2936 -0.0695 -0.0167
26347W        W42156   6.628  10.633   2.350 -0.0803  0.1623  0.4481
26348W        W42157   6.521  13.992   4.614  0.0673 -0.3863  0.0660
26349W        W42158   8.245   0.541   4.203 -0.1300 -0.1233  0.0267
26350W        W42159  18.244   4.410  11.540 -0.1109  0.2470 -0.0739
26351W        W42160  13.167  10.757  13.792  0.3798 -0.1078 -0.4528
26352W        W42161   9.804  13.584  11.508 -0.1021  0.2056 -0.2215
26353W        W42162   7.599   2.186  10.612  0.1468 -0.2104 -0.0469
26354W        W42163   1.204   4.914   1.420 -0.2869  0.1360 -0.1640
26355W        W42164  14.468  18.613  14.663 -0.0426 -0.0284  0.0369
26356W        W42165  15.963   8.226   2.995  0.0818  0.1493 -0.1110
26357W        W42166   9.489  13.248   2.475 -0.0263  0.0198  0.2427
26358W        W42167  10.182   2.138  14.437  0.0500  0.0585 -0.0529
26359W        W42168   8.049   8.860   4.226  0.2604 -0.0264  0.0799
26360W        W42169   2.539  18.759  11.918 -0.1904  0.1958 -0.0422
26361W        W42170  18.427   9.414  12.212 -0.1630 -0.2117 -0.0750
26362W        W42171  10.858   1.898   3.157  0.3779  0.0436 -0.5730
26363W        W42172   0.982   8.911  13.935 -0.3074 -0.1271 -0.0978
26364W        W42173   8.202   5.714  10.920  0.3035  0.1140 -0.0946
26365W        W42174  18.430  11.733   4.847 -0.1198 -0.1378  0.2369
26366W        W42175  11.990   7.463   0.678  0.2053 -0.0992 -0.2189
26367W        W42176  11.751   7.264   4.153 -0.0564  0.4143  0.0341
26368W        W42177  16.120   2.936   3.113  0.0444  0.0655  0.2356
26369W        W42178  11.591  14.633  11.596 -0.0127  0.2685  0.1142
26370W        W42179   1.939  14.079   3.516  0.1248  0.0215  0.3098
26371W        W42180   6.516  11.198   4.628  0.0098 -0.1138  0.0869
26372W        W42181   8.567  12.946   4.181 -0.2145 -0.0114 -0.0374
26373W        W42182  18.540   3.987   5.124 -0.1340 -0.1193 -0.0317
26374W        W42183  10.024  10.657  11.784 -0.3115 -0.3641 -0.0489
26375W        W42184   7.675   2.276  14.486 -0.2909 -0.1069 -0.2533
26376W        W42185  15.855   3.684   3.751 -0.0871  0.0364  0.0974
26377W        W42186   1.909   8.597   1.691 -0.0830 -0.1614  0.0270
26378W        W42187   1.182  17.479   4.459  0.1657  0.1469 -0.0361
26379W        W42188  18.614  10.968   4.204  0.2008 -0.2715 -0.0593
26380W        W42189   0.508  12.230  10.846  0.1855 -0.2737  0.0794
26381W        W42190   0.873   1.111   0.361  0.0465 -0.2393  0.1678
26382W        W42191   8.175   4.287  10.922  0.1817 -0.5090 -0.2001
26383W        W42192   9.336  18.947  11.807 -0.1887  0.0348  0.0763
26384W        W42193   7.765  14.773   1.164  0.3106  0.3337 -0.0577
26385W        W42194  18.962   2.408   3.811 -0.2240 -0.2230 -0.0383
26386W        W42195  13.460  16.798  15.139 -0.2365  0.0437  0.2605
26387W        W42196   2.284  10.263  12.633 -0.0171 -0.3424 -0.0598
26388W        W42197   8.629   3.146   1.218 -0.1345  0.2776  0.2133
26389W        W42198   9.817   3.809  10.362  0.1945  0.2961  0.0920
26390W        W42199  18.918   8.277   5.126  0.1788 -0.2513  0.0829
26391W        W42200  17.271   5.987   5.226 -0.0799  0.1177  0.3723
26392W        W42201   7.750   8.567  13.755  0.3048  0.0566 -0.4226
26393W        W42202   4.908  16.522   3.146 -0.0094 -0.0186 -0.0924
26394W        W42203  17.041   5.563   3.301  0.0488  0.2359  0.1642
26395W        W42204   5.964   2.870   4.434 -0.1180 -0.1459  0.2620
26396W        W42205  12.474   6.961   3.041  0.1098 -0.1494 -0.0702
26397W        W42206  14.832  12.813   3.424 -0.1097 -0.0211  0.1621
26398W        W42207  13.381  11.203  10.633  0.1968  0.2759 -0.1254
26399W        W42208  11.957   8.774   3.440  0.0159 -0.2121 -0.0253
26400W        W42209  13.925  10.388  10.655  0.1231 -0.0996 -0.1607
26401W        W42210   1.580   1.961   9.403  0.0705  0.1946 -0.3766
26402W        W42211  11.501  14.936   3.824  0.2088 -0.2936  0.1984
26403W        W42212   3.960   9.556  12.288  0.0250 -0.1402  0.0909
26404W        W42213   7.555   4.765  12.805  0.3007  0.1564 -0.4945
26405W        W42214   1.545   5.512  13.613 -0.0981 -0.2508 -0.0521
26406W        W42215   8.351  18.960  11.875 -0.1378 -0.0329 -0.1437
26407W        W42216   0.526   9.755  14.518  0.0980 -0.0505  0.0687
26408W        W42217  18.487   6.926  12.384 -0.0790 -0.2006  0.0171
26409W        W42218   9.858   5.139  12.533 -0.0562  0.1491  0.4408
26410W        W42219  10.534   4.645   4.775 -0.0304 -0.1733 -0.3237
26411W        W42220  10.905  16.970  12.982  0.1280  0.3183 -0.0619
26412W        W42221   1.841   8.940  13.932  0.1226 -0.0192 -0.1137
26413W        W42222  17.148  15.908   3.061  0.1108  0.2598  0.2116
26414W        W42223   4.776   0.398   2.576  0.2129  0.0126  0.2113
26415W        W42224   3.231  12.074  13.446 -0.1502 -0.0332 -0.0150
26416W        W42225   5.314   9.293   2.873 -0.2047  0.1175  0.1552
26417W        W42226  12.559   6.088   3.985  0.3711 -0.1406  0.5951
26418W        W42227   1.234  15.052  12.745 -0.3651 -0.3157  0.0444
26419W        W42228  17.057  13.199   2.808  0.2873  0.0041  0.0567
26420W        W42229  11.319  14.320   0.143 -0.0329 -0.0427  0.2315
26421W        W42230   6.462  11.478   1.398  0.2177  0.0021 -0.0577
26422W        W42231   2.292  11.888   1.677 -0.1990 -0.1348 -0.1045
26423W        W42232   9.198  18.698  12.197  0.1995 -0.4297 -0.0143
26424W        W42233  17.526   7.264  15.075  0.0285 -0.0785  0.1867
26425W        W42234   0.638  10.151  14.214  0.1794  0.0132  0.0900
26426W        W42235  11.462  10.065  14.283 -0.1686  0.1941 -0.1947
26427W        W42236  15.978  11.151   9.956 -0.2475 -0.1876  0.1766
26428W        W42237  11.824  16.417  11.532 -0.2589  0.2679 -0.1936
26429W        W42238   2.757   3.546   3.886 -0.3599  0.3440 -0.1023
26430W        W42239   5.398   5.474   1.063  0.2699 -0.1133 -0.0357
26431W        W42240   3.416  16.831   0.139  0.3345  0.0355 -0.0732
26432W        W42241   1.028   8.255  10.519 -0.1458  0.6162 -0.1118
26433W        W42242   2.107  13.654  13.790  0.2244 -0.0679  0.3516
26434W        W42243   3.180  17.371  12.418  0.0661 -0.0890 -0.0539
26435W        W42244  17.308  16.601   4.527 -0.2573 -0.4498  0.0253
26436W        W42245   6.824  10.042  11.885  0.0436 -0.1156  0.1154
26437W        W42246   5.738   7.887   1.504  0.1461  0.2464 -0.1208
26438W        W42247  12.037  14.062   2.302  0.0012 -0.0473  0.1246
26439W        W42248   0.165  17.377   3.709 -0.0807  0.1886 -0.1123
26440W        W42249   7.968  18.232  11.269  0.0668 -0.1648 -0.1996
26441W        W42250  14.362   0.149  10.714  0.1720 -0.0771  0.2220
26442W        W42251  14.155  15.202   3.430  0.1376  0.2641 -0.1663
26443W        W42252  11.056  14.157  12.545  0.2556 -0.2744  0.0749
26444W        W42253  18.788  14.221  13.054  0.2222  0.0198 -0.0273
26445W        W42254  13.767  12.817   3.604  0.1542  0.0950 -0.0206
26446W        W42255   0.587   2.934  14.325  0.2523 -0.3319  0.0110
26447W        W42256  16.442   3.522   5.208  0.4169  0.2882  0.1001
26448W        W42257  17.729   4.511  12.775 -0.1115  0.0252 -0.1129
26449W        W42258  18.774   6.919   2.131  0.0781 -0.1796 -0.2436
26450W        W42259  10.983  18.711  13.790  0.3098  0.2901 -0.4803
26451W        W42260  13.648   8.927   2.049 -0.0077 -0.0044  0.5219
26452W        W42261  14.992  18.664   0.963  0.1103 -0.2360  0.1010
26453W        W42262   2.651  17.150  11.237  0.2002 -0.1653  0.0033
26454W        W42263   1.232  17.162  11.837  0.2831  0.0423 -0.0462
26455W        W42264  10.944   0.256   2.937  0.1039 -0.2163 -0.1901
26456W        W42265  14.437   9.677  14.975  0.5205 -0.0712  0.0872
26457W        W42266   4.970  10.039  11.131  0.2442  0.1183 -0.1253
26458W        W42267   1.333   0.932   0.183  0.3747  0.0042 -0.0909
26459W        W42268  14.607   8.452  11.432 -0.2059  0.2086 -0.2446
26460W        W42269   6.165  14.310  11.844 -0.1012  0.2801 -0.1065
26461W        W42270   5.463  17.670  12.792 -0.0856  0.1040  0.0036
26462W        W42271   5.620   9.305   4.839  0.0160 -0.1385 -0.0806
26463W        W42272   9.940   2.412   1.269 -0.1878  0.2747 -0.2964
26464W        W42273   7.888   2.732   0.861 -0.2135  0.1910 -0.1168
26465W        W42274  12.652   7.735  14.285 -0.2297  0.0293  0.0552
26466W        W42275   7.538  12.525   1.597  0.0960  0.5294  0.2196
26467W        W42276  14.208   8.421   2.125  0.0592 -0.0897 -0.1959
26468W        W42277   9.159   6.320   2.734  0.0794 -0.1649  0.2998
26469W        W42278  12.248  13.762   3.658  0.0055  0.2930  0.1831
26470W        W42279   0.004   7.162   3.443 -0.2127 -0.0976  0.2020
26471W        W42280  11.427  16.400  11.835  0.0475  0.4996  0.0112
26472W        W42281  10.585  18.068  11.082  0.0323 -0.0707 -0.1830
26473W        W42282  13.115  10.444   2.275  0.0853  0.1919  0.0889
26474W        W42283   2.882   3.226  13.507  0.0712  0.0418  0.0817
26475W        W42284  11.771   7.806  13.889  0.0280  0.0553 -0.0056
26476W        W42285  13.708  16.961   0.682  0.1057  0.0602  0.1736
26477W        W42286  13.913  16.461  14.939 -0.2182  0.1415 -0.4266
26478W        W42287   6.574   9.004  11.155  0.3334 -0.1380  0.0143
26479W        W42288  18.370   3.144  10.265  0.1021 -0.3855 -0.1875
26480W        W42289  18.374  16.078  13.453  0.0734  0.1240  0.1491
26481W        W42290  13.364   0.010  10.527 -0.2593 -0.1390 -0.1261
26482W        W42291   7.945   5.967  12.859  0.1434 -0.2070  0.2938
26483W        W42292   4.358   7.569   4.645  0.2996  0.0903  0.0774
26484W        W42293  10.876  13.025   4.684  0.0333 -0.1239  0.2796
26485W        W42294  12.854  16.021   2.283 -0.4745  0.0613 -0.2095
26486W        W42295   5.372   6.664  14.163  0.2814  0.1779  0.3137
26487W        W42296   0.517  10.184  12.016  0.3474 -0.3143  0.3176
26488W        W42297   6.584  15.782   9.387 -0.0108 -0.0906  0.0344
26489W        W42298  10.277   8.159  11.473  0.1355  0.0705  0.2950
26490W        W42299   1.080  11.993  12.367  0.2188  0.0423  0.3319
26491W        W42300  12.127  14.771   4.437  0.3351  0.0975 -0.1028
26492W        W42301   1.602   9.388   5.161 -0.4011  0.0284 -0.1853
26493W        W42302  13.084   5.282   3.842  0.0233  0.0150  0.2323
26494W        W42303  18.054  10.481   2.943  0.2106 -0.1248  0.2170
26495W        W42304   5.501   0.498  13.515  0.4130  0.3700 -0.0142
26496W        W42305  10.321  14.180  11.889 -0.0631  0.0982  0.0349
26497W        W42306   1.093   3.822   2.724 -0.1069  0.1955 -0.1371
26498W        W42307   4.489   3.959   0.517 -0.1398 -0.0656  0.0824
26499W        W42308   9.864  14.340   1.002  0.4170 -0.1775 -0.0403
26500W        W42309   0.607  16.145   2.644 -0.0086 -0.0819 -0.0567
26501W        W42310   5.131  12.324   1.939  0.2126  0.2561  0.0985
26502W        W42311  11.263  11.355  14.219 -0.0649 -0.1991 -0.0634
26503W        W42312  13.986  10.476  14.453  0.2039  0.4195 -0.1303
26504W        W42313   0.828   1.946   2.504  0.0503  0.2809 -0.2796
26505W        W42314  11.369  12.373   5.024  0.2031  0.1169  0.2050
26506W        W42315  10.172   5.192   3.403 -0.2872  0.0631  0.2421
26507W        W42316  13.728   4.965  14.780 -0.1891 -0.2613  0.2452
26508W        W42317   6.965   7.077   4.249 -0.0394  0.2118 -0.0359
26509W        W42318  14.267  15.065   6.113  0.1741 -0.2523 -0.1000
26510W        W42319   2.240   4.901  12.147 -0.2277 -0.0518  0.1723
26511W        W42320  15.734  18.306   2.190 -0.2052  0.0727  0.2542
26512W        W42321  16.090   4.616  11.123  0.4730  0.2574  0.1274
26513W        W42322  14.079   7.713  14.738 -0.0529 -0.0526  0.0462
26514W        W42323   3.613  13.896  12.018 -0.1595 -0.0161 -0.6941
26515W        W42324  16.909   4.453  11.347 -0.0574  0.0089 -0.2436
26516W        W42325   7.703   5.294   0.366 -0.1668 -0.1756 -0.1844
26517W        W42326   3.138   4.399   4.028  0.1389 -0.1842  0.1664
26518W        W42327  13.790  14.993  15.163 -0.1972  0.3161  0.0464
26519W        W42328   4.167   8.064   0.491 -0.4000 -0.0156 -0.1438
26520W        W42329  14.970   8.795   2.942  0.2585  0.0885 -0.0023
26521W        W42330   5.977   2.766  12.921 -0.2195  0.1768 -0.1093
26522W        W42331  15.752   5.986   0.801 -0.0705  0.2057  0.1665
26523W        W42332   7.337   1.755   1.421  0.3517 -0.3104 -0.0388
26524W        W42333  13.220   5.911   0.667  0.1014 -0.2531  0.1571
26525W        W42334  14.371   3.737   2.844 -0.0345 -0.1695 -0.0309
26526W        W42335  14.236  15.464  11.694  0.0545 -0.0165  0.2883
26527W        W42336  16.550  15.614  10.184 -0.1152 -0.5521  0.3884
26528W        W42337  18.624   4.935   4.026  0.0255 -0.1976  0.1269
26529W        W42338   8.780   2.881  14.873 -0.1150 -0.0982 -0.0046
26530W        W42339  12.832  12.823   1.167  0.2037  0.1878 -0.0326
26531W        W42340  17.251   2.765   0.734 -0.3824 -0.2603  0.0382
26532W        W42341  14.281   9.013  12.809 -0.0403 -0.0828  0.0165
26533W        W42342  17.061   6.502   0.830 -0.0663  0.1475  0.5329
26534W        W42343  15.474   3.967   3.551  0.0759 -0.0680  0.0635
26535W        W42344  17.067   2.683  10.056 -0.4677 -0.0488  0.1417
26536W        W42345   3.983   8.518   1.738  0.0905 -0.2787 -0.2165
26537W        W42346  17.055  15.713   3.476 -0.2284 -0.0010 -0.4407
26538W        W42347  10.407   5.631  11.312 -0.1119 -0.2444  0.0906
26539W        W42348   8.596   3.885  12.829 -0.0923 -0.0640 -0.0326
26540W        W42349  12.491   8.663   5.177 -0.0907  0.0222 -0.0946
26541W        W42350  12.133  17.966   3.900 -0.0395 -0.0757 -0.1179
26542W        W42351  13.860   6.031  14.444 -0.0832 -0.1052  0.1528
26543W        W42352  13.591   5.357  13.748 -0.1328 -0.2064 -0.1262
26544W        W42353   3.600  11.418  14.550 -0.1660  0.1440 -0.3876
26545W        W42354   6.398  13.225   4.147  0.0149  0.0758 -0.2393
26546W        W42355   5.697  18.882   9.391 -0.0153  0.0773 -0.0383
26547W        W42356   0.692   8.131  11.885 -0.0313  0.3921 -0.0231
26548W        W42357  13.540   3.401   0.507 -0.2464  0.1379  0.1717
26549W        W42358  18.457  18.816  13.283 -0.1552 -0.1634 -0.1028
26550W        W42359  16.392   2.463  13.361 -0.0309 -0.3096 -0.0958
26551W        W42360   5.426   3.128   1.441 -0.0120 -0.0852  0.1443
26552W        W42361   9.238   0.652   5.083 -0.0745 -0.0169 -0.1013
26553W        W42362  12.367   7.665  12.284 -0.0941 -0.0801  0.2969
26554W        W42363  13.807   0.272  13.095 -0.0961 -0.0771  0.1222
26555W        W42364   7.549   1.489   3.732 -0.0210 -0.2083 -0.0630
26556W        W42365   0.766  19.101   3.777  0.0995  0.3505 -0.0469
26557W        W42366   4.915   3.852   1.006 -0.4024  0.2113  0.0565
26558W        W42367  13.270  14.125  14.779 -0.3274 -0.1865  0.2671
26559W        W42368   0.197  12.922   3.774  0.1291  0.1852  0.0245
26560W        W42369  13.489  15.507  10.560  0.1830  0.0913  0.0706
26561W        W42370  18.144   5.585   2.309 -0.0623 -0.2560  0.2109
26562W        W42371   0.384   0.581   1.051  0.2454 -0.0611 -0.3301
26563W        W42372  15.961  13.981   3.618 -0.2151 -0.2651  0.2733
26564W        W42373  13.287  11.810  15.150  0.0260 -0.0455 -0.0050
26565W        W42374  17.308   7.454  12.984 -0.0326  0.2161  0.0753
26566W        W42375   8.223  12.705   5.006 -0.0386  0.3642 -0.1211
26567W        W42376  13.366  18.746  12.815 -0.0737 -0.3292  0.2583
26568W        W42377   0.096  12.122  14.859 -0.0842 -0.2426 -0.0438
26569W        W42378  16.269  17.816   2.656  0.1434 -0.4762 -0.0916
26570W        W42379   1.126   1.257   2.379  0.1350 -0.0705 -0.4265
26571W        W42380  14.471   0.412   1.141 -0.2195  0.0360 -0.3773
26572W        W42381   0.547  11.687  13.175  0.0529  0.0966 -0.2549
26573W        W42382   9.112   6.225   1.285  0.2086 -0.1012  0.0215
26574W        W42383   1.452  12.810  10.841 -0.0166 -0.0120  0.1831
26575W        W42384  11.386   4.134  14.071  0.1719  0.2264  0.2011
26576W        W42385   7.246  14.074  10.465  0.2861 -0.2068 -0.0636
26577W        W42386  10.886   2.673   5.021  0.2563 -0.3046  0.2284
26578W        W42387   3.817   3.974  10.796 -0.0712 -0.1070  0.1271
26579W        W42388  18.243   2.144  10.725  0.1429 -0.2426  0.0316
26580W        W42389   1.757   6.350  11.957 -0.2904 -0.2991  0.1151
26581W        W42390  10.153   7.617  11.750  0.4782 -0.2853  0.1335
26582W        W42391   8.197   5.885  14.809  0.0009  0.0334  0.1164
26583W        W42392   9.473   3.268   1.088 -0.2713  0.0104  0.4638
26584W        W42393   5.753  11.636   3.014 -0.0032 -0.0846 -0.3994
26585W        W42394   9.800   6.104   2.396  0.1122  0.1270 -0.1653
26586W        W42395   4.145   8.889  11.636  0.1231  0.0523 -0.0384
26587W        W42396   8.717   7.921   3.678  0.3255  0.0913  0.0531
26588W        W42397   0.801   5.244  12.128 -0.2002  0.0513 -0.0442
26589W        W42398  10.322   8.361   9.575  0.2598 -0.2376 -0.0742
26590W        W42399   3.621   3.155  12.321 -0.0368 -0.0040  0.1079
26591W        W42400  16.090  12.655   5.380 -0.0303  0.4296  0.1456
26592W        W42401   3.675   6.782   4.837  0.0532  0.0782 -0.1095
26593W        W42402  13.622   3.555  15.059  0.1203 -0.2232 -0.2360
26594W        W42403   4.272  18.553  10.927  0.0596  0.3268 -0.5210
26595W        W42404  11.276  19.041   3.134  0.1703 -0.1579 -0.1015
26596W        W42405  13.798  10.552  11.272  0.5432  0.0692  0.0463
26597W        W42406   6.262   2.776  14.971  0.0477  0.0072  0.0418
26598W        W42407  16.342   8.557  10.377  0.2608 -0.4375 -0.2259
26599W        W42408   9.414   0.426   5.475 -0.4561 -0.3871  0.1593
26600W        W42409   5.730   5.821  14.219 -0.1870 -0.1391 -0.1202
26601W        W42410   4.287   1.784   2.144  0.2412 -0.0428  0.1689
26602W        W42411  17.392  12.983   2.443  0.1457 -0.3530  0.0497
26603W        W42412   9.387   7.911   3.750 -0.1280 -0.4486  0.1298
26604W        W42413   5.356   0.990  14.077 -0.2863 -0.2301 -0.1567
26605W        W42414  18.689  10.306   0.954 -0.2568  0.1458 -0.0759
26606W        W42415   9.307   5.018  10.876  0.1262 -0.0546  0.2785
26607W        W42416  15.111   9.139   0.452 -0.3367 -0.1811 -0.0545
26608W        W42417   4.063   8.334  10.720 -0.0407 -0.1240 -0.1283
26609W        W42418   9.894   8.846  15.060  0.0792 -0.0369 -0.0027
26610W        W42419   9.243  14.435  13.542 -0.4337 -0.1905 -0.2981
26611W        W42420  17.197   0.926   4.720  0.4576  0.2564  0.1350
26612W        W42421  15.421   8.848   2.514  0.3780  0.0700  0.3612
26613W        W42422   5.162  18.113   1.306 -0.3759 -0.1432  0.2268
26614W        W42423   9.626  13.297  14.443 -0.1189  0.1264 -0.1849
26615W        W42424  13.914  17.713   4.279 -0.1134  0.4793 -0.2343
26616W        W42425  15.808   0.617   1.240  0.0395  0.1361 -0.1798
26617W        W42426  12.007  12.437   5.072  0.3226 -0.2579  0.1749
26618W        W42427   1.929   3.015  13.450 -0.1414  0.1234  0.0717
26619W        W42428   9.399   7.181  10.832 -0.0172  0.0631 -0.1054
26620W        W42429   8.826   1.498  10.927 -0.0610  0.1551  0.0958
26621W        W42430  15.077  15.776  14.202 -0.1992  0.1094 -0.1452
26622W        W42431   5.145  11.148   4.379 -0.3918  0.2354  0.0669
26623W        W42432   1.127  11.399  10.051 -0.1079  0.0124  0.1236
26624W        W42433  16.493  17.854  13.025 -0.3442 -0.0437  0.1182
26625W        W42434  18.246   4.835  13.485 -0.2176  0.1550 -0.0519
26626W        W42435  18.194  13.543  14.889  0.2067 -0.1639 -0.2440
26627W        W42436   2.122   9.545   0.620  0.0184 -0.2188 -0.1435
26628W        W42437  11.190  16.513  14.460 -0.0484 -0.0469 -0.2206
26629W        W42438  18.122  15.349   4.968 -0.0932 -0.2490  0.1030
26630W        W42439  16.042   0.902   2.860  0.0050  0.2022  0.0280
26631W        W42440  11.583  11.872   5.633 -0.1820  0.3917  0.1897
26632W        W42441   5.493   5.808  14.680  0.1734 -0.2673  0.0559
26633W        W42442  15.826   2.061   1.585  0.5519 -0.0431 -0.0458
26634W        W42443  17.307   5.642   2.819 -0.3429 -0.0231 -0.0834
26635W        W42444  14.531  15.304   0.167 -0.1074  0.0768  0.2891
26636W        W42445  10.508  15.087   4.363  0.1203 -0.0486  0.0764
26637W        W42446  18.431  13.567   5.690 -0.1237 -0.0095 -0.2354
26638W        W42447  13.316  14.264  13.113 -0.0025  0.0754  0.2079
26639W        W42448  12.080  11.024  12.620 -0.2791 -0.1088 -0.0413
26640W        W42449   2.772  10.608  11.209  0.0770 -0.5606 -0.0788
26641W        W42450   4.292  16.433  10.073 -0.1077 -0.1266 -0.0945
26642W        W42451   7.488   2.095  12.960 -0.2046 -0.0817  0.1381
26643W        W42452   4.811  16.448   4.351  0.1284 -0.1304  0.0684
26644W        W42453  16.760  16.564   2.678 -0.2308 -0.0382 -0.1295
26645W        W42454  16.398  11.688   3.518  0.2147 -0.1768 -0.2280
26646W        W42455   6.619   9.188  13.079 -0.0579  0.2221  0.1637
26647W        W42456  13.599  12.429   3.191 -0.0224 -0.1586  0.1433
26648W        W42457   8.263  18.483  13.872 -0.4666  0.0370  0.0316
26649W        W42458  19.072   8.596  14.567 -0.1751  0.0764  0.1654
26650W        W42459  17.404  13.140   1.249  0.2417 -0.2659 -0.2762
26651W        W42460   8.624   8.282  12.421 -0.3370 -0.2385  0.0234
26652W        W42461   0.906  14.931   0.793 -0.2666 -0.1399  0.1542
26653W        W42462   9.919   0.256  12.573 -0.2214  0.0165  0.0946
26654W        W42463   8.748   5.300  11.659  0.1487 -0.1958  0.3001
26655W        W42464   8.563   3.371  12.905 -0.1189 -0.2427  0.1239
26656W        W42465   3.111  11.662   0.292  0.0830  0.0741  0.0763
26657W        W42466  15.519   3.555   3.264  0.0125  0.0500  0.0103
26658W        W42467  18.380  18.145  14.121  0.0312 -0.0431  0.2260
26659W        W42468   2.940   2.386   0.691  0.4412  0.3371 -0.2337
26660W        W42469   1.863   4.968  14.856 -0.1201  0.1334  0.3147
26661W        W42470   4.179  16.809   0.969 -0.3074  0.1629  0.0162
26662W        W42471   4.200  16.947  14.261  0.0431  0.1563  0.1826
26663W        W42472  10.506   7.138   0.843 -0.0358  0.2099 -0.0130
26664W        W42473   6.288   5.464   4.149 -0.3318  0.1469  0.2156
26665W        W42474   3.912   6.847   0.187 -0.0002  0.3779 -0.0705
26666W        W42475  11.445   3.145   2.944 -0.1378 -0.0032 -0.2192
26667W        W42476   0.703  10.123   4.101 -0.0538 -0.0530 -0.0485
26668W        W42477   0.600   7.811   3.191 -0.3298  0.2512  0.1070
26669W        W42478   9.345   6.518  11.456  0.3330 -0.1168 -0.2865
26670W        W42479  18.214  14.315  14.487 -0.2268  0.1660  0.1340
26671W        W42480   4.444  13.254   1.757 -0.2153  0.1476 -0.0465
26672W        W42481   5.466  18.066  13.164  0.2051 -0.2943  0.1557
26673W        W42482   8.545   2.905   9.872 -0.3745 -0.0999 -0.2051
26674W        W42483   8.172   7.781   0.596  0.0770  0.3382 -0.0914
26675W        W42484  11.356  17.044   0.278  0.1837  0.1070  0.0487
26676W        W42485  13.897   2.384   4.338  0.2215 -0.4007 -0.1283
26677W        W42486   7.814  16.522   0.791 -0.1192 -0.4636 -0.0412
26678W        W42487   0.632   5.958   3.258 -0.1560 -0.0399  0.1504
26679W        W42488  12.709   3.283   0.032  0.0954  0.0276  0.1072
26680W        W42489  11.474  10.208   5.066 -0.1632  0.3197 -0.2887
26681W        W42490   5.447  12.975  10.999 -0.0084  0.1552  0.3212
26682W        W42491   7.439  13.647   1.096 -0.2087 -0.1316 -0.3130
26683W        W42492   0.266   2.916   3.009  0.0058  0.1730  0.4348
26684W        W42493  12.548  10.410  12.956 -0.1327 -0.0824  0.2258
26685W        W42494   5.522  11.950  13.048 -0.2076  0.1980  0.3526
26686W        W42495  18.679   6.782  14.334 -0.0125  0.0368 -0.1320
26687W        W42496   7.196  14.819   3.629 -0.2346 -0.0194  0.0007
26688W        W42497  11.788  17.055   0.009  0.0151 -0.0706 -0.1454
26689W        W42498   4.095   8.835   3.499 -0.1273  0.4396 -0.3151
26690W        W42499  12.142  17.724  11.400  0.2763 -0.0514 -0.1178
26691W        W42500   6.516   3.929  12.576 -0.1226 -0.0729  0.1478
26692W        W42501   5.626  16.119  10.939 -0.1786  0.0425 -0.0640
26693W        W42502   5.797  15.810  11.386 -0.1054 -0.1678 -0.0632
26694W        W42503  13.793   7.761  11.541 -0.3657 -0.1480 -0.0891
26695W        W42504  16.301  11.511  10.945  0.0131  0.0214  0.0186
26696W        W42505   5.630  17.839  14.428 -0.0903  0.1098  0.1451
26697W        W42506   3.979  10.556   3.920  0.1333 -0.0113 -0.1647
26698W        W42507   6.879   5.892  11.463 -0.0063 -0.1548  0.0315
26699W        W42508   3.440  10.455  12.421  0.0012  0.0096  0.0160
26700W        W42509  16.444  18.660   2.377  0.1227  0.2488 -0.2951
26701W        W42510   1.046   0.164  11.064  0.1722  0.2022  0.2172
26702W        W42511  12.265   1.674   2.122 -0.2944  0.1951 -0.1576
26703W        W42512  17.123  10.099  10.934 -0.0910  0.0174 -0.0699
26704W        W42513  11.490   4.923  11.881 -0.0614  0.0793  0.1456
26705W        W42514  11.270  12.528   0.624  0.1870 -0.3727  0.0019
26706W        W42515  17.723  10.570   0.631  0.1145 -0.1751 -0.2693
26707W        W42516  10.153   5.415  10.918 -0.0172  0.1929 -0.1336
26708W        W42517  17.092   3.626   3.050  0.2647 -0.3033 -0.1507
26709W        W42518  14.197  17.354   0.888 -0.2367  0.2132  0.2455
26710W        W42519   8.662   0.236  12.937  0.1030  0.1274 -0.0136
26711W        W42520   1.619   8.200  14.029 -0.0989 -0.1781 -0.0936
26712W        W42521  18.564  11.660  12.361  0.2460  0.0135 -0.2421
26713W        W42522   6.515  10.721   1.873  0.0094  0.0694  0.3133
26714W        W42523  10.920   4.862   3.607  0.1807  0.1480 -0.0719
26715W        W42524  12.782  18.615   3.445 -0.2175 -0.3627  0.0980
26716W        W42525  11.992  10.895   1.199  0.1314  0.0246 -0.1041
26717W        W42526   3.421  14.972   3.076 -0.1670 -0.2382 -0.1005
26718W        W42527  11.870  13.872   2.981 -0.1702  0.0327 -0.2492
26719W        W42528  10.835   4.984   2.297  0.0497  0.0640 -0.3441
26720W        W42529   1.072   7.024   1.634  0.0543 -0.2351 -0.1895
26721W        W42530  11.838   7.724  12.242 -0.3976 -0.1635  0.3617
26722W        W42531   4.755  11.641   0.787  0.1331  0.1390  0.3891
26723W        W42532   4.195   9.852  15.209  0.2900 -0.0874 -0.0567
26724W        W42533  16.256   7.747  13.087 -0.3060  0.2175 -0.0520
26725W        W42534  15.201   7.959  11.464  0.2348  0.1136  0.0457
26726W        W42535  14.999  12.529   3.818  0.1659 -0.2109  0.0404
26727W        W42536   7.347  11.096   4.770 -0.2908 -0.3227  0.1074
26728W        W42537   6.951   1.835  10.441 -0.2528 -0.0901 -0.1492
26729W        W42538  16.153   7.426   2.044 -0.0926  0.2693  0.3349
26730W        W42539  17.660   7.716   5.384  0.0613 -0.2531  0.0849
26731W        W42540   4.435  17.386  13.378 -0.3608 -0.2987  0.0590
26732W        W42541   4.732   8.132   0.581  0.2259  0.0749  0.1456
26733W        W42542  12.007   4.655   9.973 -0.1341 -0.2555 -0.0403
26734W        W42543  13.713   6.785   5.530 -0.1066 -0.0853  0.2577
26735W        W42544   9.018   7.047   2.840 -0.2864  0.0333  0.2956
26736W        W42545   9.162   1.634  13.746 -0.2050 -0.1389  0.0517
26737W        W42546   4.744  16.890   1.151 -0.1925 -0.1031 -0.0582
26738W        W42547  13.713   5.026  12.185  0.0185 -0.1471 -0.0035
26739W        W42548  10.468  17.252  12.251 -0.1422 -0.0363 -0.0615
26740W        W42549   3.352   2.130  12.880  0.1407  0.4718 -0.4343
26741W        W42550   8.757  18.446  14.242  0.0754  0.1172  0.1510
26742W        W42551  15.133  13.479   0.030 -0.2160  0.0525 -0.4558
26743W        W42552   9.566  18.214   0.107  0.1829 -0.2988 -0.1705
26744W        W42553   4.219   6.835  14.439  0.2759  0.2671  0.1689
26745W        W42554  10.827  16.915   2.314  0.0342  0.3705  0.1485
26746W        W42555   9.039  16.462  12.075 -0.3496  0.0179 -0.1093
26747W        W42556   4.104  14.216  14.255  0.0194  0.0499  0.1331
26748W        W42557   5.605   2.224  10.487 -0.0995  0.0001  0.3581
26749W        W42558   3.809  18.673   4.667 -0.1586 -0.3797  0.2858
26750W        W42559   2.728  10.059  12.371  0.0387  0.2064  0.1241
26751W        W42560   3.058  13.210   0.321  0.0553  0.1373  0.0980
26752W        W42561  17.345  16.433  12.617  0.1992  0.4168 -0.0716
26753W        W42562  11.914   0.485  11.113  0.0098 -0.3114 -0.0831
26754W        W42563  18.624  16.884   4.305  0.0756 -0.2150 -0.5002
26755W        W42564  18.270   5.636  14.849  0.2555 -0.0060 -0.2327
26756W        W42565   0.014   7.760   9.604 -0.2997 -0.2220  0.5009
26757W        W42566  16.851  14.762   2.859 -0.0750 -0.1016 -0.2076
26758W        W42567   9.486  11.791   1.248  0.1808  0.0559 -0.2124
26759W        W42568   1.310   7.914   0.997  0.4534  0.1266 -0.2017
26760W        W42569  13.554   1.987  12.199  0.2295 -0.5383  0.2412
26761W        W42570   0.061   7.203  13.073 -0.1663 -0.0408 -0.0793
26762W        W42571   4.331  12.832  12.250 -0.0680 -0.0125 -0.0000
26763W        W42572  17.330   0.666   3.905  0.3277  0.0888  0.0213
26764W        W42573  16.964   0.535   1.049 -0.1711  0.2177 -0.2618
26765W        W42574  12.230   6.964   1.943  0.1577  0.3695 -0.2569
26766W        W42575   2.867   7.357   1.823 -0.1556  0.2570  0.1743
26767W        W42576  12.912   9.245  11.566  0.1486  0.0878 -0.0657
26768W        W42577   0.793   5.817   4.755 -0.1872  0.1680 -0.0661
26769W        W42578   0.141   5.981   1.905  0.3058 -0.1551 -0.0135
26770W        W42579   0.636  10.465   5.349  0.0836 -0.0472 -0.0160
26771W        W42580   9.975   7.395   3.004  0.4597 -0.2023  0.0303
26772W        W42581  17.164  12.144  10.726  0.1106 -0.0420 -0.0443
26773W        W42582  17.154   9.980  11.410 -0.1477  0.1832 -0.0429
26774W        W42583   5.285  18.122  10.552 -0.0214  0.2372  0.0130
26775W        W42584   9.734   1.555  13.682 -0.2403  0.0472 -0.0852
26776W        W42585  15.489  18.702  15.009  0.0856 -0.1121 -0.2019
26777W        W42586   0.167   8.697   1.079  0.1707 -0.1244  0.2777
26778W        W42587  10.868  12.173   2.275 -0.1630 -0.1678 -0.0022
26779W        W42588   4.216   0.887   3.059  0.1353  0.1978  0.0032
26780W        W42589   6.550   2.035   4.302 -0.0868  0.0150  0.2317
26781W        W42590  12.024   9.962  14.079  0.1479  0.1056  0.2187
26782W        W42591  16.441   2.002  13.187  0.1779  0.1796 -0.0186
26783W        W42592   6.207  13.785   4.236  0.0361 -0.3081  0.0966
26784W        W42593   5.332  10.713  11.323  0.1694 -0.3021  0.2700
26785W        W42594   6.909  15.420   3.264 -0.1197  0.1273 -0.1332
26786W        W42595  13.869  16.214   1.424  0.0566  0.0614  0.4650
26787W        W42596  12.559  14.288   1.181  0.4023 -0.0401 -0.0133
26788W        W42597  18.745  10.590   6.024  0.0127  0.0235  0.1084
26789W        W42598   6.163  12.025  13.027 -0.0501  0.0562  0.0838
26790W        W42599   7.971   7.234  15.068  0.0573  0.1101 -0.1578
26791W        W42600   9.120  15.328   3.534 -0.0281 -0.0868 -0.0643
26792W        W42601  11.443  18.810  12.081  0.2565 -0.0838 -0.0955
26793W        W42602   7.507  15.917   2.057 -0.2457  0.2702 -0.0808
26794W        W42603   0.548   4.562   2.114  0.2062 -0.5596 -0.1647
26795W        W42604   8.001   2.017  12.887  0.0417 -0.0973  0.0940
26796W        W42605   7.368  17.745   2.137 -0.1007 -0.0971  0.2264
26797W        W42606  13.391  17.465   1.475  0.0193 -0.1894  0.2860
26798W        W42607  11.763  17.964   9.889  0.2054 -0.1905  0.3168
26799W        W42608  11.172  15.657   4.373  0.0603  0.0276 -0.3144
26800W        W42609   5.844   2.241   3.136 -0.1632 -0.0098  0.2741
26801W        W42610  13.774  13.785   1.041 -0.0256  0.0470  0.3056
26802W        W42611  10.388  14.709  13.548  0.1801  0.0551 -0.0040
26803W        W42612   0.393  17.102  13.925 -0.4324  0.0118 -0.1349
26804W        W42613  10.623   7.872   5.607  0.1814 -0.0858 -0.0262
26805W        W42614  17.287  19.154  11.324  0.0846 -0.1902  0.1707
26806W        W42615  14.009  13.640   2.803  0.2085 -0.0149  0.0007
26807W        W42616   6.647   1.937   2.434  0.0584  0.0391  0.3503
26808W        W42617  17.883   1.509  12.904 -0.2406  0.1717 -0.3205
26809W        W42618   8.716  11.607   2.303  0.3164 -0.0275 -0.1894
26810W        W42619  13.658   2.079  11.642  0.1368 -0.0871  0.1950
26811W        W42620   3.367   2.183   1.599 -0.0600 -0.4075 -0.0212
26812W        W42621  14.225   1.504   2.392 -0.1474  0.0577  0.2314
26813W        W42622   4.257   3.072  13.249 -0.1753 -0.1215  0.1990
26814W        W42623   5.700  19.010   2.276  0.0199 -0.1508  0.2654
26815W        W42624  18.059  16.992   4.828  0.3203 -0.1330 -0.0118
26816W        W42625  16.364   1.826  13.716 -0.0331 -0.2594  0.1949
26817W        W42626  14.027   0.522   0.810  0.0040 -0.0810 -0.2662
26818W        W42627  18.742  11.033  12.942 -0.0077 -0.0459 -0.0318
26819W        W42628   4.286  18.417   0.044  0.0990 -0.0750  0.2020
26820W        W42629  17.453   0.496   0.634 -0.0391  0.3756 -0.3460
26821W        W42630   9.064   7.567  13.238 -0.0880 -0.1662 -0.0325
26822W        W42631  12.785  15.292   3.922  0.0582  0.1692  0.0427
26823W        W42632   1.421   6.617  14.415 -0.0402 -0.1601 -0.2465
26824W        W42633  10.165   4.040  10.752 -0.0960 -0.0600 -0.0494
26825W        W42634  14.388   7.937  15.148  0.0513 -0.1274  0.0245
26826W        W42635   5.914  13.775   2.728 -0.1092  0.2318 -0.1781
26827W        W42636   4.510   3.443  10.247  0.0137 -0.0467  0.2673
26828W        W42637   9.250   0.665   0.814 -0.0370 -0.1151 -0.0802
26829W        W42638   1.664   7.000   2.015  0.1630  0.0093  0.0660
26830W        W42639  16.982   1.967  12.770 -0.0814  0.3132 -0.0304
26831W        W42640   3.009  11.867  10.452 -0.1849  0.0956 -0.0589
26832W        W42641   9.007  18.928  14.270  0.1822  0.1213  0.0205
26833W        W42642   7.477  11.959  14.685  0.3674 -0.0226  0.0678
26834W        W42643   0.597  17.643   3.856  0.0392  0.1119  0.0776
26835W        W42644  10.697   4.003  14.465  0.0146 -0.1239 -0.5760
26836W        W42645   7.413   0.982  15.017 -0.1671  0.1434 -0.2195
26837W        W42646   8.904  18.394   5.963 -0.1708  0.1956  0.4340
26838W        W42647   5.883   5.412   4.452 -0.4859 -0.1576 -0.1197
26839W        W42648  17.690  11.180   1.616  0.1536 -0.0681 -0.0148
26840W        W42649   8.596  10.021  13.652  0.0946  0.2515 -0.3431
26841W        W42650  13.451   4.316   2.710  0.1837  0.0011  0.0552
26842W        W42651   2.375  17.462  13.634  0.2013 -0.1529 -0.2556
26843W        W42652   1.795  17.892  10.154  0.0261  0.0340  0.1062
26844W        W42653  13.812   1.598   1.629  0.3423 -0.1691  0.3155
26845W        W42654   5.955   9.151  12.285  0.3016 -0.2233  0.2396
26846W        W42655  17.537  19.053   5.207  0.3489 -0.2904 -0.1360
26847W        W42656   1.753   7.625   3.416  0.1892 -0.2140  0.0905
26848W        W42657  13.506  16.225  12.180  0.0066 -0.3257 -0.0278
26849W        W42658   0.935  16.861  12.305  0.3802  0.3340 -0.2082
26850W        W42659  16.825  16.472  14.822  0.1176  0.0164  0.1360
26851W        W42660  11.423   0.126   3.905  0.1704 -0.0364  0.1735
26852W        W42661  10.693  15.203   1.605  0.0946 -0.0498 -0.0241
26853W        W42662  16.803  18.574   1.651 -0.1216  0.2292  0.2140
26854W        W42663  16.565  14.876  12.706 -0.2452  0.0310 -0.0465
26855W        W42664  11.841   4.705   5.458 -0.1310 -0.1946 -0.3596
26856W        W42665   5.106   3.437  12.902  0.2236 -0.1939  0.1020
26857W        W42666  10.670   3.112  13.287  0.0707  0.0959  0.2413
26858W        W42667  18.408  12.543  13.246 -0.2811 -0.1217  0.3327
26859W        W42668   3.249  11.365   1.919  0.1709 -0.0714 -0.0585
26860W        W42669   4.377  18.237  12.326 -0.2959 -0.1223 -0.2908
26861W        W42670  10.212   3.661  13.422  0.0368  0.1740  0.1208
26862W        W42671  13.276  15.752   2.576 -0.2503 -0.0705 -0.0383
26863W        W42672  15.310  11.469  13.389 -0.3025  0.0772  0.2734
26864W        W42673   2.679  15.387   3.479 -0.1263 -0.1830 -0.4083
26865W        W42674   3.369  17.889   1.960 -0.3194  0.4633 -0.0286
26866W        W42675   8.240   9.786   2.507  0.0314  0.0488 -0.1187
26867W        W42676   8.086  16.341   4.424  0.3345 -0.1817  0.4512
26868W        W42677  18.313  17.256   5.216  0.3296 -0.1423 -0.2522
26869W        W42678  17.669  12.110   0.889 -0.0964 -0.0716  0.0274
26870W        W42679  17.768   4.547   1.979 -0.1259  0.0307  0.1059
26871W        W42680  11.739   7.239   3.532  0.0220  0.1605  0.1615
26872W        W42681   8.346   2.007   4.352  0.2233  0.3517  0.0353
26873W        W42682  16.238   3.577   2.061 -0.1070  0.2433 -0.0761
26874W        W42683   5.759   0.932  13.752 -0.0472  0.2060 -0.3030
26875W        W42684   9.314   3.738   0.891 -0.1736  0.4157  0.5147
26876W        W42685   4.645   5.033  13.451  0.0088  0.1377  0.1526
26877W        W42686  15.606   7.724  13.482 -0.2136  0.0902 -0.2582
26878W        W42687  18.393   5.363   4.014 -0.2779  0.1215  0.2371
26879W        W42688   9.604   1.508   5.091 -0.0215  0.2952  0.0841
26880W        W42689   6.356   9.771  10.550  0.1307 -0.0727  0.0278
26881W        W42690  17.414   2.917   4.710  0.2306 -0.0328 -0.1691
26882W        W42691   5.741  15.763  10.592 -0.2021 -0.0863 -0.0570
26883W        W42692  16.503  17.085   1.784  0.1509  0.0202 -0.2305
26884W        W42693   9.824   2.297   4.076  0.1419  0.2337 -0.1373
26885W        W42694  13.353   1.134   2.685 -0.2933  0.0883  0.2383
26886W        W42695  15.380   3.558   3.840 -0.1912  0.2846 -0.1148
26887W        W42696   2.977   4.065  12.581 -0.2211 -0.2301  0.0236
26888W        W42697   1.283   0.172   5.361 -0.2819  0.0594  0.1809
26889W        W42698  18.958  18.432   4.779 -0.0424 -0.2254  0.0733
26890W        W42699  11.346   4.795   2.026  0.3202 -0.2230  0.4216
26891W        W42700  18.583   1.145   4.253  0.0673  0.0610 -0.1145
26892W        W42701  16.397   2.565   3.410  0.3194  0.0250  0.0545
26893W        W42702   0.670   6.719   0.847 -0.2470  0.2645  0.0228
26894W        W42703   0.312  17.127  13.383  0.4877  0.0411 -0.0731
26895W        W42704   1.169   5.177   0.582 -0.1941 -0.0769 -0.0648
26896W        W42705  18.587  12.268   0.697  0.1462 -0.5023 -0.0004
26897W        W42706   6.521  14.101   2.491 -0.1312  0.0871 -0.0344
26898W        W42707   1.917   8.286   2.548  0.0009 -0.2524 -0.1161
26899W        W42708  14.706  14.174  11.385 -0.0693 -0.0421  0.2669
26900W        W42709  17.804  16.348   2.991 -0.1193  0.2514 -0.2943
26901W        W42710  16.707  10.151  11.667  0.3790  0.2408 -0.1366
26902W        W42711   2.619  16.699  14.806 -0.0423 -0.0465  0.0106
26903W        W42712   5.310  18.284  15.089  0.0689 -0.2157  0.0511
26904W        W42713   5.576   8.254   4.529 -0.3147  0.1586  0.1542
26905W        W42714   4.592  17.303  13.983 -0.0247 -0.2312 -0.0314
26906W        W42715   9.179   3.169  13.137 -0.3090  0.1152 -0.2676
26907W        W42716   1.270  14.130   4.243 -0.1214 -0.2994 -0.0316
26908W        W42717   1.909  16.863  10.385 -0.1607 -0.1143  0.2534
26909W        W42718   3.597  13.861   1.838 -0.0152  0.0407  0.0615
26910W        W42719   3.888  16.624  12.455 -0.1550 -0.0200  0.0215
26911W        W42720   1.858   3.711   3.007 -0.2114  0.1332  0.0612
26912W        W42721  18.342  13.563   1.217 -0.3201 -0.1179 -0.0458
26913W        W42722   0.884  13.596   3.602 -0.0014  0.2426  0.2275
26914W        W42723   1.091   4.762   0.333 -0.0289 -0.2419 -0.1261
26915W        W42724  17.693   0.963   3.681  0.0033 -0.2098 -0.0428
26916W        W42725   1.537  17.561  11.554 -0.0409  0.2123  0.1372
26917W        W42726   0.867   8.872   4.663  0.1341 -0.2649 -0.1708
26918W        W42727  13.315  18.794  11.188  0.0760 -0.0719 -0.0011
26919W        W42728   7.104   8.910  14.895 -0.0067  0.1963 -0.1687
26920W        W42729   3.337  14.407   2.835  0.1888 -0.1945 -0.1411
26921W        W42730  15.926  16.831   0.588  0.1141 -0.1996  0.0868
26922W        W42731  16.317   2.499  12.813  0.5176 -0.2183 -0.2036
26923W        W42732   5.245   0.078   0.356  0.0338  0.2117  0.2848
26924W        W42733  12.270  11.442  12.842 -0.0615 -0.3431  0.1343
26925W        W42734   2.922  15.179  11.172 -0.1112  0.1278 -0.1777
26926W        W42735   3.302   9.035  12.364  0.0676 -0.0718 -0.0872
26927W        W42736   0.198  10.601  12.140 -0.0015  0.4890 -0.1479
26928W        W42737   0.475  15.083  13.666 -0.0404 -0.1621 -0.0335
26929W        W42738   7.507  13.168  12.572 -0.2362 -0.3246 -0.1691
26930W        W42739  17.891  12.911   0.034  0.3821  0.1341  0.1819
26931W        W42740   8.198   1.194   0.430 -0.0490  0.0301  0.2635
26932W        W42741   7.648  16.748   1.716  0.0802 -0.1930 -0.0489
26933W        W42742   0.326   8.735  12.889 -0.2362  0.1061  0.0134
26934W        W42743   8.222  12.008  11.906  0.1388  0.1327  0.2062
26935W        W42744  17.074   7.274   1.143 -0.1112 -0.1981  0.1051
26936W        W42745  10.789  18.601   3.457 -0.0670  0.1481  0.0859
26937W        W42746  12.001  18.583   1.738 -0.1396 -0.1477  0.3062
26938W        W42747   2.309   6.966  10.608 -0.0618 -0.0373 -0.1560
26939W        W42748  14.182   0.833   2.845 -0.1132  0.0353  0.0361
26940W        W42749   2.054   3.533  13.102 -0.5256 -0.0832  0.2157
26941W        W42750  11.180  14.219   3.861  0.2233 -0.0711 -0.0975
26942W        W42751  16.477   5.405   1.603  0.1407  0.0998 -0.0163
26943W        W42752  10.280  14.136  13.558  0.0420  0.1231  0.0305
26944W        W42753   8.491  11.776   2.788 -0.1092  0.0897  0.1494
26945W        W42754  11.974   8.057   0.607 -0.0411  0.1197  0.2481
26946W        W42755   3.838  11.062   3.859 -0.1159  0.1085 -0.2099
26947W        W42756  12.172  17.206   4.459  0.2823 -0.0459  0.0759
26948W        W42757  15.302   9.204   2.893 -0.1555 -0.2459  0.1475
26949W        W42758  16.590  12.448   0.959 -0.1535 -0.0127  0.2796
26950W        W42759  17.356   6.387  14.264 -0.2219  0.0579 -0.0548
26951W        W42760   1.925  14.769   9.415  0.1081  0.1923 -0.0559
26952W        W42761  11.886   4.236   5.058 -0.2437 -0.1377  0.2598
26953W        W42762  17.975   5.785  11.915 -0.2926  0.0850  0.1964
26954W        W42763  17.847  18.958   4.040 -0.1404 -0.2584 -0.0460
26955W        W42764  12.952   0.065   4.393 -0.1993  0.4804 -0.0193
26956W        W42765  18.017  15.372  14.001 -0.1766  0.1975  0.2304
26957W        W42766  16.265  15.525   0.126 -0.1711 -0.3479 -0.3196
26958W        W42767  17.887  18.839   1.687  0.4448  0.1176  0.1804
26959W        W42768   7.396  10.649  12.779  0.0979  0.3205  0.0254
26960W        W42769  14.137  17.255  14.457  0.0872 -0.2934  0.1122
26961W        W42770  13.758  18.127  13.411  0.1057  0.0059 -0.0208
26962W        W42771   4.093  10.341  13.847 -0.0812 -0.0218 -0.0704
26963W        W42772  18.917   9.421   2.213 -0.0453 -0.0731  0.3102
26964W        W42773  11.776  11.254   0.997 -0.0598  0.1237  0.0785
26965W        W42774   6.868   7.336   0.070 -0.1759  0.2220 -0.0209
26966W        W42775   6.799  18.366  12.910  0.1392 -0.1433  0.0258
26967W        W42776  11.818  16.717  11.116  0.0988 -0.0312 -0.0966
26968W        W42777   5.298   3.635   4.355 -0.2007  0.1010  0.0109
26969W        W42778  18.812   7.349   1.310 -0.2354  0.1906 -0.3998
26970W        W42779   0.290   4.370   2.499 -0.1441  0.4465 -0.0963
26971W        W42780   6.388   4.699   1.949  0.1338  0.1194  0.1092
26972W        W42781  18.510   8.894   0.305  0.3082  0.0662 -0.1897
26973W        W42782  16.380   1.251  13.649  0.1848  0.0526  0.1558
26974W        W42783  18.932  14.020  13.827  0.1675  0.1100  0.1213
26975W        W42784   6.403  11.807  13.414  0.0594 -0.2088  0.2606
26976W        W42785  10.857  14.302   4.877 -0.0184  0.5529 -0.2367
26977W        W42786   7.522   8.372   2.097 -0.2190  0.3363  0.0576
26978W        W42787  16.954  14.685  10.539  0.2012 -0.1932  0.2078
26979W        W42788  10.500   3.596   0.491 -0.1869  0.2246  0.0295
26980W        W42789  10.432  16.720  12.170 -0.0404 -0.1184  0.1698
26981W        W42790   0.918  13.869  10.673 -0.0694  0.0935  0.2384
26982W        W42791   1.594   2.716  14.426  0.0411 -0.0555  0.1435
26983W        W42792  13.429  11.654   3.519 -0.2081  0.0308  0.2362
26984W        W42793   3.948  18.427  11.413  0.3187  0.0286 -0.4351
26985W        W42794   1.998  12.823  11.557  0.1100 -0.0849 -0.1362
26986W        W42795   0.527   8.206   1.958  0.0795 -0.0427 -0.2320
26987W        W42796  12.465   5.342   0.538  0.1487 -0.2111  0.0149
26988W        W42797  15.079  12.212   3.425  0.2474 -0.0273 -0.0082
26989W        W42798  10.720   9.532  13.962 -0.0100 -0.2106 -0.1577
26990W        W42799  11.697   7.222  10.970 -0.1767 -0.1173  0.1314
26991W        W42800  15.740  11.748   1.290  0.0281  0.2555 -0.1243
26992W        W42801  15.844   8.027   0.572  0.2464  0.0163 -0.0939
26993W        W42802  10.906  17.329  13.368  0.1588  0.0507 -0.0046
26994W        W42803  18.270   0.142   2.514 -0.1471 -0.0046 -0.1206
26995W        W42804   4.223   0.398   3.177  0.3322  0.2130 -0.3948
26996W        W42805  18.129   3.961  12.663  0.0033  0.0432  0.0729
26997W        W42806   3.075   4.095   0.424 -0.0515 -0.2387  0.0469
26998W        W42807   9.814  12.824  13.895 -0.2524 -0.1569 -0.1855
26999W        W42808  16.667   3.484  11.223  0.0629 -0.1064  0.2736
27000W        W42809  15.090   3.963   4.070 -0.0699  0.1035  0.0803
27001W        W42810   5.521  17.672  12.278 -0.3690  0.0694 -0.4696
27002W        W42811  17.285  11.669   4.046  0.1260  0.1920  0.0412
27003W        W42812   3.335  15.753  13.872 -0.1109 -0.1090  0.0641
27004W        W42813  10.303  18.958   4.731 -0.1156  0.2465 -0.3482
27005W        W42814   6.379  15.960  11.613  0.1981 -0.1457 -0.1095
27006W        W42815  11.217  18.018  14.297 -0.3068 -0.3254  0.2353
27007W        W42816   2.402   0.016   3.456  0.1890 -0.0832  0.1380
27008W        W42817  16.273   2.084  11.267  0.0458  0.0175  0.0102
27009W        W42818  17.324   4.676   0.794  0.0163 -0.0483 -0.1082
27010W        W42819  13.015   2.886  12.383  0.0180 -0.0769 -0.3992
27011W        W42820  12.461   4.280   1.087 -0.0585 -0.0538  0.0643
27012W        W42821   4.813   7.337   0.101 -0.0872  0.1174  0.1651
27013W        W42822  14.839   3.237   3.483  0.0690  0.0156 -0.1155
27014W        W42823   2.021  17.271   2.452  0.1010  0.0685 -0.1640
27015W        W42824  18.801   9.473   0.875 -0.2703 -0.0669 -0.0194
27016W        W42825   2.979  12.610  12.271  0.0130  0.1393 -0.4602
27017W        W42826   7.579   5.459  12.018  0.3148 -0.4663 -0.0025
27018W        W42827  14.493  14.196  14.419  0.1032  0.1488 -0.0479
27019W        W42828  16.566  15.996   0.365  0.0976 -0.1965  0.2671
27020W        W42829  17.255   7.407   5.304  0.0359  0.0096  0.0569
27021W        W42830   3.784  15.500   5.436 -0.2792  0.0016  0.2058
27022W        W42831   8.986  12.422   2.639 -0.0807 -0.0475  0.4384
27023W        W42832  18.172   2.830  14.749 -0.2451  0.0368  0.0706
27024W        W42833   0.435  17.570  12.413  0.1077  0.0774  0.0763
27025W        W42834   7.846  10.224  14.419 -0.2075 -0.3374  0.1030
27026W        W42835  18.984   6.251   2.940 -0.1124  0.0402 -0.1690
27027W        W42836  17.308   8.932   4.169 -0.0435 -0.2781 -0.1722
27028W        W42837   7.765   2.516   1.576 -0.2327 -0.0086  0.2152
27029W        W42838   3.145  10.930  11.374  0.2552 -0.1812  0.2693
27030W        W42839  17.102   4.254   0.931  0.1453  0.2382 -0.0827
27031W        W42840   9.051  15.601  11.412  0.0435  0.3849 -0.0263
27032W        W42841   2.272  15.750  14.677 -0.0401  0.0170  0.0648
27033W        W42842   7.318   4.919  14.748 -0.0646  0.1405  0.0860
27034W        W42843   0.970   8.194   0.143  0.0511  0.2583  0.0339
27035W        W42844   0.760   5.697   1.046  0.0089 -0.0855  0.1391
27036W        W42845  12.592   0.843  11.609 -0.0560 -0.3826 -0.3182
27037W        W42846   7.974   8.290  13.256 -0.3990 -0.0801  0.0387
27038W        W42847   4.063   6.697   3.028 -0.0192 -0.0893 -0.1774
27039W        W42848   4.028   4.616   2.966  0.0856 -0.3090  0.3655
27040W        W42849   5.601   8.355   4.004  0.0609 -0.0011  0.0549
27041W        W42850  16.782   6.403  10.465 -0.1279  0.2348  0.2005
27042W        W42851   1.924   4.757   3.259 -0.2480 -0.0042  0.1253
27043W        W42852   5.485  15.137   2.055 -0.4169  0.2117  0.2617
27044W        W42853  18.938   6.909  12.726  0.1099 -0.0004 -0.3937
27045W        W42854  11.998  11.930   5.371 -0.3015 -0.5516  0.0506
27046W        W42855  10.129   6.035  10.091  0.1207 -0.1248  0.0562
27047W        W42856   3.703  15.663  14.519  0.0348  0.0442 -0.2542
27048W        W42857   9.070   6.616  14.043 -0.0160  0.0241  0.1706
27049W        W42858   5.628   0.755  12.109 -0.1212 -0.3097 -0.1849
27050W        W42859   4.954   0.562   0.438  0.0527  0.1750 -0.1076
27051W        W42860   8.043  11.370  10.695  0.1778 -0.0927 -0.0111
27052W        W42861   9.746   6.342  11.759 -0.2596 -0.1209 -0.0925
27053W        W42862   4.712  14.506   0.752 -0.2355  0.2343  0.1172
27054W        W42863  18.040   3.636  11.391  0.1880 -0.2214 -0.0975
27055W        W42864   8.571  13.185   2.193  0.0486 -0.0356  0.2458
27056W        W42865   4.586   2.079   0.298 -0.2999  0.1239  0.2922
27057W        W42866   5.378  15.103  12.410  0.0108  0.0436  0.1071
27058W        W42867   9.853  17.487   4.858  0.1077  0.1046 -0.2046
27059W        W42868  16.857   1.726  12.022  0.1545  0.3042 -0.1836
27060W        W42869   2.856   2.387  12.377 -0.2096  0.0671  0.0958
27061W        W42870  10.077   9.118   4.198 -0.0063 -0.2790 -0.1715
27062W        W42871  17.027   4.066   1.854  0.0824 -0.1769  0.0632
27063W        W42872   0.973  16.239  13.026 -0.1426  0.4196  0.4329
27064W        W42873  17.212  18.226   4.818  0.0143 -0.1060 -0.0163
27065W        W42874  10.550  17.178   4.372  0.0048 -0.0639 -0.0352
27066W        W42875   6.300  12.365   1.265 -0.2733  0.1721 -0.1301
27067W        W42876  17.105  14.167   1.629 -0.1578  0.1903 -0.2672
27068W        W42877   1.354  13.436  11.906 -0.3775 -0.0216  0.0103
27069W        W42878   9.166   6.064  15.061 -0.0888 -0.0530  0.2010
27070W        W42879   5.199  10.187   0.628 -0.2211 -0.1295  0.3145
27071W        W42880   6.440   3.912   2.570  0.0509  0.1033 -0.1920
27072W        W42881  14.194  17.152   0.353 -0.0632  0.4602  0.0950
27073W        W42882  17.978   3.188   3.601 -0.1693 -0.1521 -0.1076
27074W        W42883  15.934  19.049  13.067  0.3987  0.1383  0.3085
27075W        W42884  12.824   2.975   2.283 -0.0934 -0.2774  0.0180
27076W        W42885   7.813   9.141   4.996 -0.3085  0.0014 -0.0733
27077W        W42886   7.705  12.432   9.827  0.1147 -0.0666 -0.1932
27078W        W42887  17.501  11.996  11.155 -0.1895  0.0791 -0.0952
27079W        W42888  16.342   5.631   4.055 -0.0875  0.0856  0.2036
27080W        W42889   6.755  17.355   3.648 -0.1658  0.4688 -0.0574
27081W        W42890  14.824  14.590   5.688  0.1761  0.2936 -0.1850
27082W        W42891  16.639   3.152  14.004  0.0747 -0.0896  0.3415
27083W        W42892  17.679   6.391   1.725  0.0273 -0.2886  0.0281
27084W        W42893   7.862  15.656   4.216  0.2731  0.1974 -0.0802
27085W        W42894   6.202   3.084   2.054  0.4401 -0.0549  0.0763
27086W        W42895   1.798   9.853  13.602 -0.1354  0.0138 -0.0853
27087W        W42896   1.902   8.165  11.904 -0.0319 -0.2740  0.0745
27088W        W42897   9.284  10.869   0.020 -0.0041  0.1947  0.3186
27089W        W42898  14.420  17.348  12.470  0.1369 -0.1432  0.2808
27090W        W42899  16.707   6.527  12.448 -0.0972 -0.0177  0.1257
27091W        W42900   9.412  13.952  12.254 -0.0711  0.0060 -0.1284
27092W        W42901   5.343   2.090  12.058  0.0324 -0.4163 -0.3062
27093W        W42902  18.091  16.767   4.106 -0.0037  0.2805 -0.1046
27094W        W42903  16.280   4.946  12.587  0.2525 -0.0469 -0.0077
27095W        W42904   8.989  16.969  13.628  0.1275  0.1229 -0.4054
27096W        W42905   2.030  18.852  11.139 -0.0940  0.1825 -0.2915
27097W        W42906  18.471   8.316   3.860  0.2621  0.1170  0.0139
27098W        W42907   0.913  12.011   5.177  0.0681  0.2880  0.0611
27099W        W42908   9.899   5.936  10.812 -0.0614 -0.3528  0.1348
27100W        W42909   8.799   5.761  14.473  0.0198  0.5432 -0.2958
27101W        W42910   8.645   7.463   0.536  0.0074  0.3149  0.1164
27102W        W42911  11.464   9.560   2.264 -0.0606 -0.0484  0.0236
27103W        W42912   2.871   4.067  10.917  0.1935 -0.0352  0.0224
27104W        W42913  18.334  16.677   4.616 -0.0210 -0.3556  0.2531
27105W        W42914  18.994  14.115  11.239  0.0568  0.0126  0.0268
27106W        W42915   0.376  10.901   0.082 -0.1240  0.1238  0.2733
27107W        W42916  18.666   0.848  14.757  0.2839  0.0509  0.0588
27108W        W42917  14.553   0.196  13.137 -0.0318  0.2972  0.0333
27109W        W42918   1.604   2.826   5.174 -0.2401  0.1249 -0.2088
27110W        W42919  11.739  17.323  10.434  0.2015  0.0632  0.0729
27111W        W42920  17.082   0.792  11.922  0.2430  0.1069  0.2093
27112W        W42921   1.573  15.744   0.641  0.1132  0.0442 -0.1313
27113W        W42922  12.578  12.875   4.333  0.0240 -0.0646 -0.1937
27114W        W42923  17.939   7.081   3.458 -0.0352  0.1432  0.3139
27115W        W42924  14.137  18.184  11.489  0.2034  0.1233 -0.0578
27116W        W42925  18.601   9.450  12.701 -0.0003  0.1143  0.2831
27117W        W42926   8.308   8.192   2.773  0.0985  0.2755  0.2533
27118W        W42927  12.768   5.811  14.118  0.0631 -0.3536 -0.0634
27119W        W42928  15.503  17.050  14.253  0.2183 -0.0325  0.2638
27120W        W42929  18.492   6.694  11.081 -0.1003 -0.0021 -0.1185
27121W        W42930  13.248   3.399  10.335  0.0060 -0.0650 -0.1868
27122W        W42931   3.378  12.903   0.514 -0.2397  0.2327 -0.0281
27123W        W42932  14.637   6.831   3.661 -0.2350  0.3484  0.3919
27124W        W42933  11.511  16.243  14.883  0.0872 -0.2190  0.0453
27125W        W42934   1.887  11.285   5.469 -0.1704  0.2045  0.3127
27126W        W42935   4.116  13.488  13.247 -0.1097  0.1300 -0.1239
27127W        W42936   3.599   5.043   4.766 -0.2074  0.1424 -0.0373
27128W        W42937   9.156  17.805  10.918 -0.0547  0.3745  0.0083
27129W        W42938  15.227   0.725   4.088  0.0995 -0.0058 -0.0323
27130W        W42939  12.834  14.976  11.223  0.1460 -0.3205  0.2036
27131W        W42940   4.408   4.303   9.518  0.1303  0.1570  0.2343
27132W        W42941   8.138   5.938   4.782 -0.0658 -0.0595  0.2746
27133W        W42942  11.815  14.024   3.972  0.0779  0.1383 -0.0952
27134W        W42943   1.932  10.589   2.313  0.1574  0.1658 -0.4342
27135W        W42944  14.318   0.607  14.290  0.2764 -0.2815  0.0123
27136W        W42945  10.937   2.738   3.806  0.2015  0.0867  0.0212
27137W        W42946   2.488  11.158  11.014  0.2157 -0.0463 -0.1005
27138W        W42947  11.670   9.880  11.376  0.0634  0.0835  0.1879
27139W        W42948   7.324   0.646  10.568 -0.1861  0.3065 -0.0538
27140W        W42949   9.932  10.014  12.330 -0.1072  0.1893 -0.0383
27141W        W42950   5.841  15.891   0.806 -0.2384 -0.1197 -0.2054
27142W        W42951   4.441   4.316  10.185  0.2415  0.1651 -0.4276
27143W        W42952  11.057  17.843  12.326  0.4646 -0.4780 -0.2990
27144W        W42953   8.968  10.592   4.735 -0.2754 -0.0371  0.0919
27145W        W42954  15.138  16.870  11.382 -0.1094  0.1690 -0.0078
27146W        W42955   5.155   0.914   1.149  0.0692 -0.0636  0.1602
27147W        W42956  12.980   0.122   2.513 -0.2676  0.0650  0.3572
27148W        W42957  10.709   2.603   1.660 -0.2167  0.0571 -0.0268
27149W        W42958  13.875   9.712   6.045  0.6421 -0.0460 -0.1122
27150W        W42959  13.021   9.026  13.051 -0.1058  0.0131  0.1986
27151W        W42960  18.575   7.417  15.053 -0.1362 -0.2193 -0.1322
27152W        W42961   5.352  10.184  11.435 -0.0340 -0.2868  0.2967
27153W        W42962  15.864   0.723  12.133  0.4259 -0.1220 -0.1697
27154W        W42963   2.096  11.189   3.910  0.1464 -0.2438  0.2226
27155W        W42964  11.914   2.267   3.384  0.0943  0.3543  0.1222
27156W        W42965  16.034   7.383  13.352  0.1073  0.0303 -0.3614
27157W        W42966   2.285   8.004   2.263 -0.3360 -0.0807  0.0998
27158W        W42967   3.163   5.267  12.202  0.0357 -0.1456  0.3751
27159W        W42968  10.522  18.684   2.225  0.1216 -0.0722  0.0988
27160W        W42969  14.514   2.810  14.264  0.2813  0.3608  0.2263
27161W        W42970  18.170   8.989   3.282  0.0334 -0.1678 -0.1425
27162W        W42971  15.345   6.584  10.022 -0.1970 -0.0887  0.2203
27163W        W42972  10.607   9.547  11.974 -0.1876 -0.2224 -0.0158
27164W        W42973   3.311  18.408  10.631 -0.1625  0.1356  0.1059
27165W        W42974  10.613   4.184  10.995 -0.0635  0.3283  0.3502
27166W        W42975  12.425   6.854   3.557 -0.1547  0.0798  0.2792
27167W        W42976   8.582  14.898  12.105 -0.0094  0.0062  0.0078
27168W        W42977   9.187  16.938   6.011  0.1073 -0.1052 -0.1115
27169W        W42978  11.504   5.777   3.176  0.3233 -0.3328  0.0976
27170W        W42979  12.866  18.049   3.562  0.0024  0.0098  0.0347
27171W        W42980  13.502   9.966  12.543  0.1944  0.2599  0.1758
27172W        W42981   4.378   3.204  11.728 -0.0399  0.0113 -0.0434
27173W        W42982   8.545   5.983  10.314 -0.0050  0.0065 -0.1190
27174W        W42983   0.014  16.712  13.328 -0.1534 -0.0952 -0.0657
27175W        W42984  13.127  10.306   3.225 -0.0121  0.1640 -0.1751
27176W        W42985   1.750   2.390   5.034  0.1734  0.2707  0.1930
27177W        W42986   0.110   2.982  13.938  0.5045  0.0573  0.0991
27178W        W42987   2.417  11.539   0.244  0.0814  0.4047  0.2781
27179W        W42988  15.798  18.556  13.372  0.0241  0.0819 -0.3452
27180W        W42989   8.009  13.802   0.312  0.1607  0.2270  0.1749
27181W        W42990   2.424  17.076  13.162  0.1400  0.0187 -0.0121
27182W        W42991  12.134  17.590   0.980 -0.0318 -0.1585 -0.1287
27183W        W42992  14.152  18.796  11.445  0.0775  0.0558  0.0254
27184W        W42993   2.753  15.567   0.280 -0.2912  0.2928  0.0362
27185W        W42994  14.070   2.599   1.099  0.0078  0.2465 -0.0744
27186W        W42995  12.704   2.338  13.625 -0.3081  0.0122 -0.1196
27187W        W42996  12.482   7.375  14.565 -0.2747  0.0822  0.0822
27188W        W42997  18.931  15.443   4.364 -0.1884 -0.2253 -0.0019
27189W        W42998  14.607  14.318   3.318 -0.3454  0.3210  0.0168
27190W        W42999   0.720   9.913  11.061  0.1099 -0.0928 -0.0145
27191W        W43000   3.877  10.744  11.974  0.2385  0.4187 -0.1544
27192W        W43001   4.485  14.909   3.153  0.1406  0.2423  0.0739
27193W        W43002   7.828   2.817  11.652  0.1255  0.0300 -0.2244
27194W        W43003   7.502   7.772   0.643  0.1292 -0.0080  0.1882
27195W        W43004  10.257   3.951   1.942  0.1666 -0.0968  0.2371
27196W        W43005   9.089   3.256   3.106 -0.0514  0.1434 -0.3443
27197W        W43006  11.013  16.395   2.193 -0.2725  0.0680  0.0274
27198W        W43007   6.434   4.432  12.691 -0.0867  0.3770  0.3609
27199W        W43008   9.938  10.463  12.616 -0.3263  0.0523  0.3813
27200W        W43009  17.240   2.488   4.139 -0.4699  0.0570  0.2516
27201W        W43010  15.376   1.577   5.020  0.2023 -0.1170 -0.0373
27202W        W43011  16.104  16.573  14.074 -0.0775  0.0320 -0.2975
27203W        W43012  17.789   2.760   2.262 -0.0854  0.0288  0.0565
27204W        W43013  18.357  16.361   2.994 -0.2080 -0.2305 -0.0838
27205W        W43014   7.782   6.384  13.798  0.1981  0.1693  0.2800
27206W        W43015   3.574   5.635  13.130 -0.2743  0.1430  0.0782
27207W        W43016  16.872   4.053   3.210 -0.1921  0.1244  0.0398
27208W        W43017   9.808   3.850  13.702  0.2078  0.6003  0.0377
27209W        W43018   5.284  10.945   3.342 -0.0826  0.2659  0.0636
27210W        W43019   5.496  11.403   4.574  0.3107 -0.1568 -0.1311
27211W        W43020   8.138   0.638  14.901 -0.0848  0.3417 -0.3146
27212W        W43021   9.938   7.728   4.166  0.0668 -0.2566 -0.2063
27213W        W43022  17.398  17.815   3.221 -0.0061 -0.4076 -0.2273
27214W        W43023  13.454   8.101   4.528  0.0387 -0.2004 -0.1368
27215W        W43024  12.656  18.394   3.923  0.2203  0.1578  0.0618
27216W        W43025  16.174   6.640  14.642 -0.0010  0.1732 -0.1133
27217W        W43026  18.579  13.162   3.682 -0.0892 -0.0177 -0.0073
27218W        W43027  10.155   9.631  13.876 -0.0994 -0.1570 -0.2041
27219W        W43028  12.641   4.202  11.134 -0.1963  0.1240  0.0747
27220W        W43029   2.043   7.552   2.748  0.1856 -0.0946 -0.2320
27221W        W43030  13.245  13.626  15.168 -0.0524  0.0905 -0.0192
27222W        W43031  15.238   6.160   0.718 -0.0358  0.0333 -0.2439
27223W        W43032   6.503   1.769  13.873 -0.1345 -0.0586 -0.0740
27224W        W43033   7.699  12.595   3.085 -0.3411  0.1853  0.2815
27225W        W43034  11.530   9.632   3.689 -0.2038  0.2818 -0.0181
27226W        W43035  17.182   7.975   0.598  0.0362 -0.3133  0.1516
27227W        W43036  10.858   2.773  10.260 -0.0719 -0.2836  0.1451
27228W        W43037  17.024  16.009  12.321 -0.1551 -0.2490 -0.0563
27229W        W43038   4.741  19.137   2.204  0.0293 -0.0440  0.0501
27230W        W43039   8.483   6.924   0.622  0.4384  0.0700 -0.5616
27231W        W43040   6.284   1.046  10.893 -0.0545  0.4009  0.0864
27232W        W43041  10.597   6.989  13.168  0.2164 -0.1840 -0.2349
27233W        W43042   3.974   9.060  11.088  0.1322 -0.0469  0.3660
27234W        W43043  14.044   2.039   6.319  0.0229  0.0113 -0.0588
27235W        W43044   8.512  15.385  12.028 -0.1231  0.1946 -0.2183
27236W        W43045  11.653   8.416   9.849  0.2639 -0.1585  0.1852
27237W        W43046  17.092   4.466  14.699 -0.2930  0.1150  0.2071
27238W        W43047  17.178  13.727  12.626 -0.2082  0.3192 -0.2513
27239W        W43048  12.392   0.083  10.756  0.0014 -0.3895  0.0328
27240W        W43049   7.948   7.339  10.703  0.0271  0.1392 -0.1231
27241W        W43050   0.162   9.722   2.232 -0.2063  0.1402  0.3193
27242W        W43051  10.960  12.024  12.457 -0.1116  0.0631  0.3878
27243W        W43052   8.687   7.898   2.658 -0.1468  0.0356  0.1797
27244W        W43053  13.316  15.967  14.966  0.0295  0.0976 -0.0055
27245W        W43054   2.552   1.625  11.777  0.1007  0.0442  0.1390
27246W        W43055   5.903  11.746  11.317 -0.1001 -0.0120 -0.3871
27247W        W43056  15.393   5.476  11.818  0.3272 -0.2397 -0.0215
27248W        W43057  14.655  17.652   2.858 -0.1113  0.2814 -0.0103
27249W        W43058   6.972   2.645  12.263  0.3460  0.0912 -0.2093
27250W        W43059  16.380   0.797   9.973  0.0372 -0.2346  0.0331
27251W        W43060   1.679   4.746  10.846 -0.2174 -0.4280 -0.2246
27252W        W43061  10.220  12.618   5.229 -0.1450 -0.0417 -0.1176
27253W        W43062  15.102   9.152  14.624  0.0188 -0.0632 -0.5233
27254W        W43063  17.298   4.577   1.284 -0.0881 -0.3854  0.2023
27255W        W43064  16.313   7.134   0.501 -0.0527 -0.2324  0.0929
27256W        W43065   7.644  17.364  12.714 -0.2023  0.2219 -0.0903
27257W        W43066   2.692   0.886   4.167 -0.1983  0.1892 -0.1691
27258W        W43067  16.696  18.410  13.753  0.2164  0.2520  0.0870
27259W        W43068   3.359   6.865  12.796 -0.4516  0.2179 -0.0538
27260W        W43069   5.430  10.439  10.923  0.1851 -0.2053  0.2575
27261W        W43070  18.467   4.443  13.919  0.1039 -0.2128  0.2208
27262W        W43071  15.550   9.463   3.515 -0.2525 -0.1723 -0.0517
27263W        W43072   4.101   4.818  10.796  0.1667  0.0442  0.2288
27264W        W43073  10.375   7.454  10.918 -0.0030  0.1393  0.1123
27265W        W43074   3.284  14.927  11.952 -0.0510 -0.3237  0.1545
27266W        W43075   3.952  12.864   1.394  0.1074 -0.1086  0.5463
27267W        W43076   5.893   2.693  12.447  0.1156  0.0531  0.1024
27268W        W43077   4.079  14.647  10.394  0.1884  0.0964 -0.2351
27269W        W43078   3.100   0.316   0.973 -0.1147  0.2450 -0.1733
27270W        W43079   6.822   4.196  14.391  0.2065  0.2345  0.0177
27271W        W43080  10.950  11.475  12.793  0.0595  0.1965  0.0183
27272W        W43081   6.483  11.635   0.834 -0.2174 -0.0336 -0.2280
27273W        W43082  10.913   0.429   4.175  0.2120 -0.1444 -0.1259
27274W        W43083  18.409   0.243  14.177 -0.1090  0.2432 -0.0948
27275W        W43084  15.084   2.475  11.872  0.3201  0.1215 -0.0355
27276W        W43085   4.506   8.505  10.976 -0.0449  0.0857  0.1676
27277W        W43086  15.052   7.220  11.185  0.3618  0.1356 -0.0878
27278W        W43087  15.091   2.047   2.711 -0.0044 -0.3644  0.0655
27279W        W43088   0.732   6.975  13.924 -0.0043 -0.0329 -0.0594
27280W        W43089   0.982  14.237   1.943 -0.2439 -0.0220  0.2570
27281W        W43090   2.445   3.208  13.116  0.4885  0.2277  0.1293
27282W        W43091  13.095  16.570   3.781  0.0099 -0.1283  0.3398
27283W        W43092  18.728   3.081   0.636 -0.1058  0.2943  0.0798
27284W        W43093   2.729  18.075  10.169  0.1089 -0.0331 -0.1444
27285W        W43094   8.891  14.274  10.133 -0.1044 -0.1113  0.2353
27286W        W43095  16.640  13.445   0.516 -0.0970  0.1988 -0.2425
27287W        W43096   8.840  16.564   2.171 -0.0324  0.1252 -0.0624
27288W        W43097   6.726  15.308  10.767 -0.0171 -0.2497  0.1975
27289W        W43098   4.744  13.124   2.150 -0.1789  0.2676 -0.2268
27290W        W43099  10.979   4.732  12.731  0.3421  0.0886  0.0641
27291W        W43100   8.485  11.555  11.923  0.1889  0.0070 -0.1152
27292W        W43101   5.109   3.345  15.174  0.2964  0.2208 -0.1627
27293W        W43102   3.113  11.224   2.920  0.1668  0.0753 -0.0037
27294W        W43103   3.740  15.860  11.147 -0.3493  0.1537  0.0432
27295W        W43104  19.149   3.906  11.114 -0.1586 -0.2299  0.3050
27296W        W43105   6.678   3.383  12.334  0.2805 -0.1696  0.0288
27297W        W43106  12.927  12.402  14.484  0.1418  0.2667 -0.0186
27298W        W43107  18.895   3.031   4.363 -0.2761 -0.2447  0.0241
27299W        W43108  14.587  17.287  14.110  0.1626 -0.3132 -0.0344
27300W        W43109  18.423  13.702  12.602  0.0828 -0.3362  0.0129
27301W        W43110   1.030   1.734   1.790  0.2334 -0.4170 -0.1750
27302W        W43111  12.193  18.101  13.260 -0.0588 -0.2549 -0.2225
27303W        W43112  17.558   3.933   0.038 -0.1784 -0.0902 -0.0531
27304W        W43113  12.163  15.436   0.662 -0.0455 -0.0136 -0.0000
27305W        W43114  12.741  10.613  11.837  0.0116  0.2309  0.0134
27306W        W43115  14.608   6.608  15.144 -0.0056 -0.1177  0.0685
27307W        W43116  10.340  13.790   3.465  0.1607 -0.1043  0.1128
27308W        W43117  18.229   5.830  13.656  0.1745  0.2170 -0.0028
27309W        W43118   7.842   9.078   0.133  0.1938  0.1734  0.4364
27310W        W43119   5.971  11.317  15.183 -0.3037 -0.0882  0.1184
27311W        W43120   1.080  11.398   1.853 -0.1073 -0.0354  0.0434
27312W        W43121   4.598  14.694   1.176 -0.2301  0.1930  0.3023
27313W        W43122   5.831  15.396   1.834  0.3609  0.0891 -0.3172
27314W        W43123  13.888   9.946   5.492  0.1248  0.4246  0.1859
27315W        W43124   1.811   7.806   2.373  0.3019  0.1602  0.0571
27316W        W43125  10.330   0.138   3.522 -0.0704 -0.0667  0.1167
27317W        W43126   4.921   8.187   1.092 -0.4195  0.1170  0.0517
27318W        W43127  16.689   4.473   5.194  0.0497  0.1924 -0.2283
27319W        W43128  15.058  15.923  11.782 -0.0841 -0.0488 -0.0836
27320W        W43129   9.889   8.463   5.474 -0.0518  0.0027  0.5453
27321W        W43130   8.133  18.192   2.005  0.0337 -0.0569  0.0268
27322W        W43131   6.165   3.766  10.258 -0.0608 -0.0814 -0.3317
27323W        W43132  17.972   0.158   1.430 -0.0123  0.2268  0.2449
27324W        W43133  16.951   8.006   1.517  0.2042 -0.0971  0.0146
27325W        W43134   0.745   9.066  12.975 -0.3151  0.0318  0.0510
27326W        W43135   5.658  14.636   4.835  0.0654 -0.0486 -0.1723
27327W        W43136   2.736   9.013   1.370 -0.1733 -0.1435 -0.0015
27328W        W43137  18.299   6.480   1.668  0.0657 -0.0736 -0.2336
27329W        W43138  11.718  16.600  12.380 -0.3291  0.1107 -0.2857
27330W        W43139  15.922   4.044   1.255  0.4095 -0.1554 -0.2818
27331W        W43140  17.744  16.197   3.817  0.0913 -0.4396  0.0846
27332W        W43141  15.034   6.272  12.887 -0.0608  0.2819 -0.0159
27333W        W43142   8.076  11.252  13.798 -0.3054 -0.2982 -0.4206
27334W        W43143  15.491   1.096   0.151  0.2929  0.3145 -0.0176
27335W        W43144  11.022   3.021   1.641  0.2040 -0.0669 -0.3104
27336W        W43145  14.961   2.150   3.193  0.2656  0.1915  0.0087
27337W        W43146  11.169   1.776   0.577  0.0946  0.0754 -0.1277
27338W        W43147  18.003  10.712  14.985  0.0874  0.1476 -0.0372
27339W        W43148  17.786   5.245  12.027 -0.1902  0.3163  0.0272
27340W        W43149   9.269   9.300   2.153  0.1904  0.1169 -0.0763
27341W        W43150  19.001  10.915  12.167 -0.1368 -0.1329 -0.1417
27342W        W43151   4.389   9.516  11.394  0.0374 -0.1735  0.2684
27343W        W43152   8.869  12.180  13.287 -0.0652 -0.1986 -0.0169
27344W        W43153   8.518  14.496  12.427  0.0959  0.4822 -0.0720
27345W        W43154  12.727   6.540   2.358  0.1043 -0.5144  0.3680
27346W        W43155   3.153  10.543  10.037 -0.0342 -0.1392  0.0610
27347W        W43156  18.653  17.321  12.361  0.2583  0.1060 -0.2577
27348W        W43157   7.162   5.244   5.035 -0.1445  0.1116  0.3240
27349W        W43158  16.849   7.623  12.765  0.0332 -0.3206 -0.2966
27350W        W43159   6.465   7.316  11.031  0.0721  0.1256  0.3208
27351W        W43160  14.934  17.749   3.312  0.2567  0.1770 -0.2128
27352W        W43161   4.522   8.284   9.314  0.0458  0.2283 -0.1575
27353W        W43162   5.258   1.002  11.434  0.2452  0.0050 -0.1217
27354W        W43163   2.858   6.475   4.589  0.0185  0.0217  0.2750
27355W        W43164   3.746   1.420  11.680 -0.0331  0.2132  0.2218
27356W        W43165   9.198  10.382  10.792  0.2848  0.4174 -0.1124
27357W        W43166   3.575  14.154  12.659  0.2704  0.3172 -0.0551
27358W        W43167  10.220   9.141  12.650  0.1950 -0.3265 -0.0464
27359W        W43168  11.001  18.911  11.414  0.0768  0.1238 -0.1470
27360W        W43169   7.926   0.630   3.786  0.0212 -0.0350  0.2150
27361W        W43170   7.002   2.606   3.493  0.1778 -0.1266  0.1423
27362W        W43171  15.232  11.445   4.766  0.1599  0.2494  0.2156
27363W        W43172   7.865   9.132  12.666  0.2291  0.1998 -0.0490
27364W        W43173  12.096  11.486  13.654  0.0271  0.0245  0.0153
27365W        W43174  16.193  11.763  14.468 -0.2881  0.1676 -0.4779
27366W        W43175   8.429   7.451   4.501  0.0495 -0.1448 -0.3137
27367W        W43176  16.546  12.802  11.968 -0.3625 -0.2360  0.0562
27368W        W43177   6.529  15.581   4.516 -0.3581  0.2943 -0.1988
27369W        W43178   2.214   9.795  10.901 -0.4483 -0.2933  0.2838
27370W        W43179  16.648   1.345   2.797 -0.3697  0.0425 -0.0385
27371W        W43180   7.041   6.968   3.132 -0.0386 -0.3746  0.0365
27372W        W43181   6.859   9.418  12.632 -0.0789 -0.0891 -0.1031
27373W        W43182   0.761  12.047  14.555  0.1696  0.0022  0.2243
27374W        W43183  11.579   0.243   4.538  0.3213  0.0724 -0.0592
27375W        W43184   2.697   3.879  14.521 -0.2191  0.0167 -0.0997
27376W        W43185   0.224   5.462   3.966 -0.0879 -0.1284 -0.2923
27377W        W43186  18.697  13.293  10.753  0.2229 -0.0851  0.1260
27378W        W43187   0.693   3.776  11.992  0.0461 -0.1006  0.2016
27379W        W43188  10.613   5.377   2.599  0.1231 -0.2077 -0.1899
27380W        W43189  11.230   5.127  11.460  0.1140  0.2631  0.0233
27381W        W43190  10.375  15.529  12.883 -0.0156 -0.0767  0.3306
27382W        W43191  18.024   4.834  13.959 -0.0732 -0.1139  0.1652
27383W        W43192   3.206   6.700  12.180  0.2246 -0.0445  0.0054
27384W        W43193   2.107   3.971  12.816  0.2741 -0.1480 -0.0663
27385W        W43194  15.364   0.246   4.010 -0.0204  0.0966 -0.1177
27386W        W43195   2.342   8.996   0.445  0.1265  0.0742 -0.1203
27387W        W43196   5.524   5.840   3.813  0.0519 -0.2869 -0.1245
27388W        W43197   7.358  18.811   1.740 -0.2739  0.0346  0.2793
27389W        W43198   8.258  10.209   3.777 -0.1758 -0.2150  0.0547
27390W        W43199  16.887   5.363   1.268  0.0120 -0.2017  0.0539
27391W        W43200  17.391   1.334   3.822 -0.1905 -0.2078  0.0048
27392W        W43201   6.836   3.403  14.970  0.0180  0.1219  0.0582
27393W        W43202  11.680   7.208  14.884 -0.1058 -0.0952 -0.0836
27394W        W43203  16.136   1.892   4.718 -0.2620  0.2574 -0.0768
27395W        W43204   9.964   1.229   1.674 -0.1145  0.1525  0.2105
27396W        W43205  11.877  12.598  11.096 -0.1898 -0.0764  0.0509
27397W        W43206  14.105   8.231   2.624  0.1044  0.0702 -0.3048
27398W        W43207  13.060  14.294   2.308 -0.1384  0.1198  0.0775
27399W        W43208   4.574   9.724   3.919 -0.0731 -0.2952  0.4305
27400W        W43209   6.737   4.995   4.209 -0.3934  0.0322 -0.2015
27401W        W43210   1.797  15.933  14.098  0.1059  0.3635 -0.2513
27402W        W43211   1.424   8.144   4.196  0.1459 -0.0389  0.1389
27403W        W43212   7.376  18.722  15.191 -0.0889  0.1504  0.1118
27404W        W43213  12.055   7.414  12.810  0.1088  0.1561  0.0759
27405W        W43214   0.110   5.961  11.011 -0.1849  0.3143 -0.0603
27406W        W43215  14.088   9.179   1.354 -0.3122  0.0369  0.2006
27407W        W43216   8.245   2.560   0.530  0.2220  0.1183  0.1104
27408W        W43217  16.567   6.656  14.324  0.0308  0.1952 -0.0804
27409W        W43218   4.232  18.581  12.687  0.1053  0.1344 -0.1703
27410W        W43219   1.447  14.868  10.083 -0.1213 -0.3047 -0.1525
27411W        W43220   4.506  11.856  11.850  0.1631  0.0357 -0.0780
27412W        W43221  17.488  13.202   0.350 -0.1761  0.4302 -0.1603
27413W        W43222   2.228  17.899  12.898  0.0777 -0.3964  0.3432
27414W        W43223   3.433  18.692   0.680  0.0865  0.0687 -0.1331
27415W        W43224  18.578  15.859   3.356  0.1036  0.0444 -0.1135
27416W        W43225  12.890   4.266   2.766  0.2307  0.2343  0.0849
27417W        W43226   1.387   3.076  12.547 -0.1351 -0.3709  0.2666
27418W        W43227  13.971  12.790  12.898 -0.0108 -0.1142 -0.4173
27419W        W43228  17.159  15.131  14.489  0.3641 -0.0320  0.0683
27420W        W43229  10.814  18.357  12.979  0.0158 -0.0554 -0.0545
27421W        W43230   7.571   3.298  11.520  0.1390  0.4095  0.0666
27422W        W43231   7.110   0.975  13.942 -0.1796  0.0574 -0.1002
27423W        W43232  10.161   5.614   4.647  0.4123  0.2713 -0.1165
27424W        W43233  11.649   1.796  10.369  0.1372 -0.0259 -0.1567
27425W        W43234  12.429  13.437   4.901 -0.0267 -0.0326 -0.3380
27426W        W43235   5.764  16.703   1.043  0.2095 -0.1486 -0.1043
27427W        W43236   2.205   7.146   2.495 -0.1734  0.2062 -0.0228
27428W        W43237  17.904  13.549   1.580  0.0493  0.2041 -0.1337
27429W        W43238   3.875   8.672  13.787 -0.0979  0.3055  0.0269
27430W        W43239   7.295   4.396  10.527 -0.2065  0.1528  0.1232
27431W        W43240   7.234  14.960   1.040 -0.1833  0.0570 -0.0199
27432W        W43241  16.950   5.750  13.429  0.2132  0.0812 -0.1064
27433W        W43242  14.674  17.054  14.699 -0.0579  0.2049  0.2800
27434W        W43243  16.713  11.279  13.075  0.0496 -0.0851 -0.0780
27435W        W43244  16.733  13.826  13.539 -0.3474 -0.1382 -0.1040
27436W        W43245  16.679   2.352   1.444 -0.3433  0.2765 -0.2621
27437W        W43246   3.302   9.819   4.905 -0.2633  0.0055 -0.3574
27438W        W43247   4.657   8.884   3.148  0.2214 -0.1436  0.2175
27439W        W43248   0.798   8.032   1.012  0.0398 -0.0947 -0.0736
27440W        W43249   9.011   5.940  12.255 -0.2395 -0.0746 -0.0133
27441W        W43250   9.660   7.362   3.902 -0.1397  0.1238 -0.0564
27442W        W43251   3.147   9.685   3.513  0.1466  0.0638  0.3252
27443W        W43252  14.665   3.721   4.865  0.1213  0.4771 -0.2392
27444W        W43253  10.618   0.664  12.695 -0.0806 -0.1250 -0.0085
27445W        W43254   4.800  10.377  14.801 -0.1314 -0.3851 -0.0612
27446W        W43255   0.063   8.484  12.059  0.1261 -0.1262 -0.0975
27447W        W43256   0.021   8.720  13.829  0.2523  0.0925  0.0120
27448W        W43257   9.287   6.353   2.206 -0.3090 -0.2226  0.2981
27449W        W43258  18.054  15.550   1.221 -0.3395 -0.2448  0.3370
27450W        W43259  11.197   4.006   0.881 -0.1394 -0.1304  0.1075
27451W        W43260  13.379   1.352   4.905  0.2855  0.1336  0.1323
27452W        W43261   8.444   4.512  13.799 -0.0884  0.4310  0.4627
27453W        W43262   9.525  15.790  11.661  0.0307  0.1881 -0.3126
27454W        W43263  13.057  14.713   0.930 -0.1296 -0.4731  0.1394
27455W        W43264  12.862   0.661   4.054 -0.0735  0.1424  0.0080
27456W        W43265  11.541   5.857  11.899  0.0770 -0.2957 -0.1353
27457W        W43266  11.261  11.190  11.312 -0.0839  0.0362  0.1257
27458W        W43267   6.062  18.133   2.109  0.1419  0.4412  0.1085
27459W        W43268   8.489  12.316  11.424 -0.2224 -0.0555  0.0633
27460W        W43269   5.177  11.262  11.066  0.2416 -0.1363  0.5070
27461W        W43270  13.295   6.333   2.656 -0.1924 -0.3888 -0.2658
27462W        W43271  11.574  14.772   2.480 -0.1050  0.1839 -0.3565
27463W        W43272  15.219   7.434  12.053 -0.0913 -0.1836 -0.1366
27464W        W43273  18.790  14.698  12.020 -0.0186 -0.0583  0.4069
27465W        W43274  16.522   0.246   0.804 -0.0199 -0.2437  0.0338
27466W        W43275   8.906   5.889   5.132 -0.1084  0.0257 -0.0523
27467W        W43276   0.917  12.646  11.023 -0.0627 -0.2295 -0.4935
27468W        W43277  19.076  16.286   2.481  0.0891  0.1334 -0.1234
27469W        W43278   9.441  14.658   4.842  0.0905  0.0813  0.0198
27470W        W43279  16.346  16.903   3.470 -0.0722  0.1898 -0.2937
27471W        W43280   5.924  11.757   0.503 -0.0121 -0.1663  0.1368
27472W        W43281  12.961  18.599   1.352 -0.4010  0.3891 -0.0885
27473W        W43282  13.387  13.901  11.906 -0.0287  0.0453 -0.2414
27474W        W43283  18.985   9.266  12.377 -0.0911 -0.1011 -0.2387
27475W        W43284   0.312  14.918  12.465  0.0799 -0.0443 -0.2554
27476W        W43285  10.336   5.333  12.409  0.1920 -0.3764  0.0945
27477W        W43286  10.336   1.354  11.685 -0.3683 -0.1703  0.1697
27478W        W43287   3.101  17.536  14.557 -0.0250  0.1200  0.1980
27479W        W43288   7.083  16.596   3.560  0.0436  0.1523 -0.3648
27480W        W43289  11.966  13.217   3.679 -0.2213 -0.1822  0.0014
27481W        W43290  17.673  10.790   3.907  0.2818 -0.3798 -0.0365
27482W        W43291   5.739   7.270   3.038  0.1001  0.2392 -0.0509
27483W        W43292   7.969  12.404  15.046  0.2216 -0.1703  0.0960
27484W        W43293   4.175  12.451   2.306 -0.2768  0.3228 -0.0167
27485W        W43294   6.571  16.667   1.493  0.2223  0.0747  0.2371
27486W        W43295  16.822  14.805   4.736  0.0418  0.1924 -0.1028
27487W        W43296  18.630   9.312  10.593  0.2148  0.3951 -0.0603
27488W        W43297   8.432  15.433  14.507 -0.0280  0.1779  0.1544
27489W        W43298   0.018  14.060  12.367  0.3133 -0.0720  0.0052
27490W        W43299   5.507   9.318  13.971 -0.3220 -0.0506 -0.2058
27491W        W43300  13.946  13.328   3.181  0.0980  0.1393 -0.4143
27492W        W43301  18.842  11.208  14.163  0.1130 -0.2501 -0.1124
27493W        W43302   9.645  14.523   1.879 -0.1914 -0.0962 -0.0423
27494W        W43303  11.562   8.818   5.105  0.0815 -0.0935  0.0621
27495W        W43304   7.328  18.653  12.833  0.1800  0.1691  0.2048
27496W        W43305  17.269  13.190   4.310 -0.1671  0.3197 -0.0328
27497W        W43306   5.563   1.801   0.156 -0.1829 -0.2684  0.1025
27498W        W43307   2.831   8.435  10.234 -0.3903  0.0852 -0.1451
27499W        W43308   4.171  14.070  13.087 -0.2877  0.1034 -0.7199
27500W        W43309   6.243   3.882   4.719  0.0394 -0.0778 -0.0566
27501W        W43310  10.540  15.750   3.762  0.1338 -0.0604 -0.0037
27502W        W43311  16.091  14.969  11.165 -0.2823 -0.0706 -0.1234
27503W        W43312   5.681  15.414   2.750 -0.0457  0.1860  0.0632
27504W        W43313  11.569   3.918  10.100  0.0425 -0.1931 -0.1422
27505W        W43314   2.819  11.277   0.542 -0.0421  0.1222  0.0555
27506W        W43315  17.626   0.584  13.869  0.3299  0.1601 -0.2191
27507W        W43316  18.649   8.946  13.343 -0.2134 -0.1864 -0.3045
27508W        W43317  15.679  15.429   4.398 -0.0081 -0.0686  0.2525
27509W        W43318  16.874  18.037   0.724  0.0302 -0.1268  0.2856
27510W        W43319   0.865   0.739   2.398 -0.3720 -0.1512  0.0967
27511W        W43320  18.527   6.177  11.196 -0.1853 -0.1952  0.2079
27512W        W43321  11.607  17.680  11.485  0.1688 -0.1989 -0.1131
27513W        W43322   0.373   1.010   0.503  0.2194  0.2801 -0.2363
27514W        W43323   1.553   5.872   2.273  0.0575  0.0491 -0.2699
27515W        W43324  16.710   1.699  10.827  0.3247 -0.2348 -0.1390
27516W        W43325  12.807   9.809  12.691 -0.0118  0.3300  0.3165
27517W        W43326   5.279   9.023   3.990  0.0986 -0.0973  0.1057
27518W        W43327  14.142  10.611  12.730 -0.4160  0.0345 -0.1741
27519W        W43328  10.987  15.286   3.092 -0.1046 -0.0987 -0.2365
27520W        W43329   5.716  14.206   1.843  0.2554  0.1131  0.0084
27521W        W43330  16.640  10.820  12.797  0.0787  0.1034 -0.0624
27522W        W43331   4.957   1.890   4.325  0.0710 -0.1021  0.0812
27523W        W43332  15.418   7.432   9.966 -0.1252 -0.1927  0.1564
27524W        W43333   5.833   1.744   2.825 -0.0795 -0.1466  0.3460
27525W        W43334  15.270  15.373  12.523 -0.2040  0.0174 -0.3831
27526W        W43335   6.470   5.622   5.116  0.5383  0.3565 -0.0259
27527W        W43336   9.130   3.669  14.966  0.1001  0.0487 -0.0005
27528W        W43337   5.831   3.617   0.150 -0.1864  0.0750  0.1041
27529W        W43338   2.910   0.308  12.769  0.3075 -0.2866  0.1483
27530W        W43339   8.780   2.376   0.439 -0.0996 -0.1289 -0.1408
27531W        W43340  12.681  17.921  10.878 -0.0665  0.1797 -0.1716
27532W        W43341  10.352  14.482   4.647  0.3262  0.0238  0.3032
27533W        W43342  13.368  14.415  10.735 -0.0212  0.1688 -0.1667
27534W        W43343   1.440   8.572  13.757  0.2083 -0.3218  0.0849
27535W        W43344  14.459  12.708   4.638  0.1494 -0.1966  0.2334
27536W        W43345   2.099  13.130   4.014  0.2425  0.1167 -0.0088
27537W        W43346   0.814  16.392  10.937  0.1661 -0.0971  0.0307
27538W        W43347  11.685   8.501  11.730 -0.3236 -0.1289 -0.0907
27539W        W43348  14.732   6.385  10.735 -0.0123 -0.2432  0.1526
27540W        W43349  19.073  10.058   0.059 -0.3992 -0.2192 -0.1065
27541W        W43350   8.129   3.432   4.003 -0.3247 -0.0503 -0.1963
27542W        W43351  10.324  14.807   5.035 -0.0964  0.1575 -0.1557
27543W        W43352   7.408  10.142  14.828  0.1108  0.0844  0.1807
27544W        W43353  15.286   6.980  12.277 -0.0315  0.2454 -0.0937
27545W        W43354  14.401   4.579  11.233  0.1614 -0.1850 -0.2040
27546W        W43355  18.579  17.896   4.231 -0.0371 -0.1677 -0.1537
27547W        W43356  16.916   8.508   2.534 -0.0766  0.3159 -0.0625
27548W        W43357  11.226  11.237   6.435 -0.1891  0.1470 -0.2403
27549W        W43358   3.388   2.312   1.017 -0.1991 -0.1315 -0.4650
27550W        W43359   4.367  18.795  12.185  0.1667 -0.3731  0.0499
27551W        W43360  17.948   4.909  14.527 -0.1826 -0.1457 -0.0855
27552W        W43361  14.815  16.620   3.485 -0.2476  0.0415 -0.0114
27553W        W43362   6.178  11.176  11.845 -0.3557 -0.0988 -0.0387
27554W        W43363   9.484  16.429  12.971  0.5452  0.3212 -0.0038
27555W        W43364   1.140  14.399   4.658 -0.0482 -0.2199  0.0989
27556W        W43365  11.729   0.962   4.567 -0.0546  0.3370  0.0065
27557W        W43366  14.283  13.205   2.661  0.1385  0.0082 -0.1902
27558W        W43367  18.542   9.403   0.420  0.0776 -0.2185  0.1400
27559W        W43368   3.893   6.049  13.179  0.1214 -0.1805 -0.1314
27560W        W43369   2.782   2.848  14.984  0.1688 -0.0843  0.3259
27561W        W43370   8.274   5.360   2.709  0.2054 -0.1663  0.1621
27562W        W43371  13.116   7.051   1.380  0.0633 -0.1372  0.0706
27563W        W43372  18.455   4.276  15.190  0.1565  0.1591  0.1307
27564W        W43373  12.819  12.460   1.495 -0.2228  0.2158 -0.0019
27565W        W43374   9.500   2.074   1.294 -0.0909  0.1249 -0.1484
27566W        W43375  18.581  16.102   2.368 -0.2976 -0.0683 -0.0309
27567W        W43376   3.033  15.972   4.125  0.0924  0.0395 -0.1968
27568W        W43377   5.434   0.507   1.249  0.0603 -0.1392 -0.2336
27569W        W43378   6.279   7.067  13.057  0.2404  0.4839 -0.0932
27570W        W43379   2.734  13.051  12.159  0.0239  0.1510  0.0308
27571W        W43380   2.188  18.728  12.285 -0.0792 -0.0817 -0.1273
27572W        W43381  14.929  10.294   0.149 -0.2046  0.0383 -0.0091
27573W        W43382   5.382  15.993  15.177 -0.2022  0.0758  0.1709
27574W        W43383   5.014  18.228  11.290  0.0531  0.2527 -0.0736
27575W        W43384   3.987  14.500   3.740  0.3754  0.0464 -0.1301
27576W        W43385   3.351   8.918  12.880 -0.0612 -0.2064 -0.0189
27577W        W43386   0.870   1.922   3.340 -0.3115 -0.1884 -0.1476
27578W        W43387   6.342   3.984  14.304 -0.0575  0.1087  0.1306
27579W        W43388   4.677  13.981   3.252 -0.0969 -0.0717 -0.0230
27580W        W43389  14.237  13.507   5.804  0.1329  0.2283 -0.1723
27581W        W43390   5.794   0.028   4.008  0.2751 -0.0289 -0.0709
27582W        W43391  18.063   9.115   0.551 -0.2795 -0.0867  0.4013
27583W        W43392  12.290   1.983  12.210  0.2199  0.0312 -0.3259
27584W        W43393  13.315  18.325  12.201 -0.1030 -0.1142  0.2437
27585W        W43394   3.286   1.878   2.503  0.1241 -0.2353 -0.0373
27586W        W43395  10.212  12.266   3.741 -0.0951  0.0020  0.0409
27587W        W43396  16.301   8.841  14.229  0.3282  0.2408 -0.1075
27588W        W43397   6.375  13.242   0.028 -0.2057  0.0701  0.3454
27589W        W43398  10.039   6.984   3.838 -0.1893 -0.3049 -0.3444
27590W        W43399  12.639   2.895   0.428 -0.1036 -0.3559 -0.0579
27591W        W43400   4.336  15.625   2.404  0.0826 -0.1722  0.1667
27592W        W43401  13.646   1.525  12.305  0.2578  0.0113 -0.0924
27593W        W43402  11.632  17.578   3.831  0.1439  0.0020  0.0078
27594W        W43403  18.325  14.773  11.324  0.1095  0.1137 -0.1622
27595W        W43404   2.834   4.081   1.423  0.0358  0.1021 -0.2726
27596W        W43405   4.126  11.475   3.714 -0.0670  0.2292  0.0164
27597W        W43406   6.104  15.486   1.018 -0.0718  0.0508 -0.1132
27598W        W43407   8.480   7.482   3.943 -0.0923  0.1435  0.0143
27599W        W43408   9.655  15.124  10.716  0.3176  0.0819 -0.0602
27600W        W43409   3.579   0.991  13.592  0.0036  0.1659 -0.3242
27601W        W43410   0.027  16.425   1.494  0.3278  0.1680  0.0127
27602W        W43411   6.425   0.564  11.649 -0.1335 -0.0339  0.1709
27603W        W43412   3.251  15.818  14.363 -0.2436 -0.2170  0.0734
27604W        W43413   3.171   3.764  14.713  0.2520 -0.0627  0.1552
27605W        W43414   1.276   8.918   0.050  0.0293 -0.3951 -0.0389
27606W        W43415  15.442   9.124  14.282  0.4199 -0.0067 -0.1429
27607W        W43416  12.534   8.292   2.252 -0.0012  0.0865  0.0006
27608W        W43417  17.724   5.811  13.920 -0.0282 -0.3118 -0.0570
27609W        W43418   5.091  13.929   0.567  0.0695 -0.0723 -0.2324
27610W        W43419  19.126  10.658   0.236 -0.0068 -0.0947 -0.5838
27611W        W43420   8.072  12.422  12.157  0.0830  0.0499 -0.0030
27612W        W43421  14.595  17.036   4.508  0.1637  0.2218 -0.1241
27613W        W43422  18.805   0.551   0.491  0.2455  0.1305  0.0650
27614W        W43423  18.671   2.567   2.340  0.0758 -0.1965 -0.0353
27615W        W43424  16.759   8.546  13.900  0.0002 -0.2624  0.1463
27616W        W43425  14.802  17.364  15.064 -0.0330 -0.0858  0.2020
27617W        W43426  14.042  16.373   5.539 -0.0217 -0.2425  0.0842
27618W        W43427  10.936  13.177  14.504 -0.0181 -0.1389 -0.2037
27619W        W43428  10.000   6.116   0.397 -0.1005  0.1909 -0.0979
27620W        W43429   0.399   8.257   0.857  0.1958  0.1739  0.2077
27621W        W43430  14.098  11.129  11.597 -0.0350 -0.0467 -0.1889
27622W        W43431   7.493  13.784   3.931  0.3290  0.1139 -0.0692
27623W        W43432   0.471  18.861   1.619 -0.0291 -0.0836 -0.0196
27624W        W43433  14.290   4.574   3.237  0.1558 -0.1839  0.0366
27625W        W43434  17.231  11.426   1.830 -0.0809 -0.0310 -0.1406
27626W        W43435   4.881   2.282  11.991  0.2451  0.3516 -0.2342
27627W        W43436   8.490   2.970   4.785 -0.5144 -0.0593 -0.1400
27628W        W43437   6.086  14.417   5.019  0.0241  0.1794  0.1113
27629W        W43438  18.319   0.226   3.269 -0.4207  0.1711 -0.0113
27630W        W43439   0.553  10.739   3.052 -0.0266  0.2415  0.0682
27631W        W43440   5.185   2.476  14.224 -0.2131 -0.3715  0.2140
27632W        W43441  10.612  18.181   4.772  0.2672 -0.0321 -0.3289
27633W        W43442   8.360   2.102  13.218  0.3784  0.0881  0.1233
27634W        W43443   4.048   0.069  13.988  0.0611 -0.0066 -0.1328
27635W        W43444   4.182  14.990  13.656  0.2731  0.0063 -0.4057
27636W        W43445   0.707   9.804   0.491 -0.1211  0.2172  0.1011
27637W        W43446   7.996   8.245  12.649 -0.0405 -0.0453 -0.3209
27638W        W43447   2.548  12.094  14.658 -0.2901 -0.1085 -0.1972
27639W        W43448   4.352   2.543   0.489 -0.1701  0.4218  0.0885
27640W        W43449  14.830   7.969   2.665  0.0986  0.3873  0.1099
27641W        W43450  17.486   8.146   3.641  0.0549  0.0775  0.2213
27642W        W43451  13.884  18.186   5.677 -0.2135 -0.2320 -0.1190
27643W        W43452   1.800  12.209  12.845  0.2183  0.0017 -0.1525
27644W        W43453   9.336   5.139  15.012 -0.2031  0.0492 -0.2602
27645W        W43454   4.909   8.278   9.653  0.1926 -0.3084 -0.1080
27646W        W43455  11.679   6.761  15.165 -0.0570  0.3587  0.0827
27647W        W43456  16.480  14.090  15.126  0.0998 -0.1083  0.1345
27648W        W43457   0.481   0.696   1.988  0.0220 -0.0347  0.1307
27649W        W43458  18.523   0.476   1.130  0.2219  0.1460 -0.0146
27650W        W43459   8.798  15.732   3.254 -0.1417  0.1354 -0.1797
27651W        W43460  12.518  14.457   3.288  0.0164 -0.3746  0.1993
27652W        W43461  17.714   1.677  14.600  0.0996 -0.4455  0.0827
27653W        W43462   9.084   9.467   3.064  0.3691 -0.2325 -0.2844
27654W        W43463  15.242  18.434   3.179 -0.2207  0.0384  0.2369
27655W        W43464   7.335   4.272  12.694  0.1078  0.0066  0.0051
27656W        W43465   6.550  11.456   2.713 -0.3666 -0.0252 -0.0354
27657W        W43466   0.637   9.339   4.570  0.0251 -0.2047  0.0077
27658W        W43467  11.237   8.614   3.678 -0.1019  0.4446  0.0452
27659W        W43468   1.245   8.898   2.391  0.0493  0.4331  0.0468
27660W        W43469  10.230   5.014  12.819 -0.0140  0.1355  0.0093
27661W        W43470   7.099  10.440  13.742 -0.2908  0.3222  0.0888
27662W        W43471  10.308  14.637   4.055  0.3293 -0.3235 -0.2438
27663W        W43472  15.041  16.134   3.711  0.0873 -0.0985 -0.2985
27664W        W43473  14.017  15.350   0.140  0.4812 -0.2230  0.1612
27665W        W43474  19.082   7.326   1.972  0.0252 -0.4398  0.3612
27666W        W43475  10.948   8.603   0.681 -0.1738 -0.2391 -0.1215
27667W        W43476   8.021   9.551  11.482 -0.0643 -0.2911  0.0970
27668W        W43477  12.962   4.056   2.349 -0.0257 -0.2350  0.4129
27669W        W43478   0.891   7.116  11.489 -0.1485  0.4436 -0.0138
27670W        W43479  13.309  17.537  11.475  0.2394  0.1348 -0.0521
27671W        W43480   9.571   6.669  13.221  0.0400 -0.0721  0.0695
27672W        W43481  19.101  12.551  12.080  0.1572 -0.2890 -0.2622
27673W        W43482   6.520   5.772  11.824 -0.3229 -0.1499 -0.1870
27674W        W43483   9.277   0.573   4.146  0.0279  0.0359 -0.0783
27675W        W43484  12.174  10.996  14.913  0.0661 -0.0202  0.0059
27676W        W43485  18.492  12.288   4.401  0.1787 -0.2106 -0.0883
27677W        W43486   1.342  14.314  10.398  0.3638  0.3574  0.0985
27678W        W43487  11.284   8.471  10.583 -0.0332 -0.0943  0.0641
27679W        W43488   7.963  10.239   5.011 -0.1143 -0.0603 -0.1564
27680W        W43489  18.775  17.043   0.519  0.3086  0.2012  0.3501
27681W        W43490  18.877   7.997  10.986 -0.0498 -0.2130 -0.2332
27682W        W43491  14.006   3.064   1.011 -0.2784  0.0511 -0.1140
27683W        W43492   9.785   7.021   2.473  0.1654  0.3892  0.4972
27684W        W43493   5.557   0.252   1.880 -0.0750  0.1196 -0.1000
27685W        W43494   6.165   5.141   3.728  0.1033  0.1856 -0.1877
27686W        W43495  13.234   8.059  14.493  0.0669  0.0707 -0.3015
27687W        W43496   0.705   8.900   0.681  0.1167 -0.0739 -0.0790
27688W        W43497  13.136   2.334   3.562  0.3954 -0.2364 -0.1453
27689W        W43498   5.722   9.919  13.586 -0.1318  0.1247 -0.1717
27690W        W43499   7.903   0.691  13.941 -0.4102  0.1863 -0.1068
27691W        W43500  16.519  16.600   5.669  0.0608  0.5237  0.0128
27692W        W43501  12.348  13.418  12.432  0.0464  0.0354  0.2069
27693W        W43502  18.105   2.120  14.567  0.0659 -0.3119  0.0597
27694W        W43503   0.058  10.879  14.139  0.0809  0.3348 -0.0560
27695W        W43504   6.415   4.156   3.773 -0.1529  0.1550 -0.3156
27696W        W43505  18.990   9.950   0.943 -0.1599  0.0714  0.1199
27697W        W43506  12.265  10.526  12.530  0.0123  0.1153  0.3114
27698W        W43507   7.402   0.709   3.762  0.0152  0.1300 -0.1415
27699W        W43508  18.339  12.986  12.630  0.0047 -0.1272 -0.1309
27700W        W43509   0.254  17.090  11.965 -0.2000 -0.0971  0.0125
27701W        W43510   2.006  10.247   1.888 -0.0641  0.0569 -0.3592
27702W        W43511  14.995   9.748   1.556  0.2055 -0.2981  0.2800
27703W        W43512   7.522   6.995  13.637 -0.0254 -0.3402 -0.0344
27704W        W43513  14.891  18.987  14.275 -0.3551 -0.1309 -0.0637
27705W        W43514  11.639   3.645   2.597  0.1945 -0.0905 -0.1341
27706W        W43515   0.965   5.284  14.515 -0.1318 -0.0646  0.4346
27707W        W43516  12.473   4.831   4.714 -0.1798  0.0135 -0.2990
27708W        W43517  17.049  12.767   6.158 -0.0944  0.1266  0.3051
27709W        W43518   3.650   4.054   3.504  0.0094  0.0023  0.2909
27710W        W43519  16.779   6.246  14.669  0.3473 -0.0891  0.0294
27711W        W43520  11.042  15.254   2.599  0.1555  0.3813 -0.3492
27712W        W43521  11.186   4.572   1.606  0.0488 -0.1812  0.1845
27713W        W43522   6.343  14.908   3.579  0.3201 -0.2224 -0.0497
27714W        W43523   8.134   9.328  13.453 -0.0179  0.0001 -0.1602
27715W        W43524  17.705   9.861   9.851  0.0658 -0.3896  0.3032
27716W        W43525  13.946  11.147   0.458  0.0682 -0.1156  0.4752
27717W        W43526   9.824   4.419   4.108  0.0110 -0.1519 -0.0176
27718W        W43527  18.884  11.379   4.003  0.2044 -0.0179 -0.3352
27719W        W43528  16.167   1.277  12.961  0.2958 -0.1388  0.1404
27720W        W43529  11.983  16.824   4.129  0.0643 -0.0470  0.0107
27721W        W43530  16.437   3.661  14.119  0.0553 -0.1287 -0.0992
27722W        W43531   5.859   4.337   1.040  0.3232 -0.0368 -0.0213
27723W        W43532   6.657  12.408   1.632 -0.1926  0.0016 -0.1947
27724W        W43533  10.499  17.081  10.939  0.0086  0.2290 -0.0942
27725W        W43534   1.017   2.907  10.994  0.0263  0.2104 -0.0140
27726W        W43535   9.961  18.846   5.152 -0.1837 -0.2144  0.0134
27727W        W43536  14.786  12.767   1.101 -0.0884  0.0727  0.2514
27728W        W43537   7.472  10.829  12.272  0.1319 -0.0433 -0.0417
27729W        W43538   0.011   0.608   2.221  0.2223 -0.2863  0.0239
27730W        W43539   0.313  10.905   5.314  0.2946  0.2981  0.2169
27731W        W43540   0.803   6.111  11.154 -0.2297 -0.0265 -0.1040
27732W        W43541  14.921  10.847   0.239  0.0495  0.1655  0.3328
27733W        W43542   1.043   1.916  13.499 -0.4328 -0.0736  0.1929
27734W        W43543   0.393  13.733   2.765 -0.2569 -0.3400  0.4015
27735W        W43544   6.013  12.845  10.849 -0.0646  0.2058  0.1327
27736W        W43545  15.923   6.313  12.717 -0.2106  0.1567  0.4080
27737W        W43546  11.639  16.512   9.834  0.0124 -0.0262  0.2321
27738W        W43547   4.372   9.198   3.727  0.1140  0.1885  0.0857
27739W        W43548   1.045   9.966  11.393 -0.0054  0.2426  0.0274
27740W        W43549  18.278   4.569   1.767  0.0058  0.1090 -0.0133
27741W        W43550   5.656   1.142   0.927 -0.1435  0.2880  0.0547
27742W        W43551   1.548   0.661  13.169  0.1278  0.1254 -0.0387
27743W        W43552   5.021   5.551  12.362  0.0892  0.1957  0.1374
27744W        W43553   7.966  16.147  13.699 -0.2254 -0.0149 -0.0530
27745W        W43554   1.363  15.921   2.733  0.0156 -0.1286 -0.0009
27746W        W43555  14.088   2.023   4.777  0.1367  0.1968  0.0118
27747W        W43556   6.959   7.232  11.584 -0.1263 -0.2091 -0.1645
27748W        W43557   5.954   0.264  11.571  0.0938  0.3331  0.0326
27749W        W43558  15.931  10.086   5.146 -0.4207  0.0391 -0.1199
27750W        W43559  14.474   2.318  13.647 -0.0962  0.1757  0.0845
27751W        W43560   0.839   5.567  12.506 -0.0965 -0.0814  0.1307
27752W        W43561  18.029  18.789  10.457 -0.0349 -0.2836  0.0585
27753W        W43562  18.728   2.993   2.027 -0.1140 -0.0239 -0.4858
27754W        W43563  16.332   6.108  13.377  0.2311 -0.1967  0.3791
27755W        W43564  18.802   6.575  11.570  0.1085 -0.0147 -0.0978
27756W        W43565  11.961   1.090   2.971  0.0607 -0.1102  0.0439
27757W        W43566  14.492   9.984   4.806  0.0351  0.3025 -0.2737
27758W        W43567  18.962  17.491   4.465  0.1714  0.1310  0.0566
27759W        W43568  10.775   9.194   1.313 -0.0140 -0.2074 -0.3186
27760W        W43569   1.276   3.729  11.422  0.0057  0.0707 -0.1397
27761W        W43570  12.317  13.918  13.895 -0.0278 -0.0545 -0.3864
27762W        W43571   0.164  12.346  13.189 -0.3217 -0.0613 -0.3591
27763W        W43572   2.440  10.211  10.580  0.3907  0.1076  0.1052
27764W        W43573   9.774   9.227  14.784  0.2516 -0.2556  0.0826
27765W        W43574   5.602   1.847  14.343  0.0145 -0.3660 -0.1252
27766W        W43575  18.286   5.345  13.583 -0.0983  0.1449 -0.1874
27767W        W43576   9.105  12.942   2.921  0.0043 -0.0543  0.0558
27768W        W43577  13.614   5.080   1.646  0.0019  0.0612  0.0845
27769W        W43578   0.228  16.883   3.483 -0.0497  0.5544  0.2489
27770W        W43579  18.502   4.978  13.991 -0.1644 -0.2941 -0.0826
27771W        W43580  11.459   6.656  13.778  0.0874  0.0190  0.0448
27772W        W43581  10.958   3.368   0.462 -0.0804  0.1603 -0.2310
27773W        W43582  14.732  10.761  12.281 -0.0695 -0.0624 -0.3536
27774W        W43583   5.437   7.519  11.403 -0.1989 -0.1112  0.1062
27775W        W43584  11.488   3.293  12.339  0.1571  0.0703 -0.0043
27776W        W43585  10.576   7.206  13.742  0.1846 -0.0985 -0.3018
27777W        W43586   2.081   2.678   2.881 -0.2821  0.0371 -0.3801
27778W        W43587   4.981   0.607  10.204 -0.1239 -0.1010  0.0442
27779W        W43588   6.701   9.998  12.757 -0.3376 -0.0435 -0.4276
27780W        W43589   0.550   0.992  11.553  0.1714 -0.2301  0.3208
27781W        W43590  11.389   2.497   4.230 -0.3027  0.2317  0.0927
27782W        W43591  18.380  17.587   2.347  0.0106  0.0799 -0.0806
27783W        W43592   4.289   1.796  13.504 -0.2597 -0.0412 -0.1386
27784W        W43593  18.063  17.171  11.149  0.0650  0.0486  0.0879
27785W        W43594   1.885  17.866  11.986 -0.2533 -0.0042  0.2711
27786W        W43595  14.761  18.986  10.822 -0.1815  0.0403 -0.4312
27787W        W43596  12.486  11.501  14.560  0.0819 -0.3022  0.0275
27788W        W43597   1.501   7.968  12.605  0.1598 -0.2716  0.0185
27789W        W43598  13.110   7.666  13.546  0.1811  0.1315 -0.0713
27790W        W43599   9.339   1.517  15.170  0.2964  0.0737  0.0811
27791W        W43600   0.085   0.038   0.856  0.0310  0.2604 -0.1324
27792W        W43601  18.962   5.304  13.547 -0.1748 -0.3412  0.1976
27793W        W43602  14.847   9.363  15.104  0.2162  0.1983 -0.0312
27794W        W43603  15.386   6.462  11.425 -0.2330  0.1617  0.0295
27795W        W43604   1.370  16.708   2.637  0.2810  0.0856 -0.0052
27796W        W43605   4.475   2.098   0.798  0.1636 -0.0973  0.0340
27797W        W43606   6.662   7.188   0.746 -0.0772  0.2185  0.0996
27798W        W43607   4.153   8.154   4.733 -0.2450  0.1271  0.0712
27799W        W43608  14.304  12.099   0.511  0.3321 -0.2497 -0.1232
27800W        W43609  14.199  12.117   4.149 -0.1009 -0.1199 -0.0565
27801W        W43610   1.323   4.458  10.619 -0.0034 -0.1414 -0.0117
27802W        W43611   6.712   7.006  13.222 -0.0006  0.0991 -0.2362
27803W        W43612  11.920  10.771  11.655 -0.1026  0.0519 -0.4910
27804W        W43613   0.495   0.121  13.132 -0.2981 -0.0436  0.4445
27805W        W43614  13.431  14.926   0.693 -0.2327 -0.0418  0.1346
27806W        W43615  15.732  12.613   1.592 -0.3336  0.2834  0.1267
27807W        W43616   1.259  12.695   0.162 -0.1847  0.1444  0.1797
27808W        W43617   1.496  11.068   0.913 -0.2375  0.1020  0.0648
27809W        W43618   2.019   1.804   2.225  0.2735 -0.0586  0.2944
27810W        W43619  13.808   1.958   4.107  0.1428 -0.1632 -0.0520
27811W        W43620   5.919   7.310  12.762  0.0160 -0.0950  0.2207
27812W        W43621  15.506  13.896   3.610 -0.1185  0.2862  0.6089
27813W        W43622  13.949  17.338   2.901  0.1442  0.1203 -0.4836
27814W        W43623   1.914  14.034   0.524  0.1319 -0.2041 -0.1736
27815W        W43624   2.805  11.859  15.052  0.1017 -0.4475  0.0005
27816W        W43625  10.056  14.399  13.158 -0.1082  0.0316 -0.0871
27817W        W43626  16.200  13.575  12.849 -0.0673 -0.3936  0.1921
27818W        W43627  14.943   3.406   3.958  0.1579  0.1418 -0.3120
27819W        W43628   4.046   4.776   3.968 -0.1019 -0.0162 -0.0994
27820W        W43629  17.949  12.738  12.750 -0.0961  0.3130 -0.2235
27821W        W43630   6.646   0.009   0.565  0.4181  0.2301  0.1317
27822W        W43631  17.214  11.216  10.834 -0.0688 -0.0560 -0.0232
27823W        W43632  15.145  10.361  11.669 -0.1533  0.1527  0.0272
27824W        W43633  11.106  15.374   4.879  0.0297 -0.0945  0.0289
27825W        W43634  11.437   6.841  11.885  0.0800 -0.1883 -0.1592
27826W        W43635  16.882  16.655  12.615 -0.3698  0.1854 -0.1867
27827W        W43636   8.845  18.710  11.764  0.0390 -0.4225 -0.1658
27828W        W43637  14.073   8.354  15.134  0.2351 -0.0450 -0.0658
27829W        W43638   2.149  12.034   9.275  0.1172  0.3829 -0.1760
27830W        W43639   1.971  17.547  14.595 -0.1952  0.2230  0.2302
27831W        W43640   0.022  14.932  11.875  0.2144 -0.3181 -0.0608
27832W        W43641   6.762   6.889  11.292 -0.1659  0.1581  0.3373
27833W        W43642  12.584  12.524   1.957  0.1073 -0.2161 -0.1784
27834W        W43643  16.894   4.684   1.003 -0.0404  0.0763 -0.2722
27835W        W43644  16.877   9.293  10.628  0.0224 -0.2230 -0.1369
27836W        W43645   6.507  16.359   4.283  0.3699 -0.0850 -0.4095
27837W        W43646   5.795   2.327  12.977 -0.4108 -0.2157 -0.0045
27838W        W43647  15.653  13.284  12.187  0.2425 -0.0755 -0.0555
27839W        W43648   3.219   8.806   0.404 -0.0997  0.0479 -0.1853
27840W        W43649  13.626   3.387  12.263  0.0713  0.0435 -0.1237
27841W        W43650   2.173  11.431  11.897  0.2725 -0.2552  0.1421
27842W        W43651  15.032   6.421   2.944  0.2550  0.0958  0.1935
27843W        W43652   9.201  13.472   0.202 -0.1638 -0.2400 -0.0627
27844W        W43653   7.969  12.105  11.412  0.0222  0.1911  0.0664
27845W        W43654   4.583   4.673   1.409 -0.2648  0.0890  0.0471
27846W        W43655   0.169  15.238   2.448  0.0942  0.0949  0.0831
27847W        W43656  10.840   3.456   1.414  0.1424  0.4408  0.1308
27848W        W43657   6.170  19.007   0.842  0.0282  0.0406 -0.1671
27849W        W43658  16.363  10.759  14.134  0.0362  0.0339  0.2957
27850W        W43659   8.029   9.689   5.115 -0.0955 -0.1350  0.1325
27851W        W43660  13.222   0.747   1.815  0.1748  0.0561 -0.2657
27852W        W43661  16.053   4.534  15.113  0.1388 -0.0686 -0.0667
27853W        W43662   8.580   3.919  12.325  0.0870 -0.1319  0.0310
27854W        W43663   6.082   9.194   3.997  0.0562  0.0103 -0.1718
27855W        W43664   4.738   1.200   5.401 -0.2062 -0.2347  0.0970
27856W        W43665   5.586  11.518   2.005  0.0850 -0.2606  0.2269
27857W        W43666   0.168  11.065   1.969  0.3166  0.2349 -0.0857
27858W        W43667  16.203  15.385  11.492  0.2714  0.3986  0.3078
27859W        W43668   3.213   1.251  14.004  0.1616 -0.0240 -0.3044
27860W        W43669  17.272  14.739  12.190  0.0883  0.0480  0.2603
27861W        W43670   2.137   2.389  14.630 -0.0444 -0.1943  0.0846
27862W        W43671  16.571   7.811  11.150 -0.0456 -0.3594 -0.1166
27863W        W43672   8.470   7.160  12.627  0.0414 -0.0406  0.1005
27864W        W43673  17.449  11.147   2.131 -0.2224  0.1888  0.3130
27865W        W43674   8.228  18.399   3.192  0.2599  0.0133 -0.1394
27866W        W43675   9.617   1.922  11.012 -0.0445  0.4020 -0.6538
27867W        W43676   4.562   0.740  15.194  0.1982 -0.2552 -0.0274
27868W        W43677   5.008  17.688  11.590  0.3472  0.2042 -0.0539
27869W        W43678  16.105   9.347   1.858 -0.0032 -0.1741  0.1602
27870W        W43679  15.761   4.649  12.068  0.0979  0.1444 -0.2125
27871W        W43680  14.756   4.823  14.808 -0.0925 -0.0092 -0.2891
27872W        W43681  10.736  12.717  14.125 -0.0314  0.0199 -0.0747
27873W        W43682  11.946   4.989   3.868 -0.4044 -0.2892 -0.2300
27874W        W43683  14.281  14.801   0.835  0.0165 -0.5365  0.0838
27875W        W43684  10.884   4.525  14.066 -0.1886 -0.3135  0.0404
27876W        W43685  13.317  17.005   3.556 -0.2515 -0.0361  0.1327
27877W        W43686  18.309   4.552  12.002 -0.0620 -0.0331 -0.0870
27878W        W43687   2.048   6.137  14.957 -0.2202  0.2393  0.2260
27879W        W43688   0.829  13.333  14.685  0.3302  0.2564 -0.0252
27880W        W43689  18.665  16.447   0.339  0.2115  0.0495 -0.0966
27881W        W43690  14.106  12.405  13.369 -0.0862  0.0366  0.0295
27882W        W43691  16.704  13.791   2.720  0.0856 -0.1394 -0.1384
27883W        W43692  10.972  16.269  13.196  0.1489  0.0585  0.0774
27884W        W43693  15.750  14.664   0.360  0.0047 -0.0868 -0.0100
27885W        W43694   2.530   6.800   2.947  0.1626  0.0621 -0.0149
27886W        W43695   3.593  13.082  12.694 -0.0563 -0.0371  0.2322
27887W        W43696  15.724   0.403   4.894  0.0081  0.2751 -0.3114
27888W        W43697   3.250   7.883  12.258  0.1803 -0.3017 -0.1825
27889W        W43698  12.654  14.645  12.243  0.2796  0.0128 -0.2233
27890W        W43699   4.535  14.908   2.177  0.4789 -0.2991 -0.1860
27891W        W43700  18.602   3.790  12.592 -0.1450  0.2232 -0.1714
27892W        W43701  14.045   3.216  12.041 -0.3170  0.2027 -0.2382
27893W        W43702  10.877   5.383   3.878  0.1908 -0.0039 -0.0317
27894W        W43703  11.959  10.624   4.198 -0.0731 -0.2645 -0.1578
27895W        W43704   5.827  16.280  13.763  0.4418 -0.1012 -0.2680
27896W        W43705  10.726  18.157   5.301  0.3004 -0.3852  0.4029
27897W        W43706   2.480   9.097  11.701  0.3956 -0.1243 -0.2666
27898W        W43707  14.905  15.444  14.876 -0.2658  0.4000 -0.0277
27899W        W43708  18.239  14.570  10.810  0.1629 -0.2035 -0.3014
27900W        W43709   3.357  19.124   4.748 -0.1876 -0.0612  0.0526
27901W        W43710   5.299  11.683   2.428  0.1477 -0.2460  0.0222
27902W        W43711  15.523  16.225   2.246 -0.4614 -0.0044  0.1044
27903W        W43712   2.805   7.953  12.538  0.3227  0.1531 -0.1994
27904W        W43713   9.003  11.856   1.943 -0.3184  0.3362  0.0078
27905W        W43714   0.316  12.921   4.652 -0.1028  0.0994 -0.0724
27906W        W43715   0.879  16.129   9.872  0.2242 -0.0165 -0.2354
27907W        W43716  19.144   2.296   0.803 -0.0633  0.0747 -0.0647
27908W        W43717  17.480  14.906  11.772  0.1152 -0.3054  0.1365
27909W        W43718  15.123   9.386  13.857 -0.1580  0.1686  0.3376
27910W        W43719   1.449   9.621  11.456 -0.3127  0.0141  0.2170
27911W        W43720   7.484  16.251   5.827  0.2456 -0.3100  0.3513
27912W        W43721  11.003  12.928  12.061  0.1048 -0.0454 -0.2446
27913W        W43722  13.806   9.206   4.972 -0.2868 -0.2301  0.0952
27914W        W43723   2.532   1.033   2.209 -0.0654  0.0116 -0.0870
27915W        W43724   5.057   6.489  12.043  0.1250  0.2121 -0.4037
27916W        W43725  17.760   9.914  13.239  0.1582 -0.1969  0.1712
27917W        W43726   7.436   5.051  14.273 -0.0729 -0.0982  0.1656
27918W        W43727   6.658  14.523  13.790  0.0396  0.1142  0.0665
27919W        W43728  10.916  11.029   2.631  0.2441  0.1136  0.0698
27920W        W43729  11.867   2.525  13.161  0.2433 -0.0785 -0.0549
27921W        W43730  17.707  17.823   4.261 -0.0448 -0.2345  0.2369
27922W        W43731   3.010   7.321  11.640  0.1309  0.1086  0.0703
27923W        W43732  12.620  10.384   2.171 -0.2080  0.0184  0.0835
27924W        W43733   7.241  10.442  13.276 -0.3856 -0.2170  0.0079
27925W        W43734   9.954   1.866  14.080  0.3316  0.2325  0.1299
27926W        W43735  14.207   2.185  12.215 -0.3289  0.0431 -0.0214
27927W        W43736   0.569  18.110  10.896 -0.1303  0.2216 -0.1485
27928W        W43737  15.547   1.723   4.548  0.1266  0.4202  0.1013
27929W        W43738  13.076  16.126  11.178  0.2254  0.2765  0.3230
27930W        W43739  18.640   5.991  12.764 -0.0623 -0.1376 -0.1255
27931W        W43740   8.871  17.388  10.631 -0.0846  0.0455  0.1246
27932W        W43741   2.955   3.363   0.761  0.0276 -0.0742 -0.2214
27933W        W43742  17.028  12.949  11.856 -0.2201 -0.0374  0.0323
27934W        W43743   5.603  10.058  11.893  0.2450  0.0353 -0.3101
27935W        W43744  17.208   9.621  10.699  0.3259 -0.0402 -0.1959
27936W        W43745   2.672  17.430   1.046  0.1698 -0.4136  0.0399
27937W        W43746   1.979   4.384  12.252 -0.2777 -0.2819  0.1573
27938W        W43747  11.800  14.875   5.752  0.1072  0.1669 -0.0606
27939W        W43748  19.037   8.626   2.201  0.2225 -0.3325  0.1114
27940W        W43749   3.886  18.876  13.503  0.0763  0.0874  0.0462
27941W        W43750  10.630   2.153  11.183  0.2967 -0.0818  0.0742
27942W        W43751   0.535  16.225   4.309 -0.2674  0.0082  0.3063
27943W        W43752   6.787   0.290   2.811  0.0907  0.0334 -0.0705
27944W        W43753   4.471   7.430   1.850  0.3472 -0.1216  0.1920
27945W        W43754   0.221  10.259   1.763 -0.2184  0.0207 -0.2812
27946W        W43755  11.414  19.024  11.666  0.1322 -0.2204  0.0154
27947W        W43756   1.564  11.025  13.978 -0.0351  0.1078  0.1059
27948W        W43757   1.548  12.595   0.719 -0.1516  0.0378 -0.3030
27949W        W43758   7.358  18.142  13.658 -0.0755  0.0852 -0.0233
27950W        W43759  11.611   3.562  10.554 -0.1958  0.3583  0.0556
27951W        W43760  11.882   3.930   3.977 -0.2506 -0.2411  0.1755
27952W        W43761  11.434  18.814  10.061 -0.1252  0.0402 -0.2409
27953W        W43762   2.077  18.077   9.208 -0.2298  0.2561  0.2822
27954W        W43763   5.230  16.420  11.153 -0.4062  0.0610  0.1955
27955W        W43764   7.776  16.231   1.301 -0.4570 -0.0589 -0.1315
27956W        W43765  12.065   8.907  14.287 -0.1556 -0.0758 -0.1596
27957W        W43766   0.364  13.282   9.794 -0.3961 -0.0524 -0.2894
27958W        W43767  12.765  17.789   0.703 -0.0349 -0.1240 -0.2248
27959W        W43768   6.945   6.342  15.064 -0.1687  0.0675 -0.0472
27960W        W43769  12.850  12.766   3.326  0.2066  0.0444  0.2561
27961W        W43770   8.276  14.159   0.604 -0.0563  0.0809 -0.0952
27962W        W43771   1.325   4.788   2.011  0.0456  0.2179  0.1452
27963W        W43772  14.935  11.654   2.268 -0.1890 -0.2419  0.0339
27964W        W43773  11.498  18.897  12.621  0.0255 -0.0271  0.3491
27965W        W43774   7.873   2.369  12.382 -0.0284 -0.0529  0.0330
27966W        W43775  16.191   6.116  10.874  0.3228  0.1756  0.0699
27967W        W43776   8.833  14.989  14.226  0.2854 -0.0904  0.4194
27968W        W43777   1.691   9.179  10.424  0.0159 -0.2450 -0.0316
27969W        W43778  17.970  15.166  11.829 -0.0558  0.0717 -0.1254
27970W        W43779  11.477  13.430  13.671 -0.0589  0.0546  0.1993
27971W        W43780   9.304   5.730   0.388 -0.1958  0.2486  0.1470
27972W        W43781  12.108  17.521   3.595 -0.2395  0.2231  0.1733
27973W        W43782  14.962  15.035  10.063  0.2761  0.0886  0.1864
27974W        W43783   7.367   9.683   2.776  0.4521  0.1860 -0.0038
27975W        W43784   3.835  12.869  13.657 -0.0750  0.0252  0.1031
27976W        W43785   2.284  11.531  12.409 -0.2256 -0.1294 -0.3219
27977W        W43786   8.029   8.832  13.402  0.1554 -0.1340 -0.4856
27978W        W43787  17.487   5.758  13.403  0.2298 -0.0691  0.1764
27979W        W43788  11.131  12.255   3.307 -0.1337 -0.0271  0.3691
27980W        W43789   6.482   7.297   4.223 -0.1302  0.2353  0.3170
27981W        W43790  16.924   1.295  12.679 -0.2752  0.1688 -0.0470
27982W        W43791  18.641   0.305  14.591 -0.1928 -0.0097 -0.4219
27983W        W43792  11.103  17.601  11.492  0.5018  0.0774  0.1241
27984W        W43793   7.467   5.301  12.874  0.0248 -0.1960  0.2227
27985W        W43794   1.992  13.890  13.046  0.4487 -0.3341  0.0445
27986W        W43795   6.054   3.036  14.541  0.1605  0.3188 -0.2248
27987W        W43796   9.338   0.211   6.036  0.2059  0.2609  0.4686
27988W        W43797   2.881   1.612   4.561  0.0718  0.0733 -0.1754
27989W        W43798   3.774  17.472   2.233  0.0960 -0.3507  0.1034
27990W        W43799  18.834  14.249   5.025  0.1494  0.0874 -0.2699
27991W        W43800   9.599  14.255  14.562 -0.2791  0.0399  0.1437
27992W        W43801   7.672  18.791  13.946 -0.3703 -0.0200 -0.2442
27993W        W43802   9.349  16.640   2.174  0.0737 -0.3658  0.1694
27994W        W43803   7.276  16.778   2.078  0.0498 -0.0501 -0.3244
27995W        W43804   9.793  19.005   1.591  0.0421 -0.0655 -0.1505
27996W        W43805  12.175  13.471   1.501  0.1999  0.0022 -0.1261
27997W        W43806  14.063   1.513  13.914  0.0549  0.0476 -0.2922
27998W        W43807  13.301  16.238   3.334  0.1093 -0.0386 -0.0490
27999W        W43808  13.476   1.122   1.138 -0.1708 -0.1921  0.0736
28000W        W43809   6.618  10.252  10.581  0.1850  0.2043  0.1365
28001W        W43810   9.793  12.068   3.063 -0.0597  0.1268  0.1171
28002W        W43811   7.687   7.231  13.172 -0.1337  0.3085  0.0133
28003W        W43812   4.794  10.983  10.378  0.1060  0.1713  0.3144
28004W        W43813   8.966   4.581   1.503 -0.2540 -0.1452 -0.1710
28005W        W43814  11.181  13.772   4.197 -0.0167 -0.2158 -0.2207
28006W        W43815   3.203  17.225  11.158 -0.1259 -0.2745  0.1716
28007W        W43816  11.479  13.976  11.765  0.2573 -0.0603  0.1070
28008W        W43817  16.487   7.204  13.755  0.2501  0.0090  0.0748
28009W        W43818   3.100   7.213  13.031 -0.2947 -0.0432  0.1014
28010W        W43819  16.276  14.825   1.949  0.4110  0.1405 -0.1882
28011W        W43820  18.856  18.164  12.114 -0.1774 -0.0240 -0.2734
28012W        W43821  12.435  16.659   4.167 -0.1084  0.0508  0.3178
28013W        W43822   4.348  17.104   0.476  0.2650 -0.1765 -0.1098
28014W        W43823   4.969  11.180  13.397 -0.4394 -0.3247  0.0751
28015W        W43824  12.457   2.493   4.653  0.2149 -0.1217  0.2863
28016W        W43825   5.173  10.152   0.034 -0.0930  0.0164  0.0924
28017W        W43826  16.352  14.739   2.947  0.1921 -0.0449  0.1430
28018W        W43827   3.842   5.045  15.183 -0.1798 -0.2116 -0.0292
28019W        W43828  17.552   1.603   2.269 -0.1656  0.1214 -0.0742
28020W        W43829   1.764   4.960  10.377 -0.0095 -0.1287  0.1305
28021W        W43830   4.091   6.212   2.040  0.3047 -0.2519  0.3558
28022W        W43831  15.030  15.007   2.996 -0.1565 -0.2452 -0.0733
28023W        W43832   3.179   1.508   3.537 -0.4233  0.3679  0.0924
28024W        W43833   2.699  18.500   2.627  0.1467  0.2347 -0.2184
28025W        W43834   0.738   6.999  13.120  0.1093 -0.1027  0.3689
28026W        W43835  15.891   5.074  12.949  0.1319 -0.2319 -0.2185
28027W        W43836  14.815   2.780   3.348 -0.0777  0.2495  0.1445
28028W        W43837   8.259   5.656  12.519  0.0575  0.0726 -0.1456
28029W        W43838   6.168  10.857   0.688 -0.0696  0.1949 -0.1640
28030W        W43839   0.580   7.657  12.972  0.2976 -0.1614  0.7137
28031W        W43840   3.968  15.199  15.023 -0.1195 -0.1236  0.1734
28032W        W43841  18.798   1.567   1.133  0.1428  0.0234 -0.2770
28033W        W43842   6.619   1.479   2.672  0.0391 -0.1653  0.2129
28034W        W43843   2.273   2.735  15.088 -0.3793 -0.1953  0.2398
28035W        W43844  10.733   2.254   3.598  0.0783  0.2485  0.2440
28036W        W43845   3.999  14.589   4.401  0.0525  0.0806  0.0761
28037W        W43846   8.940  19.057  15.145 -0.3457 -0.1516 -0.2536
28038W        W43847   3.109  11.904  12.941  0.0035  0.0609 -0.0834
28039W        W43848   1.438  15.638  13.490  0.2315 -0.0174 -0.2835
28040W        W43849  15.560  16.757   1.912  0.0950  0.2610 -0.1730
28041W        W43850   4.657   1.269   2.859 -0.0661 -0.3211  0.1331
28042W        W43851  18.715  15.035   0.523 -0.1312  0.2804  0.0851
28043W        W43852   0.480  11.571  12.661 -0.3400 -0.3783  0.1446
28044W        W43853  18.335   4.666  14.345  0.0863  0.1385 -0.1433
28045W        W43854   4.321  18.435  11.839  0.0177  0.2488  0.2106
28046W        W43855  10.298  18.675  12.910  0.0691 -0.3993  0.2257
28047W        W43856   2.499   0.242   2.539 -0.2770  0.1708 -0.0769
28048W        W43857   2.973   7.083   5.068  0.2479  0.3223 -0.2121
28049W        W43858   7.840   2.346   2.090  0.1250  0.1923  0.3761
28050W        W43859  14.381  18.199  14.102 -0.2225  0.0385 -0.1582
28051W        W43860   8.000   8.857  14.728  0.1675  0.0084 -0.0866
28052W        W43861   0.237  18.212   4.709 -0.1492 -0.1541  0.2354
28053W        W43862  10.455   7.731  11.336 -0.0831  0.0270 -0.4887
28054W        W43863   3.992  16.222  10.426  0.1819 -0.0253  0.0668
28055W        W43864   6.963  12.941   3.397 -0.2103  0.1861  0.1839
28056W        W43865  12.677  17.479  14.061  0.0805  0.1056 -0.0022
28057W        W43866  13.340   5.865  13.690 -0.3045 -0.1877 -0.0538
28058W        W43867   7.037  13.420  14.823  0.1908 -0.1668  0.2395
28059W        W43868   6.187  17.743   0.995  0.0013  0.2745  0.2288
28060W        W43869  10.109  15.812   2.011  0.0406 -0.0806  0.2195
28061W        W43870   7.826   2.472   4.082  0.1416  0.2675 -0.3194
28062W        W43871   4.632  13.414   2.597 -0.0693  0.1885 -0.1204
28063W        W43872   2.737   5.291  11.854  0.1264  0.1552 -0.0682
28064W        W43873   6.471  18.538   0.955  0.0317 -0.3344  0.1791
28065W        W43874   6.100  16.536   3.341  0.0138 -0.0155  0.2207
28066W        W43875  12.048   3.176   1.869  0.3872 -0.3484 -0.1753
28067W        W43876   8.006  11.613   2.578 -0.3458 -0.0419 -0.2771
28068W        W43877   9.878  13.182   4.577  0.1921 -0.1915  0.1618
28069W        W43878  13.883  11.519  14.674  0.3087 -0.1021  0.1653
28070W        W43879   3.897   1.955  11.300  0.2425  0.0261  0.1512
28071W        W43880  15.548  12.863  11.061 -0.0378 -0.0262 -0.0362
28072W        W43881   2.266   5.911  14.531 -0.2453 -0.2299 -0.3061
28073W        W43882   8.599   0.253  11.835 -0.1676 -0.1855 -0.0611
28074W        W43883   3.987  14.380   1.104 -0.2013  0.2325 -0.2343
28075W        W43884   4.796   2.327   2.893  0.1584 -0.0507 -0.0390
28076W        W43885  10.209  18.241  11.801 -0.1430  0.2086 -0.2159
28077W        W43886   2.333  14.077   3.876 -0.0249 -0.0771  0.0869
28078W        W43887  15.548  14.521   0.853 -0.0428  0.0281 -0.0943
28079W        W43888   5.205  14.196   1.961  0.2400 -0.1436  0.0252
28080W        W43889  12.010   5.074   4.774 -0.4113 -0.0999  0.3537
28081W        W43890  11.711   7.869   5.038 -0.0472 -0.0593 -0.0729
28082W        W43891  11.056   4.100  13.527  0.0958  0.0722  0.0437
28083W        W43892   4.001   1.607   1.357 -0.0566 -0.4175  0.0450
28084W        W43893   9.691  16.423   4.283 -0.1091  0.0133 -0.1612
28085W        W43894   2.562  13.781   1.328  0.2991 -0.1350  0.2080
28086W        W43895  13.426  10.809   3.922 -0.1849 -0.0475  0.0283
28087W        W43896   3.460   0.783  11.020 -0.1239  0.0264  0.4145
28088W        W43897   7.222  11.758  10.284  0.2753 -0.1867 -0.1629
28089W        W43898   1.136   9.101   9.119  0.1108  0.3005  0.3141
28090W        W43899   1.619  18.687  11.619  0.0649 -0.1017 -0.5002
28091W        W43900   0.540   6.730  11.397  0.0350  0.2913 -0.0155
28092W        W43901  17.902  10.704  13.100 -0.0006 -0.0803  0.0678
28093W        W43902   4.226   0.883  11.840  0.0608  0.0613 -0.2704
28094W        W43903   1.221   2.770  12.160  0.1412 -0.2167  0.0975
28095W        W43904   2.749  13.534  13.025  0.0625  0.0525 -0.3035
28096W        W43905  15.396   3.197  12.139  0.0128  0.4416 -0.1510
28097W        W43906  11.698   8.269   1.716  0.1646  0.0656 -0.0447
28098W        W43907   8.722   9.562  10.795 -0.2375 -0.0010 -0.3598
28099W        W43908   7.736   6.173   4.519 -0.1678 -0.3515  0.0300
28100W        W43909  12.189   0.512   0.271  0.0359 -0.2788  0.0251
28101W        W43910  10.598   5.429  13.943  0.0049  0.2483  0.3226
28102W        W43911   2.722  12.381   5.129  0.0236  0.2126 -0.2738
28103W        W43912  16.690  12.737   0.149 -0.1760 -0.1280 -0.2807
28104W        W43913   4.348   3.572   1.024 -0.1204 -0.2048 -0.0622
28105W        W43914  13.455   3.702   4.748 -0.2819 -0.0777  0.0322
28106W        W43915  16.804   5.810  14.402  0.1010 -0.4019 -0.0629
28107W        W43916  11.037  12.055  11.055 -0.0696 -0.0338  0.1190
28108W        W43917   7.695   8.228  10.423  0.2227 -0.0642 -0.0391
28109W        W43918  13.502   8.476   0.599 -0.3270 -0.3952  0.1117
28110W        W43919   9.265  10.614   1.469 -0.0086 -0.1184 -0.1367
28111W        W43920   7.719  13.587   4.393  0.1124 -0.1469  0.0633
28112W        W43921  16.349  11.955   0.180 -0.1311 -0.0997 -0.0707
28113W        W43922  13.566  13.200  13.659 -0.0036  0.2437 -0.0579
28114W        W43923   0.645   2.796   3.767 -0.1527  0.0825  0.2788
28115W        W43924   4.429   4.270   1.647 -0.0043 -0.1710 -0.1120
28116W        W43925   3.742  17.688  12.861 -0.1511  0.0442  0.1096
28117W        W43926   9.217   0.858   2.273 -0.1555 -0.0071 -0.0866
28118W        W43927   0.132  15.383  13.374  0.1582  0.1644  0.3383
28119W        W43928   0.109  14.557   1.898 -0.1760 -0.0393 -0.0397
28120W        W43929  15.983  15.211   1.136  0.2028  0.2378  0.4357
28121W        W43930  17.660   5.200  13.590  0.0158 -0.1025  0.1353
28122W        W43931   6.829  13.414   0.039  0.3012  0.2631  0.0420
28123W        W43932  17.270   8.875  10.523 -0.0931 -0.2573  0.2067
28124W        W43933   7.425   4.385   0.972 -0.2577 -0.1202 -0.3502
28125W        W43934   0.851  12.887   4.667 -0.0010  0.3936 -0.1475
28126W        W43935  12.457  14.451   2.318  0.0248 -0.1523  0.2175
28127W        W43936  17.159   3.782   2.236  0.1978  0.0336 -0.1961
28128W        W43937   1.799   7.751  13.896 -0.0015 -0.1196  0.1381
28129W        W43938  11.820   6.303  10.269  0.1804 -0.1435 -0.0638
28130W        W43939  15.853   1.675  11.948  0.0598 -0.0546  0.0965
28131W        W43940  10.884  11.203  13.259  0.0629  0.1799  0.1460
28132W        W43941   6.635   4.850  12.178 -0.3578  0.0708  0.0506
28133W        W43942   5.844  14.138   2.351 -0.1570 -0.1750  0.0990
28134W        W43943   0.431  11.402   0.022  0.1111  0.3015 -0.3016
28135W        W43944   6.085  12.745   2.830 -0.1456  0.0267  0.3199
28136W        W43945  13.151   8.580  14.380  0.0229 -0.2505  0.0013
28137W        W43946   9.300   7.801   2.389 -0.0155 -0.0517 -0.0308
28138W        W43947  10.027   1.200   4.960  0.0004 -0.0399  0.2177
28139W        W43948  17.875   3.159  13.366  0.3007 -0.1045  0.0903
28140W        W43949  15.014   8.233  10.249 -0.0273 -0.0342  0.4455
28141W        W43950   6.411  15.538  13.924 -0.1527 -0.0777  0.0436
28142W        W43951  13.644   0.581   1.320  0.2046  0.1026  0.0333
28143W        W43952   4.692   5.808   2.456 -0.0249  0.1000  0.1024
28144W        W43953   8.083   1.535  14.847  0.0120 -0.1761  0.1995
28145W        W43954   9.458  17.589   0.115  0.2831  0.0285  0.0918
28146W        W43955  14.683  16.122   0.510 -0.0372 -0.3635  0.3680
28147W        W43956  14.193  13.697  14.583 -0.3051 -0.4806  0.0560
28148W        W43957  18.585  12.375   1.213 -0.0692 -0.0344 -0.2362
28149W        W43958   8.002  14.937  15.184  0.1041  0.1483  0.1333
28150W        W43959  18.142   7.510   3.200  0.3860  0.0940  0.2971
28151W        W43960   7.280  17.635   1.092  0.0357 -0.1299 -0.0046
28152W        W43961   8.006   0.135   0.286 -0.0174 -0.0232 -0.3218
28153W        W43962  15.586   8.824  11.153  0.1132 -0.0646 -0.0718
28154W        W43963   7.933   2.947   4.934 -0.0922 -0.2322 -0.0190
28155W        W43964   0.646   1.347   0.758  0.0371 -0.1263  0.3425
28156W        W43965   7.046  14.010   1.191  0.0439  0.1882 -0.1394
28157W        W43966  15.867  11.220   6.066 -0.1005  0.2291  0.4267
28158W        W43967  17.261   9.381  12.166  0.1825  0.1092  0.4792
28159W        W43968   3.753   0.765   3.273 -0.3159  0.2106  0.3094
28160W        W43969  10.820   8.465  13.484  0.1191 -0.2526 -0.1942
28161W        W43970  11.787  13.977  13.533  0.0552 -0.0926 -0.1725
28162W        W43971  18.564   4.363  13.344  0.0412 -0.5258 -0.0154
28163W        W43972  15.527  13.735   4.436  0.1720 -0.0703 -0.0966
28164W        W43973  18.976  16.925  14.743  0.0643 -0.1884 -0.1016
28165W        W43974   4.645  14.191   0.368 -0.0598 -0.0037 -0.1540
28166W        W43975   2.160   1.899   0.376 -0.0170 -0.0267 -0.0260
28167W        W43976   1.449   2.133  11.233 -0.1685 -0.0662 -0.0332
28168W        W43977  17.554   9.448   3.945  0.1058  0.5111  0.1175
28169W        W43978  18.816   3.367   1.610 -0.1758  0.1790 -0.3340
28170W        W43979  11.929   0.696  12.813  0.2399 -0.2175 -0.0730
28171W        W43980  14.957  10.095  11.224  0.0980 -0.4609  0.1075
28172W        W43981   7.639   4.954  13.371 -0.1635 -0.0189  0.2119
28173W        W43982  16.496   5.538  14.127 -0.0936 -0.3468  0.0727
28174W        W43983  12.126   2.131  11.062 -0.3949 -0.0682  0.2713
28175W        W43984   3.101   0.583  15.135  0.1374 -0.0321  0.1111
28176W        W43985  15.117  12.744   5.422 -0.3545  0.2141 -0.4441
28177W        W43986  18.034  12.206  11.168 -0.1286  0.2599  0.1987
28178W        W43987  15.613  15.972  12.657 -0.0806  0.2565  0.0296
28179W        W43988   8.140  15.635   0.725  0.0481 -0.0298  0.1063
28180W        W43989  15.384   7.042   2.216  0.1641  0.0079 -0.2892
28181W        W43990   3.286   5.714   2.434 -0.2889 -0.1363 -0.1712
28182W        W43991   8.811  19.033  12.596  0.0804 -0.1825 -0.0385
28183W        W43992   2.476  11.029  15.123  0.2477  0.0648 -0.1355
28184W        W43993  16.093  12.861  12.193 -0.1147  0.0971  0.2646
28185W        W43994   3.727  10.905   9.504 -0.0847 -0.1620 -0.2318
28186W        W43995   7.921  11.279   1.166 -0.0677  0.0444  0.0619
28187W        W43996   5.978  14.013  13.815 -0.0360  0.2839  0.1000
28188W        W43997  10.240   9.977  10.151 -0.2776  0.1233  0.0579
28189W        W43998   6.186   0.636  14.276 -0.1485 -0.0408 -0.2909
28190W        W43999   3.628   6.317  13.815 -0.1067 -0.2497  0.3049
28191W        W44000   1.090  10.202   2.662  0.0524  0.1248  0.0466
28192W        W44001   5.506   3.793   5.584 -0.2931  0.0224  0.0506
28193W        W44002  16.669   4.699   3.836  0.2169  0.1217 -0.4113
28194W        W44003   8.381  14.234   4.688 -0.0347 -0.2934  0.0302
28195W        W44004  14.853   5.087  14.382  0.3116  0.1645  0.0103
28196W        W44005   6.655  10.694  15.089 -0.1690  0.1911 -0.0766
28197W        W44006  17.957  15.349   0.155 -0.2615 -0.2926  0.1402
28198W        W44007  16.099   2.916  14.425 -0.2148  0.0224  0.0656
28199W        W44008  16.970   7.752  14.360 -0.1917 -0.0704 -0.0831
28200W        W44009  15.822   9.771  11.340  0.1196 -0.1067  0.3826
28201W        W44010   0.887   5.793  14.736 -0.0066  0.0549  0.3708
28202W        W44011  10.189   9.433  12.236 -0.1272 -0.2308  0.0163
28203W        W44012   8.548  14.999  13.198 -0.0090  0.1469  0.0645
28204W        W44013  18.770  12.325   3.329 -0.2325  0.1837  0.0398
28205W        W44014   5.481  17.259  14.240  0.1819  0.2577 -0.2143
28206W        W44015   9.179  12.120  15.063 -0.1077  0.2509 -0.2040
28207W        W44016   0.424  15.711  12.998  0.3588 -0.2753  0.0633
28208W        W44017  17.466  13.801  11.252 -0.0656 -0.1028  0.1743
28209W        W44018   9.651  11.918  11.776  0.0778 -0.1005 -0.2715
28210W        W44019   8.029   0.822   4.889 -0.2625  0.2248  0.1819
28211W        W44020  18.744  14.484  10.165  0.1974 -0.2349  0.1240
28212W        W44021  14.340   7.797   2.759  0.0019 -0.1548 -0.0183
28213W        W44022   7.243  13.696  12.388 -0.0896 -0.2755 -0.0086
28214W        W44023  16.808   6.824   2.107 -0.1932  0.2483 -0.1440
28215W        W44024  16.159  14.385   5.701  0.3518 -0.1432  0.1881
28216W        W44025  11.270  17.788   3.421  0.4114 -0.2649 -0.0479
28217W        W44026   3.588  18.809  11.521  0.1485  0.1254 -0.1659
28218W        W44027   1.126  15.648   0.635  0.1666  0.1780  0.1903
28219W        W44028   9.674  11.157   1.209 -0.0637  0.0420 -0.1043
28220W        W44029  10.187  17.261  13.689 -0.1211  0.0144  0.0846
28221W        W44030   3.761   6.802  13.820  0.2869  0.1823 -0.3451
28222W        W44031   3.749   7.222   4.516 -0.1092 -0.1130 -0.3443
28223W        W44032   6.759   7.651  10.765  0.2495  0.2482  0.0693
28224W        W44033  12.066   6.475   5.142 -0.1153  0.0609 -0.2498
28225W        W44034   8.165  13.918  11.219  0.1102  0.1630 -0.1736
28226W        W44035   5.874   2.497   0.696 -0.0237  0.1190  0.0061
28227W        W44036  17.925   4.365   0.112 -0.0338 -0.3494 -0.3079
28228W        W44037   7.656   5.837   4.964  0.1031  0.0136 -0.0751
28229W        W44038   9.724  13.545  12.470  0.3630 -0.1338  0.1403
28230W        W44039   4.102  13.829  14.910 -0.0641 -0.1787 -0.0603
28231W        W44040  14.991  14.686   3.376  0.1037  0.0619 -0.1506
28232W        W44041   3.587   0.175   3.982 -0.0227  0.2620  0.0871
28233W        W44042   1.681  10.792   9.743  0.1515  0.1026  0.2072
28234W        W44043  13.576  12.989   5.499 -0.0049  0.3836 -0.1792
28235W        W44044  16.201   8.145  11.399  0.1312 -0.1634  0.2188
28236W        W44045   0.643  12.135   1.393 -0.0305  0.0698  0.1343
28237W        W44046  11.277   2.807   2.186  0.0006 -0.0636 -0.3143
28238W        W44047  14.407   7.658  11.771 -0.1043  0.1957  0.1180
28239W        W44048   3.811   4.122  10.290  0.1771  0.0602  0.2127
28240W        W44049   1.639  14.547   4.157  0.0784  0.1423 -0.2227
28241W        W44050   6.107  18.229   4.014  0.0184 -0.0363 -0.2937
28242W        W44051  10.743  14.066   2.502 -0.1296  0.2154 -0.5006
28243W        W44052   7.842  13.694   1.387  0.0573  0.1121 -0.1196
28244W        W44053   5.773   4.090   0.249  0.3501 -0.0771 -0.0687
28245W        W44054   9.460  16.625   0.248  0.4523  0.2612  0.3541
28246W        W44055   1.903  14.411   2.895  0.1693  0.2386  0.0862
28247W        W44056  15.299  11.938  14.181 -0.0897 -0.2106 -0.2129
28248W        W44057   9.258   2.222  11.359 -0.2689  0.3466  0.2857
28249W        W44058   9.552   2.823   4.889  0.1320 -0.1805  0.1322
28250W        W44059  12.436  15.308  14.526  0.0550 -0.0979  0.3522
28251W        W44060   4.824   4.373  11.893 -0.0091 -0.1133  0.0446
28252W        W44061   0.457  10.691   4.881 -0.0176 -0.2405  0.0843
28253W        W44062   6.947  12.573  10.649 -0.3293 -0.0393  0.3513
28254W        W44063  11.515   7.576   3.798  0.2073  0.1109 -0.0324
28255W        W44064   7.047   2.050   4.439  0.0201  0.0813  0.0130
28256W        W44065  14.569  16.314   5.560 -0.0375  0.3017  0.2146
28257W        W44066   7.922   5.421   1.716  0.1140 -0.0245 -0.1229
28258W        W44067   1.673  16.741  11.148  0.0827  0.1920  0.0435
28259W        W44068  17.681   2.771   1.359  0.1203  0.1591 -0.0495
28260W        W44069  15.921  15.748  14.817 -0.3499 -0.3024  0.2535
28261W        W44070  18.080   7.533  13.984 -0.1124  0.2544 -0.0462
28262W        W44071   9.665  13.024  13.179  0.2248  0.2287 -0.0688
28263W        W44072   4.626  17.188   4.037 -0.0453 -0.2552  0.0287
28264W        W44073  15.032  16.983   1.067 -0.0598 -0.2779  0.3712
28265W        W44074   9.897   5.566  13.917  0.1468 -0.3300 -0.3093
28266W        W44075  11.588  11.770   0.707  0.1056 -0.0221  0.1296
28267W        W44076   0.215   8.608   5.051 -0.2290  0.2108  0.1052
28268W        W44077   5.365   2.889  11.382 -0.0973 -0.1582  0.4196
28269W        W44078   6.574   4.253   1.702  0.1842  0.0815 -0.1344
28270W        W44079   4.129   7.804   3.928  0.1196  0.1610  0.2098
28271W        W44080   0.533  11.650  14.159 -0.2793 -0.2078  0.0464
28272W        W44081   1.542  18.941  11.117  0.3910 -0.0773  0.0974
28273W        W44082  17.133  17.629   1.659 -0.1655  0.1912  0.2485
28274W        W44083  11.080  11.372   5.065 -0.0100  0.4306 -0.2356
28275W        W44084  14.870   3.718  13.478  0.1707  0.1692  0.0583
28276W        W44085   3.079  18.727  11.861 -0.2275 -0.2333  0.2092
28277W        W44086   1.859   4.411   4.558  0.0504  0.1010 -0.1550
28278W        W44087  14.046  11.459   3.492 -0.0080  0.0329  0.1461
28279W        W44088  13.707   6.444   3.457 -0.0525  0.2561  0.0324
28280W        W44089   4.745  13.886   4.510  0.0818  0.0341  0.0476
28281W        W44090   3.302   4.503   0.847  0.0125 -0.2148 -0.1144
28282W        W44091   7.826   4.102   2.286 -0.0396  0.2441 -0.2626
28283W        W44092  11.464   8.302   5.174  0.3681  0.0774  0.0863
28284W        W44093   5.235   3.475  11.897  0.1177 -0.2862  0.1682
28285W        W44094   8.780  19.097   4.853 -0.0944 -0.0129 -0.2688
28286W        W44095   6.949   2.335   2.487 -0.0693 -0.0147  0.0925
28287W        W44096  10.518   1.014   2.430  0.0279 -0.1450 -0.1196
28288W        W44097  14.233   6.191   1.618 -0.1228  0.1010 -0.1354
28289W        W44098   3.614   7.104   0.606 -0.0306  0.0352  0.0835
28290W        W44099  18.612  17.835  14.503  0.4598 -0.2934  0.1501
28291W        W44100   8.610  12.066   1.160  0.0849  0.0658 -0.1102
28292W        W44101   2.553   9.023  10.991 -0.2920  0.2051 -0.2632
28293W        W44102  14.597   4.866  10.291 -0.1990  0.3479  0.1975
28294W        W44103  14.708   6.608   0.442 -0.2370  0.0772 -0.0817
28295W        W44104   3.877  17.210  13.017 -0.2233  0.0681 -0.1687
28296W        W44105  12.577  11.875  12.144  0.1389  0.1528  0.1535
28297W        W44106   0.406   3.374  10.372  0.0313  0.0252 -0.2322
28298W        W44107  14.201   8.015  13.879  0.1621 -0.1515 -0.0378
28299W        W44108   9.614   0.300  13.853  0.0480  0.0387 -0.0382
28300W        W44109   6.432   3.387  12.804 -0.0625  0.1478 -0.0794
28301W        W44110   9.060   8.355   3.770  0.1794  0.4836 -0.1406
28302W        W44111  16.270   6.750   1.950 -0.3816  0.0393 -0.2064
28303W        W44112  16.273  16.531   0.976  0.1707  0.1521 -0.0333
28304W        W44113   9.262  14.827  13.840 -0.0823  0.1359  0.2632
28305W        W44114   1.629  14.910  14.887 -0.0516  0.0954 -0.2914
28306W        W44115   2.428  14.247  14.262  0.0278  0.0440  0.0661
28307W        W44116   9.157   6.793   1.095  0.3159  0.2606  0.3069
28308W        W44117   9.958   0.009   0.983 -0.0646 -0.1554  0.1738
28309W        W44118   7.867  17.783  12.513  0.0780  0.0702 -0.1768
28310W        W44119  11.026   3.366   5.489 -0.0020 -0.0383  0.1392
28311W        W44120   5.719   3.045   2.308 -0.0024  0.0869  0.1411
28312W        W44121  13.436  18.375   4.493  0.1029  0.1181  0.0327
28313W        W44122  13.308   8.999  12.674 -0.0741 -0.0646 -0.0619
28314W        W44123  12.116   3.447   2.576 -0.2400  0.1367  0.0019
28315W        W44124   2.569  19.158   0.333  0.3729 -0.2532  0.2683
28316W        W44125  13.231  15.585  13.042 -0.0247  0.0181  0.0179
28317W        W44126   6.903  18.752   4.106  0.0879  0.0155  0.0155
28318W        W44127   5.340   7.891  12.317  0.0752 -0.0559 -0.0055
28319W        W44128  14.642  13.832   3.272  0.0492  0.0507  0.2351
28320W        W44129  10.949   3.147  10.703  0.2374  0.3496 -0.0091
28321W        W44130   2.497   2.090   0.893  0.3058 -0.4204 -0.4178
28322W        W44131   4.498  14.401  10.276 -0.4048  0.0777  0.1641
28323W        W44132   6.840   5.914  12.255 -0.0834 -0.0144 -0.3889
28324W        W44133   7.938   0.046   3.098 -0.1718 -0.0671 -0.0513
28325W        W44134   6.724   1.298  10.869 -0.2645  0.0423  0.0699
28326W        W44135   0.299   0.519  11.417 -0.1931  0.0883  0.0832
28327W        W44136  12.350  17.372  11.764  0.2276  0.3425  0.3388
28328W        W44137  17.257  10.273  11.783 -0.1523 -0.0689 -0.1244
28329W        W44138  19.104   1.056  14.951  0.1391  0.1072 -0.0010
28330W        W44139   1.549   7.558  10.485  0.1896 -0.0438 -0.2320
28331W        W44140   2.652  15.082   0.079  0.2660  0.0777  0.3662
28332W        W44141   3.864   6.978  11.250  0.2279 -0.1541  0.0327
28333W        W44142   9.010   7.056   1.526  0.1102 -0.4117 -0.3720
28334W        W44143  14.128  19.020  14.761 -0.0472  0.2125 -0.2574
28335W        W44144  16.820   8.936  10.987  0.3815  0.2868 -0.2850
28336W        W44145   0.445   8.353   4.040 -0.1433 -0.3066 -0.2284
28337W        W44146   6.866  10.767  13.389  0.0020  0.1059  0.2234
28338W        W44147   3.618  10.785  12.898 -0.2525 -0.2189 -0.0300
28339W        W44148   4.520  15.548  14.881  0.0126  0.3041  0.1319
28340W        W44149  10.396  17.588  14.653  0.1686  0.2006  0.0986
28341W        W44150  10.126   9.331  11.760  0.2394 -0.2152  0.0579
28342W        W44151  10.025   3.518   0.450 -0.0999  0.1328 -0.0848
28343W        W44152   6.487   4.538  11.390 -0.1013  0.0820  0.0101
28344W        W44153  18.102   8.184  11.653 -0.1835 -0.0778  0.0379
28345W        W44154   7.976  10.794  14.499 -0.1238 -0.0821  0.2196
28346W        W44155  16.887  10.349  12.815 -0.0628 -0.1305 -0.1264
28347W        W44156   4.762   8.624   5.616  0.0049 -0.1308 -0.2677
28348W        W44157   6.851  10.469  12.922  0.0196 -0.0806 -0.2882
28349W        W44158  12.265  18.611   3.718 -0.0657  0.0747  0.0774
28350W        W44159   7.641   4.787  11.394  0.1795  0.0509 -0.4252
28351W        W44160   6.103   6.992  10.237 -0.0699  0.2674 -0.0189
28352W        W44161  16.301   1.320   2.421  0.2762 -0.2707  0.3535
28353W        W44162  15.696  14.467  11.523  0.0854 -0.3083  0.0223
28354W        W44163   5.257  16.776   0.506  0.2006 -0.2274 -0.0907
28355W        W44164   0.854  10.994  11.171 -0.0741  0.2001 -0.0435
28356W        W44165   8.810  10.089   0.857 -0.3948  0.0987 -0.0746
28357W        W44166  14.496   9.245  11.044 -0.1972 -0.1281 -0.1762
28358W        W44167   6.919   7.140   2.563 -0.0125  0.0535 -0.3180
28359W        W44168   6.992  16.082  14.022  0.1094 -0.3033 -0.4360
28360W        W44169   7.127   0.037  12.804 -0.1045  0.0512  0.3111
28361W        W44170  15.390  10.361   9.644 -0.2069  0.1397 -0.2192
28362W        W44171   0.743  17.768  11.982 -0.2390  0.0583  0.1378
28363W        W44172   0.571   1.575   4.075  0.3381 -0.0540  0.1480
28364W        W44173  16.244   7.994   1.399 -0.0495  0.0411 -0.2113
28365W        W44174   9.283   1.076   4.203 -0.1313  0.1549 -0.0903
28366W        W44175   7.876   4.814   4.056  0.1966 -0.3563  0.1244
28367W        W44176  13.311   2.588  11.533 -0.1721  0.1864  0.3952
28368W        W44177  15.266  19.012   0.684 -0.1817 -0.1928  0.0538
28369W        W44178  17.525  11.301   0.291  0.4701 -0.1600 -0.1532
28370W        W44179  16.343  16.814  12.547 -0.1303  0.1296  0.3380
28371W        W44180   2.539  16.013   0.951  0.1132 -0.5947 -0.5599
28372W        W44181   0.910  11.289   4.191  0.1221 -0.1850  0.1635
28373W        W44182  16.452   4.080   3.506  0.2497  0.0707 -0.3209
28374W        W44183  18.498   6.677   0.599 -0.0379 -0.1918  0.1292
28375W        W44184   6.834   7.661  11.259 -0.1890  0.1440  0.2461
28376W        W44185  15.955  18.056   0.925 -0.3725 -0.0419 -0.3219
28377W        W44186   0.333   8.603  15.125  0.1339 -0.2249  0.0478
28378W        W44187   6.281  15.232   2.018 -0.0565  0.2672  0.1002
28379W        W44188  17.559  15.939  10.172  0.2059  0.1412 -0.0755
28380W        W44189   2.023   3.277  14.515 -0.0351  0.1320  0.2255
28381W        W44190   8.336  12.935   6.269  0.0811  0.1078 -0.3974
28382W        W44191   8.820   1.792   4.522 -0.1686 -0.0062  0.1706
28383W        W44192  18.698   0.375  13.558  0.2834  0.3242 -0.3188
28384W        W44193   5.699  15.528   3.321 -0.1660 -0.0098 -0.2386
28385W        W44194  15.578  16.995  12.863  0.1311  0.1732 -0.0839
28386W        W44195  14.795   9.537  12.173 -0.0354  0.1073  0.1173
28387W        W44196  13.350  11.939  11.340 -0.1556  0.4159 -0.1287
28388W        W44197   2.593   2.788  14.169  0.1688 -0.5443  0.0536
28389W        W44198  15.513   0.027  12.146  0.3028  0.2769 -0.2036
28390W        W44199  14.481  17.445   1.264 -0.2762 -0.0329  0.0703
28391W        W44200   6.250  16.758  12.820  0.3399  0.0400 -0.5641
28392W        W44201   0.773   2.757   2.838  0.1804  0.2421 -0.1521
28393W        W44202   5.413   7.829  11.796 -0.0567  0.1924 -0.2695
28394W        W44203   1.824   5.623   3.021  0.1161 -0.0946  0.0691
28395W        W44204   9.902  14.089   2.200 -0.1478  0.2902 -0.1014
28396W        W44205   8.995   0.011  11.562 -0.0285 -0.0660 -0.2256
28397W        W44206   4.739   8.109  14.134 -0.1112  0.0264  0.5064
28398W        W44207  18.132  16.017   1.024  0.3475 -0.0074 -0.0836
28399W        W44208   1.249  17.621  13.769  0.1136 -0.0831 -0.4862
28400W        W44209   0.473  16.048   5.349  0.0338 -0.6008 -0.1037
28401W        W44210   8.980  17.666  13.837  0.1641  0.0376 -0.1042
28402W        W44211  17.741   9.405  13.367  0.3515 -0.0189  0.1641
28403W        W44212  13.180  17.806   1.867  0.0336  0.2569  0.2041
28404W        W44213  16.088  10.650  11.391  0.0514 -0.1977  0.0429
28405W        W44214   0.776   2.825  11.447  0.1083 -0.0182  0.0171
28406W        W44215   7.705   7.447   2.068  0.0651  0.0815  0.0190
28407W        W44216  13.992  15.711   3.499 -0.1912 -0.1263  0.0811
28408W        W44217  13.487  14.156   1.169 -0.1735  0.2116 -0.5176
28409W        W44218   1.718   8.317   3.587 -0.2338  0.2412 -0.0224
28410W        W44219   0.524   8.094  14.426 -0.0124  0.0972 -0.3509
28411W        W44220  18.454  15.879   0.251 -0.1071 -0.1225 -0.4038
28412W        W44221  12.549   0.101   9.545  0.1109  0.0370  0.0061
28413W        W44222   4.036  15.044   3.909 -0.3016 -0.1780  0.0705
28414W        W44223  19.022   5.031  13.957  0.3604  0.1269 -0.0283
28415W        W44224   4.614   7.283  10.290 -0.0199  0.0068 -0.2907
28416W        W44225   9.089  15.312   0.793  0.2818 -0.0151 -0.0838
28417W        W44226   0.176   7.891  10.058 -0.2044 -0.3644 -0.0737
28418W        W44227  10.876  12.257   0.573 -0.3459 -0.2100  0.0406
28419W        W44228   2.256  12.205  14.195  0.2086 -0.1447 -0.0507
28420W        W44229  12.549  15.224   1.614 -0.1397 -0.2467 -0.0873
28421W        W44230   6.975  18.921   2.644  0.1135 -0.1627 -0.0444
28422W        W44231  12.161   9.572  11.234  0.1159  0.0484 -0.1544
28423W        W44232   9.095   2.173   4.723 -0.0732  0.1610  0.2761
28424W        W44233   4.813  13.370   5.089 -0.0389 -0.4081 -0.0570
28425W        W44234   1.727   4.955   3.739 -0.4886 -0.0172  0.2854
28426W        W44235   4.126  16.981   1.485 -0.1574  0.0742  0.1586
28427W        W44236   0.106  16.554  12.121 -0.1161 -0.2132  0.1284
28428W        W44237  18.771   7.718  13.571 -0.0798  0.0801  0.2491
28429W        W44238  11.969  18.615  11.948  0.1696  0.0553 -0.0502
28430W        W44239   5.447   3.978  10.994  0.1733 -0.1420 -0.0669
28431W        W44240  15.487  12.041  12.124 -0.0353  0.0819 -0.0747
28432W        W44241   2.330   5.224  12.710  0.0469  0.2095  0.2574
28433W        W44242  11.482   7.400   0.654  0.1451  0.1271 -0.0783
28434W        W44243   6.969  13.360   2.543 -0.3865  0.0098 -0.2115
28435W        W44244   1.844   7.180  11.369  0.0663  0.1746  0.0448
28436W        W44245   8.964   6.118   0.291  0.1285 -0.1403 -0.1236
28437W        W44246  18.785  12.009   5.089 -0.2305  0.2903 -0.3121
28438W        W44247  19.038   6.389   0.323  0.1439  0.0081  0.1044
28439W        W44248   3.818   4.673   4.391 -0.2977  0.2027 -0.1753
28440W        W44249   6.169  15.691   4.180  0.4522  0.0539 -0.0091
28441W        W44250   0.895  16.653   4.716 -0.0226 -0.1941  0.1231
28442W        W44251  16.034   8.775   0.839 -0.0633  0.2066 -0.2317
28443W        W44252   5.781  13.737   1.930  0.1176 -0.1758  0.4363
28444W        W44253   7.136   3.484   6.143 -0.1458  0.0772  0.1263
28445W        W44254   2.898   6.719   9.979  0.0298  0.0655  0.0069
28446W        W44255  13.224   9.643  10.413  0.1062 -0.2003 -0.3291
28447W        W44256  13.646   3.062   1.386  0.2129  0.1810  0.2315
28448W        W44257  11.573   9.544   0.683 -0.1303 -0.0451 -0.2572
28449W        W44258  18.235   4.453   2.628  0.0908  0.0455  0.2815
28450W        W44259  10.203   9.852  11.914 -0.0382  0.1356  0.0385
28451W        W44260   4.779  18.114   2.686 -0.4953 -0.0811 -0.0290
28452W        W44261   7.020   4.001  15.110 -0.0030 -0.3158  0.4537
28453W        W44262  10.392   3.232  13.779  0.0002 -0.1600 -0.3563
28454W        W44263   9.768   4.869  14.575 -0.1490  0.3816  0.2921
28455W        W44264   0.494  17.624  10.715  0.0247  0.0865  0.2784
28456W        W44265  11.173   3.443   3.306 -0.0100  0.4885 -0.0013
28457W        W44266   1.815   6.719  11.611 -0.1235  0.1359 -0.1567
28458W        W44267   7.890   8.792  11.153 -0.3146  0.0581  0.0756
28459W        W44268   8.653   2.445  13.516 -0.2540  0.3350  0.2938
28460W        W44269   1.961  10.719  13.070 -0.0766  0.1691 -0.0040
28461W        W44270  18.770   0.820   4.662 -0.0619  0.2674  0.3397
28462W        W44271  16.759  14.130   1.293 -0.0739  0.2098  0.2744
28463W        W44272   1.247   4.442  11.303  0.0207  0.1350  0.0932
28464W        W44273  12.696  10.589  14.715  0.3021  0.3052 -0.0908
28465W        W44274   0.640  12.958  11.948 -0.1404  0.0925 -0.0299
28466W        W44275   1.477  16.760  13.712  0.3531 -0.2387 -0.4332
28467W        W44276  18.769   7.468   3.646 -0.1608  0.1673 -0.1723
28468W        W44277  16.949   6.129   4.755 -0.1748  0.2580  0.1784
28469W        W44278   8.272  11.796   4.210 -0.3662  0.1163  0.2793
28470W        W44279  11.726   3.057  14.868 -0.0048 -0.0415  0.0817
28471W        W44280  18.707  12.865  14.635 -0.1239  0.4748 -0.1837
28472W        W44281   3.947   8.299  14.157 -0.0265  0.0931  0.0477
28473W        W44282   4.017   8.337  12.878 -0.1155  0.3449 -0.1967
28474W        W44283   8.752   2.999  13.460  0.0561  0.1040 -0.2616
28475W        W44284   5.511   4.468  11.088  0.1105 -0.0426 -0.2916
28476W        W44285  13.717   7.912   3.078  0.0604 -0.0698  0.3651
28477W        W44286  11.079  10.011   5.720 -0.1067 -0.1849  0.3568
28478W        W44287  12.246  11.210   0.796  0.0631  0.3713 -0.0698
28479W        W44288  16.863   2.736   3.268 -0.0227  0.0299  0.1546
28480W        W44289   7.772   6.722   4.751 -0.2779  0.5231 -0.2926
28481W        W44290   0.664   2.584  13.937 -0.0360 -0.1231  0.2064
28482W        W44291   5.792   4.125   9.795  0.2108  0.0685 -0.0961
28483W        W44292   4.610   6.592  11.016 -0.3870  0.1928 -0.0256
28484W        W44293   5.103   1.759  13.521  0.1173 -0.2222 -0.3427
28485W        W44294   0.612  14.099  14.066 -0.2492  0.0211 -0.0380
28486W        W44295   7.712   0.326  12.338  0.0511 -0.0465 -0.1642
28487W        W44296   3.210   7.968   0.890 -0.0203 -0.0104  0.1522
28488W        W44297  18.830   1.387   3.911 -0.0641  0.1830  0.0146
28489W        W44298  10.710  12.537   3.440 -0.2874 -0.1980  0.3265
28490W        W44299   8.298  18.345   1.130  0.0301 -0.4392 -0.1701
28491W        W44300  17.049  11.016   0.990  0.2199  0.0442 -0.1168
28492W        W44301  13.633  13.717   3.595 -0.1784  0.0367 -0.1239
28493W        W44302  13.675   8.737   9.768  0.0095 -0.1854  0.1253
28494W        W44303   7.328   8.205   0.342  0.0347  0.2147 -0.2640
28495W        W44304   3.512   3.442   1.392  0.3237 -0.1787  0.1897
28496W        W44305   5.037   6.574  10.674 -0.3643  0.1392 -0.0871
28497W        W44306  16.645  18.323  13.275  0.3041 -0.1360 -0.1324
28498W        W44307   6.930   1.227   2.332  0.0937 -0.2281 -0.1954
28499W        W44308   6.785   0.520   0.704  0.0487  0.2177  0.1999
28500W        W44309  16.576   6.152  11.718  0.2714  0.3499 -0.1234
28501W        W44310  16.894  17.885  14.931  0.2097  0.1954 -0.0846
28502W        W44311   7.135   5.736   3.275  0.0518  0.1246  0.1227
28503W        W44312  16.512   2.925   2.693 -0.0456  0.1633 -0.0166
28504W        W44313  16.080   2.562   2.212 -0.2018  0.1323  0.3554
28505W        W44314   5.339  16.888  10.911  0.1215 -0.0410  0.1883
28506W        W44315   7.703  18.250  13.119  0.0778  0.1655  0.0218
28507W        W44316   2.082   5.020   4.496  0.1046 -0.2388  0.1336
28508W        W44317  10.312   0.870  15.026  0.1479  0.1674 -0.0284
28509W        W44318  11.278  17.284   3.501  0.3222  0.1905 -0.0078
28510W        W44319  18.762  12.945  10.407  0.2457  0.0467 -0.0123
28511W        W44320   4.876  16.378   2.414 -0.2820  0.0893 -0.0464
28512W        W44321  15.413  15.750   6.116  0.3138  0.3056 -0.0658
28513W        W44322  13.039  10.982   0.436  0.0555 -0.0903 -0.0364
28514W        W44323  16.492   9.894   0.253  0.0016  0.1233 -0.1287
28515W        W44324  15.716  12.876  12.504 -0.0925 -0.1299 -0.3852
28516W        W44325   7.889  17.371   0.227  0.0472  0.1200 -0.0585
28517W        W44326   9.290   8.771  11.883  0.3922 -0.0157 -0.2779
28518W        W44327   0.617   0.043   0.836  0.1667 -0.2556  0.0147
28519W        W44328   2.101   2.098  12.490  0.1272 -0.1351  0.4405
28520W        W44329  16.684  10.148   4.490  0.0276  0.1507  0.3377
28521W        W44330  16.415   7.963   0.829  0.2539  0.4139  0.2490
28522W        W44331   3.424  18.355  13.205 -0.1755 -0.0116 -0.1000
28523W        W44332   0.815  10.143  12.972 -0.1651 -0.0913  0.0201
28524W        W44333   7.186  17.289   2.003 -0.0449  0.2708 -0.1525
28525W        W44334  16.956  10.587   0.427 -0.2862  0.0355  0.1320
28526W        W44335  16.887  14.184   4.681  0.0346  0.0340  0.1532
28527W        W44336   1.296   8.603   0.483 -0.0568 -0.0233  0.1848
28528W        W44337  18.126   8.539  10.818  0.2193 -0.0439  0.2774
28529W        W44338  16.415   8.354  10.996  0.0127  0.0954  0.2833
28530W        W44339   2.898  18.977  12.734  0.3848 -0.0008  0.0251
28531W        W44340   4.052  13.391  12.644 -0.3405 -0.0556 -0.0935
28532W        W44341  17.201  12.303   4.349 -0.1188  0.0195  0.0319
28533W        W44342   2.071   7.336  14.363 -0.0202  0.1150  0.0418
28534W        W44343  15.885   0.224  11.774 -0.1029  0.0522 -0.2055
28535W        W44344  17.312   5.899  14.171 -0.0296  0.0714 -0.0910
28536W        W44345   9.880   3.549  11.474  0.4590  0.0084 -0.1013
28537W        W44346  13.763  14.786   1.040 -0.0412 -0.0853 -0.3338
28538W        W44347  13.764  12.373  11.960  0.1828  0.1841  0.1819
28539W        W44348   6.034  18.181   3.252  0.1745  0.1269  0.0999
28540W        W44349  10.490  11.980  13.498  0.3831  0.4058 -0.1692
28541W        W44350  14.999  16.984  14.000  0.3168 -0.2081 -0.0593
28542W        W44351   7.646   5.795   4.144 -0.3160  0.2486 -0.1763
28543W        W44352  17.975   3.582   3.232  0.0459 -0.3219 -0.1018
28544W        W44353  13.163  14.398   5.337 -0.0777  0.1976 -0.4843
28545W        W44354  12.571   1.159  11.186 -0.2576  0.1454 -0.0566
28546W        W44355   5.559   9.713  11.549  0.1165 -0.2970  0.0127
28547W        W44356  12.738   6.047   2.170  0.1325 -0.1853  0.1482
28548W        W44357  12.315   9.629  12.832  0.4909 -0.0246  0.3033
28549W        W44358   7.780  17.261  11.124  0.0398  0.0049 -0.1568
28550W        W44359  12.335  14.294  14.658  0.2781 -0.0179  0.1797
28551W        W44360   5.277  12.362   4.748  0.1265  0.1582  0.2897
28552W        W44361  16.852   8.899   4.368  0.2011  0.0293  0.0838
28553W        W44362   7.879   9.361  11.008  0.0464  0.3279 -0.1471
28554W        W44363  12.564   8.830   4.389  0.1574 -0.0701 -0.0962
28555W        W44364  18.416   1.799  14.678 -0.1463 -0.0266  0.1528
28556W        W44365   6.620   1.925   3.336  0.2905  0.1839  0.2910
28557W        W44366   7.483  11.840   2.452  0.1433  0.3336 -0.0315
28558W        W44367  10.669  16.719   4.591  0.2318 -0.1049  0.0804
28559W        W44368  15.645   1.900  11.392 -0.0200  0.0183 -0.0551
28560W        W44369   7.599  14.017   2.527 -0.0815  0.0356 -0.1612
28561W        W44370  16.917   1.165  14.518 -0.1099  0.2754  0.0391
28562W        W44371  15.331  14.151   1.278 -0.0019  0.0103  0.1388
28563W        W44372  12.384   0.036  14.197  0.0376  0.2055 -0.0106
28564W        W44373   5.667   5.552   1.446 -0.1119 -0.1969  0.0187
28565W        W44374  18.528  16.535   3.927  0.0861  0.0112  0.1942
28566W        W44375  11.801   6.735  11.252 -0.0448 -0.1776  0.2385
28567W        W44376   6.470   8.705  14.779 -0.3731  0.0149  0.0453
28568W        W44377  16.571  12.905   3.977 -0.2846  0.2097 -0.0914
28569W        W44378   7.439   2.657   1.199 -0.0167 -0.1178 -0.0076
28570W        W44379   3.676  15.366   3.203 -0.1185  0.4206 -0.0450
28571W        W44380  11.944  12.524  10.078 -0.0949 -0.2873  0.2699
28572W        W44381   8.188   5.622  11.416 -0.1743  0.0767  0.1818
28573W        W44382   2.241  18.797   5.083 -0.0142  0.1019  0.0150
28574W        W44383   5.089   2.893  13.163  0.2989  0.1877  0.2949
28575W        W44384   3.891   2.103   3.177  0.4507  0.3993 -0.1602
28576W        W44385  16.277   1.580  11.092 -0.1270 -0.1466 -0.1766
28577W        W44386   0.829   3.459   1.174 -0.1209  0.1524 -0.0482
28578W        W44387  13.901  15.234  12.431  0.2418  0.0256 -0.1867
28579W        W44388  13.772   8.870  13.042 -0.1153 -0.1196 -0.0161
28580W        W44389  14.366  16.554   0.427 -0.2681 -0.3854  0.3277
28581W        W44390   7.767   5.471  11.117  0.0009  0.6230 -0.0919
28582W        W44391  14.184   8.934   0.583 -0.3131 -0.3117 -0.1282
28583W        W44392  13.748  18.728  14.737  0.2972 -0.2700  0.2377
28584W        W44393   4.492   0.679   4.549 -0.1755  0.0372  0.0739
28585W        W44394   4.647  16.790  10.212 -0.0408  0.0198  0.0358
28586W        W44395  11.451   3.379  15.126 -0.0022  0.1051 -0.0714
28587W        W44396  17.195  10.857   3.869 -0.1480 -0.0815  0.0591
28588W        W44397   3.299  14.310  12.197  0.0152 -0.1970 -0.2880
28589W        W44398  10.090   7.011   0.562  0.0004 -0.3137 -0.0155
28590W        W44399  16.086   4.490   1.429 -0.0492 -0.0148 -0.2209
28591W        W44400   8.990   9.852  14.484 -0.0784 -0.0398 -0.3582
28592W        W44401  17.653  17.236  11.591  0.1848 -0.0075  0.1172
28593W        W44402   6.874   0.001   3.223 -0.2136 -0.2571 -0.2925
28594W        W44403   1.392   0.629   5.650 -0.0242  0.2082 -0.1008
28595W        W44404   6.467   8.028  11.040  0.1774  0.0862 -0.1169
28596W        W44405  15.795  12.980   1.159 -0.3039 -0.0628 -0.1141
28597W        W44406   7.592  13.573  13.869 -0.1116  0.0733 -0.1792
28598W        W44407  18.217  13.469   3.428 -0.0827  0.0415  0.0906
28599W        W44408  16.030  17.274  13.646  0.1144 -0.1262  0.0122
28600W        W44409  15.898   6.982   0.662  0.0071  0.2162 -0.0257
28601W        W44410  12.560   1.291   1.541  0.0408 -0.1795 -0.0170
28602W        W44411  12.695  12.728   3.858  0.1704  0.1725  0.3881
28603W        W44412  11.111   7.642   5.019  0.2444  0.3928  0.1298
28604W        W44413   1.690   8.747   2.567 -0.2438  0.3768  0.1260
28605W        W44414   6.405   5.534   1.453 -0.2114  0.1952 -0.2908
28606W        W44415   6.816   6.077   3.484  0.2957  0.0106  0.0218
28607W        W44416  14.555   0.725  10.895  0.0206  0.3338 -0.0546
28608W        W44417  11.160  15.647  10.941  0.2741  0.0954  0.5473
28609W        W44418   2.493  18.137   4.480 -0.0112 -0.1081  0.1108
28610W        W44419  11.834  16.643   0.295 -0.2702  0.1130 -0.4716
28611W        W44420   4.555  18.532   3.593 -0.1418  0.2140  0.1786
28612W        W44421  18.237  16.268   4.240  0.0070  0.1744  0.0840
28613W        W44422   2.953  13.776  10.270 -0.0771 -0.1344  0.0436
28614W        W44423  14.469   0.702  13.284  0.0236 -0.0720  0.0501
28615W        W44424   9.078   2.748   2.794 -0.0700 -0.2044 -0.0260
28616W        W44425  13.292   8.821   1.358 -0.1035 -0.1366  0.2947
28617W        W44426   4.106   5.156   2.239 -0.0373 -0.0368 -0.1540
28618W        W44427  18.099   8.729  12.300  0.3945  0.2184  0.1308
28619W        W44428   1.207  12.217   9.187 -0.0730  0.2066  0.4964
28620W        W44429  13.507   8.284   3.850 -0.1846  0.0925  0.1818
28621W        W44430   0.873  15.999  14.845 -0.3879  0.1853 -0.0196
28622W        W44431  12.462   8.862  12.020  0.0531  0.1821 -0.0395
28623W        W44432  12.131   6.986  14.875 -0.2818 -0.0329  0.2968
28624W        W44433   9.715   7.460   4.988 -0.0582 -0.1776 -0.2824
28625W        W44434  18.237  13.413   9.844  0.1222  0.2100  0.0443
28626W        W44435  13.354  10.223  10.995  0.0179  0.1584 -0.4620
28627W        W44436  13.735  15.723  12.844 -0.0525  0.0955  0.1458
28628W        W44437  11.535   1.319   3.104 -0.0272 -0.4116 -0.0775
28629W        W44438   4.838  10.088  14.326 -0.2459  0.2627  0.1295
28630W        W44439   5.525   6.642  13.585  0.2490  0.1846  0.2070
28631W        W44440  18.310   1.734   5.075  0.4207 -0.1172 -0.1159
28632W        W44441  16.314   4.275  14.138  0.0682  0.2409 -0.0326
28633W        W44442  17.492   8.004  11.253  0.2092  0.3931  0.0883
28634W        W44443  11.854  18.280  13.641  0.0099 -0.1460  0.3822
28635W        W44444   1.073   2.532   2.058 -0.0792  0.1364  0.0211
28636W        W44445  18.233  15.629  11.705  0.0602  0.0276 -0.1010
28637W        W44446  18.915   5.740  10.000  0.2106  0.1144  0.0311
28638W        W44447   7.121   4.727  10.197 -0.0036 -0.0098 -0.2796
28639W        W44448   6.822   2.779  14.250  0.0819 -0.0758  0.2402
28640W        W44449   7.887  14.554  13.932  0.1138 -0.0623 -0.1245
28641W        W44450  13.858  15.377   2.227 -0.2983  0.2907 -0.0599
28642W        W44451   3.918  13.054  13.111  0.3058  0.1103 -0.2328
28643W        W44452   0.680  10.310   1.958  0.1707  0.0279  0.0511
28644W        W44453   5.768   5.622   0.669  0.0696 -0.1220  0.0374
28645W        W44454  14.919   4.679   3.450  0.1984 -0.0139 -0.0567
28646W        W44455   0.177  10.178  14.583 -0.0766 -0.2589  0.1383
28647W        W44456  18.838  16.446  13.649  0.0041  0.0091  0.4185
28648W        W44457   1.039   7.916   2.723 -0.0072  0.0820 -0.3302
28649W        W44458   4.886   0.279  11.137 -0.0401  0.1930  0.1782
28650W        W44459   1.945   5.710   3.847 -0.0367 -0.2048 -0.2843
28651W        W44460   3.701  18.164   3.331 -0.2727 -0.2935 -0.2041
28652W        W44461  15.327   4.916   1.122  0.1536 -0.0244  0.1424
28653W        W44462   0.204  18.819  13.318  0.0658 -0.1075 -0.0582
28654W        W44463   3.436   7.271   3.293  0.2082  0.2422  0.2382
28655W        W44464  14.427  14.084   4.657 -0.0996 -0.0781  0.0613
28656W        W44465  13.803  12.280   3.628  0.2801  0.0851  0.2978
28657W        W44466  13.377  18.496   2.937  0.2717  0.1261 -0.0271
28658W        W44467   3.872  18.279  14.481 -0.0091 -0.0763 -0.2144
28659W        W44468  15.605  14.830   2.583  0.3588  0.0416 -0.2227
28660W        W44469  16.777   3.938   2.682 -0.0416  0.1549  0.0901
28661W        W44470   2.239   0.839   0.807  0.1331 -0.0509  0.0075
28662W        W44471   1.077   7.769  12.762 -0.0574 -0.3245  0.2571
28663W        W44472  12.645  10.164  11.671 -0.1887 -0.1748  0.3035
28664W        W44473  10.235  16.780   4.348  0.1127  0.2074 -0.2722
28665W        W44474   4.762  11.177   0.974 -0.0697  0.1283  0.1930
28666W        W44475   1.402   1.055   3.205  0.0877  0.3025  0.1249
28667W        W44476  15.965  18.161   0.452  0.3673  0.2233  0.0371
28668W        W44477   8.631   5.704   4.724 -0.0930  0.4646  0.2282
28669W        W44478  11.267   2.009   2.040 -0.0392  0.1439  0.1891
28670W        W44479  14.392  13.759   2.038 -0.1607 -0.1230  0.1406
28671W        W44480   5.910   8.962   5.631  0.0058 -0.0172  0.0928
28672W        W44481   7.076   4.852  13.892 -0.0716  0.0095 -0.1240
28673W        W44482   0.489   0.578   0.028 -0.1795  0.0920  0.0410
28674W        W44483  11.791  13.240  11.169 -0.0975 -0.0540 -0.3074
28675W        W44484   6.972  10.983   1.999 -0.0212  0.1076  0.2840
28676W        W44485   1.039  16.033   4.067 -0.1452  0.3038  0.1696
28677W        W44486   0.166   3.655  13.071  0.1694  0.3267  0.2740
28678W        W44487  15.633  16.099  15.000 -0.2311 -0.0275 -0.0296
28679W        W44488  18.263  17.966   1.895 -0.0308 -0.0143  0.1730
28680W        W44489  14.364  12.559  13.998 -0.1208 -0.1439 -0.4658
28681W        W44490   2.550   1.723   1.931 -0.0838  0.1995  0.1492
28682W        W44491   0.032   6.308   3.822 -0.3363  0.0219 -0.2454
28683W        W44492  15.341   1.831   3.136 -0.3663 -0.1769  0.3036
28684W        W44493   3.591  11.692  10.871 -0.2204 -0.2431 -0.5157
28685W        W44494  14.158   7.564  10.587 -0.0083  0.1161 -0.3197
28686W        W44495  17.293   4.535   3.691  0.0788 -0.1127  0.0785
28687W        W44496   4.846   8.735  11.315 -0.1698 -0.6068  0.1587
28688W        W44497   0.521   1.279  12.435 -0.1330 -0.1854  0.0689
28689W        W44498  16.899  19.079  14.345 -0.2252  0.0362 -0.1668
28690W        W44499   5.372   0.216   4.292 -0.1811  0.1645  0.3720
28691W        W44500  12.561  18.505   4.629 -0.2496  0.2627 -0.2612
28692W        W44501   0.044   1.942   0.313  0.0212  0.3425  0.0179
28693W        W44502  16.863   0.367  11.543  0.2097  0.1928 -0.0458
28694W        W44503  16.102   6.684   4.798 -0.3960  0.1096 -0.1904
28695W        W44504  17.475  13.197  12.124  0.1672  0.0773  0.0712
28696W        W44505   2.325   1.152  11.671 -0.1183 -0.4317  0.2458
28697W        W44506  12.093  16.478   5.529  0.0817 -0.1270 -0.2422
28698W        W44507   3.293   8.954   5.101  0.2440  0.1738 -0.0514
28699W        W44508  10.764   7.978   9.676  0.2167  0.0309 -0.0869
28700W        W44509   3.402  14.506   1.232 -0.2523  0.1009 -0.0280
28701W        W44510   9.024   9.260   1.278  0.1969  0.0329 -0.1327
28702W        W44511   7.198  13.116  15.136 -0.1353  0.1719  0.3504
28703W        W44512  12.918  17.179   5.562  0.0672  0.0375  0.1361
28704W        W44513   8.385   4.237   2.141  0.1748  0.3868 -0.0062
28705W        W44514  18.907   9.062   3.958 -0.0541 -0.0802  0.0704
28706W        W44515   6.843  15.961  11.259 -0.2622  0.0388 -0.1956
28707W        W44516  16.617   1.272   6.223 -0.3449  0.1183 -0.1942
28708W        W44517  15.710   4.454   4.842  0.2866 -0.1291 -0.1233
28709W        W44518   7.937   8.281  11.218 -0.0004 -0.0807 -0.0560
28710W        W44519  10.873  14.358   0.851  0.0159 -0.0603  0.0646
28711W        W44520  14.267  18.470  11.919 -0.0583 -0.2375 -0.1137
28712W        W44521   8.871  10.235   1.372 -0.1473  0.1767 -0.1065
28713W        W44522  16.316   4.920  12.084  0.0766  0.2231 -0.1295
28714W        W44523  15.591   9.316   4.139 -0.0987  0.0572  0.3409
28715W        W44524  15.251   6.115  11.002  0.2364 -0.1799 -0.2453
28716W        W44525  17.853  16.945   1.698  0.1539  0.0074 -0.2348
28717W        W44526   0.651   7.922   1.486  0.0134 -0.3121  0.0962
28718W        W44527  11.618  12.694   1.736  0.0162 -0.1232 -0.1585
28719W        W44528  14.815   2.534  11.141 -0.2111  0.1292 -0.1161
28720W        W44529  14.017   7.103  13.562  0.2662  0.2288  0.2042
28721W        W44530   0.229  16.808  10.359 -0.2032 -0.1383  0.3103
28722W        W44531   2.300   9.754   1.737 -0.0395 -0.0503 -0.4179
28723W        W44532   5.531  17.393  11.791  0.0323 -0.1369  0.2851
28724W        W44533   1.487   1.467  11.566  0.1186 -0.1000 -0.3865
28725W        W44534  14.352  13.003   3.491  0.0239 -0.1139 -0.1376
28726W        W44535   1.768   2.750   0.959  0.1998 -0.2433  0.0034
28727W        W44536   3.674   6.199   3.430 -0.1863 -0.1105  0.0151
28728W        W44537  11.901  12.632   1.270  0.2155  0.0233 -0.0250
28729W        W44538  14.588  10.654   1.874  0.2527 -0.1178 -0.2080
28730W        W44539   7.598  10.254   3.248  0.1692 -0.0761  0.0457
28731W        W44540  10.212  12.270  13.149 -0.2555 -0.2043  0.0896
28732W        W44541  14.240   3.354  14.411 -0.0451 -0.4126  0.1519
28733W        W44542   5.411   6.791   2.128  0.0064  0.0409  0.0353
28734W        W44543   3.618  17.522   4.167 -0.1589 -0.2890 -0.2955
28735W        W44544  16.504  16.716   4.213  0.0168  0.2542 -0.3643
28736W        W44545  11.789  15.851   1.535  0.1478 -0.1735  0.1604
28737W        W44546   2.163  11.427  14.926 -0.2382 -0.1142  0.0168
28738W        W44547   7.907   2.450  14.955 -0.0588 -0.0061 -0.1734
28739W        W44548  14.546  16.422  10.565 -0.3863 -0.1613  0.2426
28740W        W44549  14.717  13.333  14.988 -0.3223  0.3792  0.0808
28741W        W44550   3.442  14.474  11.737 -0.1904  0.3642  0.0113
28742W        W44551   3.854   0.067   5.350  0.2196 -0.0655 -0.0330
28743W        W44552   1.107  13.477  15.121 -0.2515 -0.0179  0.0637
28744W        W44553   7.446   2.835  15.093  0.0392  0.0957 -0.0300
28745W        W44554  12.490   8.549   2.702  0.2279 -0.1530 -0.3108
28746W        W44555   6.223   4.080  11.362 -0.0573 -0.1215  0.1694
28747W        W44556  14.983   0.319  10.815 -0.2116 -0.2030 -0.4461
28748W        W44557  13.572  14.062   0.010  0.3164 -0.0001 -0.2569
28749W        W44558   8.936  15.384  13.376  0.3110  0.0547 -0.0752
28750W        W44559   1.242  18.795   0.426  0.1733 -0.3588  0.1420
28751W        W44560   1.698  16.635  10.013  0.1078  0.2007 -0.0152
28752W        W44561  12.931   0.416   1.575  0.1384  0.0721 -0.1306
28753W        W44562  11.184  16.670  10.012 -0.2151 -0.0067 -0.0956
28754W        W44563   9.073  12.947   4.193  0.0493  0.2897  0.1252
28755W        W44564   6.227   4.905  11.839 -0.0294 -0.1705 -0.0060
28756W        W44565   7.483  15.361   2.865  0.3565  0.3043  0.1481
28757W        W44566  17.545  17.965  13.051  0.1501 -0.3216  0.3838
28758W        W44567   5.690  18.044   2.452  0.2107 -0.0090 -0.1667
28759W        W44568  18.113   7.558   4.805  0.1207  0.0832  0.2782
28760W        W44569   7.746   0.843   3.034  0.1991 -0.1633 -0.1613
28761W        W44570  18.766   5.442  14.287 -0.1053  0.0420 -0.0421
28762W        W44571  14.322  15.472   5.811  0.0589 -0.1749 -0.3139
28763W        W44572   5.105  18.668  14.818  0.4500  0.1281  0.2755
28764W        W44573   4.159   3.420   4.138 -0.1329 -0.1046  0.0384
28765W        W44574  14.687  18.984   2.686 -0.1281  0.2198 -0.0728
28766W        W44575  17.551   4.260  13.682 -0.0270  0.2469  0.0661
28767W        W44576   0.617  16.739   4.292  0.0081 -0.3230 -0.0261
28768W        W44577  12.737   5.055  14.802 -0.0286  0.0776 -0.1267
28769W        W44578   7.888   4.420  13.497 -0.1484  0.0074 -0.0039
28770W        W44579  12.033  11.739   3.991 -0.1519  0.3903  0.0931
28771W        W44580   9.031   0.100  12.188 -0.0988 -0.1995  0.3264
28772W        W44581  13.687   7.666   0.039 -0.0080  0.1263  0.2756
28773W        W44582  17.852   1.652   1.334  0.2409 -0.2655  0.0166
28774W        W44583  14.287  16.967   2.305 -0.0536  0.1118  0.2557
28775W        W44584  14.382  15.195  13.165 -0.3281 -0.0820  0.1453
28776W        W44585  17.528   2.581   3.223 -0.1471 -0.1721  0.2591
28777W        W44586  11.488  15.722  11.871 -0.2998 -0.0206  0.1255
28778W        W44587   4.424   7.001   0.104  0.0432 -0.1448  0.1094
28779W        W44588  15.098   9.440  11.802 -0.2498  0.1632 -0.3024
28780W        W44589   5.502  11.762  14.371  0.0426  0.3166 -0.0937
28781W        W44590  12.819  10.855  13.164  0.1244  0.2192  0.2328
28782W        W44591  15.314   5.918   1.874 -0.0388  0.4679  0.0066
28783W        W44592  10.674   6.367  10.924 -0.3097  0.0972  0.0437
28784W        W44593  10.206  17.405  12.691 -0.1721 -0.3363  0.2432
28785W        W44594   3.984   8.213  12.395 -0.1372 -0.0671 -0.3436
28786W        W44595   9.113   8.733   4.641  0.0471 -0.0514  0.1938
28787W        W44596  15.971  16.758   2.183  0.2296 -0.0459 -0.1639
28788W        W44597   1.748   4.426  10.264 -0.0479  0.3268  0.0679
28789W        W44598   3.124  10.894   4.214  0.3723 -0.1965  0.1138
28790W        W44599   6.226   2.464   3.452  0.1022 -0.2859 -0.0422
28791W        W44600   2.697   5.251   4.009  0.0509  0.0737 -0.1855
28792W        W44601   3.569   4.608  11.900 -0.1183  0.4200  0.3605
28793W        W44602  10.017   8.523  10.097 -0.0992  0.1244  0.1613
28794W        W44603  10.695  14.433   3.820  0.2455  0.2730 -0.2292
28795W        W44604   8.552  12.983   4.665 -0.0067  0.0333 -0.0740
28796W        W44605   6.750   7.407  12.997 -0.3727 -0.0498 -0.1152
28797W        W44606   3.900  14.625  13.907  0.0099 -0.0865 -0.0877
28798W        W44607   3.594   6.300  11.959 -0.1512 -0.2472 -0.1158
28799W        W44608   5.740  13.512  13.719 -0.1326 -0.1050  0.1325
28800W        W44609  14.961  11.924   1.191  0.1398 -0.2058  0.2143
28801W        W44610   4.968  19.089   2.680 -0.1312  0.0537  0.4203
28802W        W44611  14.733   4.061   5.457 -0.0026  0.1869  0.1554
28803W        W44612   8.279   8.906  10.477 -0.2769  0.1697 -0.2960
28804W        W44613  10.416  17.457  13.221 -0.0150  0.0053 -0.1671
28805W        W44614  14.681  11.251  12.433 -0.3528  0.1517 -0.0006
28806W        W44615  12.691   7.484   0.168 -0.0659  0.1483  0.2986
28807W        W44616   3.005  18.171   4.437 -0.0199 -0.0753  0.2943
28808W        W44617   3.074  12.888   4.728  0.2505 -0.0419 -0.0905
28809W        W44618   4.108  11.142  11.796 -0.1700 -0.1195 -0.1734
28810W        W44619   9.514  17.084  15.160  0.4061  0.1657 -0.1203
28811W        W44620   7.213   8.836   9.498 -0.2693  0.1776  0.2536
28812W        W44621  17.900  11.649   5.076  0.1132  0.0219  0.2570
28813W        W44622   1.735  15.707   0.182 -0.2523 -0.0775 -0.0491
28814W        W44623  14.480   7.079   1.553 -0.3860  0.1990  0.2011
28815W        W44624   1.964  11.932   0.269  0.1954  0.1148 -0.2694
28816W        W44625   0.413  13.976   3.884  0.0131 -0.0837 -0.0021
28817W        W44626   5.078  14.467  13.349 -0.0379 -0.1715 -0.1246
28818W        W44627  13.487  13.958   5.586 -0.2792 -0.0345  0.0307
28819W        W44628  16.704   8.119  12.575  0.1374 -0.2657 -0.0279
28820W        W44629  16.910   7.323  10.582 -0.0782 -0.4105  0.0979
28821W        W44630  10.815  17.076   0.990  0.3169 -0.0014 -0.2619
28822W        W44631  12.448   4.008  13.177  0.1525  0.0983  0.0911
28823W        W44632   2.286  16.102  12.431 -0.2133 -0.0619  0.0840
28824W        W44633   5.521  11.971   0.306 -0.2845  0.0146 -0.0780
28825W        W44634   9.846   8.927  13.602  0.2180  0.1095 -0.0355
28826W        W44635   9.624  11.967   5.451  0.1715  0.3447 -0.0246
28827W        W44636   6.005   8.001   4.759 -0.2152  0.3021 -0.1489
28828W        W44637   6.348   2.950  13.180 -0.2516 -0.0341 -0.0029
28829W        W44638   6.581  16.586   3.709  0.1122  0.1123  0.1799
28830W        W44639  12.021   7.637  11.326  0.0823  0.1491  0.2550
28831W        W44640   2.871  13.298  10.336  0.1428  0.0730 -0.2046
28832W        W44641   3.842   1.175  12.591 -0.1537  0.0975 -0.0669
28833W        W44642  13.293  16.475   4.471 -0.0803 -0.1933  0.1522
28834W        W44643   7.966  12.171   1.631  0.0475  0.0913 -0.0895
28835W        W44644   7.558   5.643   3.530 -0.1327 -0.1238 -0.1983
28836W        W44645   9.686   6.643   2.216  0.1791 -0.0923 -0.3567
28837W        W44646   4.941   3.735  13.714 -0.1242 -0.2278  0.0341
28838W        W44647  15.868   7.784   5.730  0.0308  0.0802  0.2331
28839W        W44648  11.353  16.142   1.383  0.0304 -0.2008 -0.0609
28840W        W44649   6.431   6.675   4.507 -0.1199 -0.1729 -0.1071
28841W        W44650  19.136   0.287  12.113  0.1585  0.2184  0.1188
28842W        W44651   0.244   9.554  13.664  0.1675  0.0301 -0.0237
28843W        W44652   3.338   0.347  10.210 -0.0968  0.1216 -0.1655
28844W        W44653  13.357  16.665  12.929  0.1177  0.3620  0.0382
28845W        W44654   4.380   4.221  14.362 -0.1517  0.2096 -0.4368
28846W        W44655  17.385   1.747   5.037  0.0273  0.1225 -0.2474
28847W        W44656   7.126  13.212   2.057 -0.2935  0.0156 -0.1601
28848W        W44657  10.936  10.913   3.443 -0.2969 -0.1483 -0.1069
28849W        W44658   5.085   0.236  14.573  0.0871  0.0212 -0.1965
28850W        W44659   5.418  11.997  10.649 -0.0096  0.1344 -0.1069
28851W        W44660  18.144  16.259   0.343  0.0571 -0.3283  0.3797
28852W        W44661   3.424   6.146  13.305  0.0861 -0.1433 -0.2787
28853W        W44662  13.144   6.310   2.141  0.0547 -0.0351  0.0523
28854W        W44663   5.766  18.025   0.536 -0.0687  0.1561 -0.1075
28855W        W44664  15.951  10.214   4.675 -0.0186 -0.3050  0.0981
28856W        W44665   9.899   8.431   1.404 -0.0544  0.1664 -0.2372
28857W        W44666  13.852   3.606  10.777  0.0215 -0.3499 -0.2135
28858W        W44667  13.983   9.313  15.044 -0.0224  0.0408  0.5267
28859W        W44668  10.948  17.534   1.682  0.1758  0.0378 -0.1102
28860W        W44669   9.684  16.220  11.501  0.0455 -0.0902 -0.2951
28861W        W44670  13.742   8.548  13.695 -0.3428  0.0152  0.2688
28862W        W44671   0.895   4.727  12.687 -0.0979 -0.2247  0.0676
28863W        W44672   9.679   3.065  13.010  0.1532  0.1318  0.2307
28864W        W44673  11.594   2.043  11.887  0.0290  0.1587 -0.0543
28865W        W44674  15.003  17.949  14.579 -0.0281  0.1932  0.2040
28866W        W44675  14.568  14.612   4.757 -0.2434 -0.0625  0.1647
28867W        W44676  12.968  16.491  13.278  0.2579  0.3114 -0.2840
28868W        W44677   1.632   8.192   1.536 -0.3086  0.1810 -0.0031
28869W        W44678  18.056   8.721   0.190 -0.0496  0.0905 -0.0174
28870W        W44679  14.923   0.351  11.568 -0.2180  0.2214 -0.0203
28871W        W44680  16.578   4.975   5.132 -0.2640  0.0889 -0.2649
28872W        W44681   6.759   6.717  14.222  0.1034  0.0216 -0.1481
28873W        W44682   2.391   4.940   1.169 -0.1936  0.0911 -0.0806
28874W        W44683  11.835  14.716  13.943  0.1074 -0.1018  0.0735
28875W        W44684  10.340   1.094   5.890  0.4309  0.3152 -0.1812
28876W        W44685  15.311  10.599   2.679 -0.1310 -0.2084 -0.2196
28877W        W44686  11.985   3.317  14.478 -0.0921 -0.1065 -0.1442
28878W        W44687  13.327  11.997   5.216 -0.0310  0.2360 -0.3315
28879W        W44688   8.602   8.050   4.188  0.0042  0.1554  0.0699
28880W        W44689  12.980  14.022  15.201  0.0627 -0.0227 -0.1020
28881W        W44690   3.308   2.905   5.300  0.0745  0.0891 -0.3030
28882W        W44691  16.058  17.399   4.286  0.1983  0.1402 -0.1858
28883W        W44692  15.056   8.153   0.473 -0.0301 -0.2277  0.4015
28884W        W44693   8.816   5.576   2.050 -0.0299 -0.2575  0.0311
28885W        W44694  12.809   5.326   1.125  0.1597  0.2579  0.3442
28886W        W44695   4.825   8.711   4.554 -0.3405  0.1124  0.1814
28887W        W44696  11.110   9.297   2.936  0.1258  0.1450  0.1135
28888W        W44697  15.331  11.487   5.640 -0.0619 -0.1486  0.0442
28889W        W44698   3.877   6.744   2.028 -0.2499 -0.0247 -0.0586
28890W        W44699   4.817  16.608   0.721  0.0082  0.3688 -0.1615
28891W        W44700  13.234   5.996  14.272  0.1531 -0.0729  0.0710
28892W        W44701  11.256  11.843   2.336  0.1010 -0.0219  0.2065
28893W        W44702  17.618   9.266   4.389 -0.0452  0.1699 -0.0356
28894W        W44703  18.073   6.958  11.176  0.3318  0.3511  0.0433
28895W        W44704   9.182   1.815  10.785 -0.1787 -0.0002  0.0368
28896W        W44705   4.953   3.955  11.652 -0.0226 -0.1351 -0.2477
28897W        W44706   0.057  11.793  13.301 -0.0999  0.0914  0.4157
28898W        W44707   0.697   0.277   2.138 -0.0734 -0.1745  0.2765
28899W        W44708  11.690  16.991   3.746 -0.0164 -0.1800  0.1676
28900W        W44709  13.793   8.919   0.975 -0.0905  0.0482  0.2156
28901W        W44710   5.751  11.862   2.463 -0.4905 -0.0440 -0.0828
28902W        W44711   2.710  12.501   1.153 -0.0133  0.0964 -0.0057
28903W        W44712  15.504   8.650   0.157 -0.0098 -0.2495 -0.1744
28904W        W44713   5.181  14.817   2.278 -0.3135 -0.0004 -0.0078
28905W        W44714   6.801   6.330  13.898  0.1198  0.0530 -0.2662
28906W        W44715  18.377  10.376   2.001  0.0819 -0.2466 -0.1539
28907W        W44716   9.847   8.412   2.994 -0.1222 -0.0064  0.0139
28908W        W44717   0.453  17.098  12.444  0.0712  0.2074 -0.1292
28909W        W44718  12.761  15.610  13.697  0.0646  0.0489  0.0121
28910W        W44719  14.582  19.015  11.327 -0.0347 -0.0310  0.0834
28911W        W44720  17.696  17.185  13.230 -0.3851  0.0802 -0.0284
28912W        W44721  10.280  15.113  11.973  0.2719 -0.1298  0.2534
28913W        W44722   2.041   2.564  12.719  0.2833 -0.2164 -0.0642
28914W        W44723   4.639   3.889  10.372 -0.2579  0.0948  0.0248
28915W        W44724  14.647   4.231   2.007  0.0013  0.0908  0.1817
28916W        W44725   5.451   0.138   3.662 -0.1074  0.1380 -0.1043
28917W        W44726  16.899   5.561  14.815  0.2341  0.0680 -0.2082
28918W        W44727  12.833   9.551  14.423  0.2548 -0.2677  0.3747
28919W        W44728  17.101   7.483  12.258  0.1142 -0.3267 -0.2008
28920W        W44729  14.566  11.353  11.456  0.0125 -0.5479 -0.1118
28921W        W44730   2.641   0.415  12.196  0.1684  0.0320  0.0081
28922W        W44731   2.613  10.766   0.685  0.0109 -0.4097  0.0845
28923W        W44732   2.610   1.860   1.365  0.5064 -0.0543  0.2622
28924W        W44733  16.346  14.356   2.160  0.0114 -0.1762  0.1548
28925W        W44734   9.831   8.208  10.405  0.0521 -0.1813  0.1850
28926W        W44735  16.421   7.750  13.652 -0.0361  0.2277 -0.0529
28927W        W44736   2.345   5.622   0.573  0.2835 -0.1332 -0.2322
28928W        W44737  10.112  18.248  12.771  0.2518  0.0178 -0.3280
28929W        W44738  12.672  15.005   4.681 -0.1357  0.0510 -0.1170
28930W        W44739   6.503   9.903  13.254  0.0920  0.1270  0.1454
28931W        W44740   6.517  16.162   2.874 -0.3366 -0.2497  0.3082
28932W        W44741  13.358   4.779  10.694  0.0584 -0.0766  0.2428
28933W        W44742   3.809   6.952   5.515  0.0497 -0.2677 -0.0427
28934W        W44743  15.268   1.734   4.163 -0.0214 -0.0295 -0.1618
28935W        W44744   8.658   2.606   1.294 -0.2502 -0.3854 -0.2529
28936W        W44745   3.418   1.630  10.337 -0.0571  0.0608 -0.1319
28937W        W44746   3.282  15.456   0.482 -0.0682 -0.1071 -0.0314
28938W        W44747   5.642   9.574   2.208  0.0687 -0.0021  0.0498
28939W        W44748   9.971  15.840   4.732 -0.1915  0.0085 -0.1218
28940W        W44749  18.698   0.655   3.243  0.0804  0.1906 -0.3234
28941W        W44750   9.620  18.263  13.021 -0.0535  0.0609  0.0641
28942W        W44751  11.797   1.587   1.957  0.0518 -0.1639  0.0542
28943W        W44752   5.020   2.080   3.294  0.0471  0.1520  0.2512
28944W        W44753  11.276  18.270  12.091  0.3187 -0.0351  0.0327
28945W        W44754  18.740  17.958   2.117 -0.0782 -0.2668  0.0467
28946W        W44755  13.699  11.323  13.452 -0.0003 -0.2593  0.1980
28947W        W44756  12.494   7.971   4.405  0.1330 -0.1177 -0.0501
28948W        W44757  17.913  18.817  12.732  0.2151 -0.0326  0.0195
28949W        W44758   7.832  10.977   3.742 -0.1209 -0.0006  0.2971
28950W        W44759   6.188  17.189  14.954 -0.4968  0.1198  0.0939
28951W        W44760  12.447   2.498   3.035  0.1781 -0.0039 -0.1440
28952W        W44761   6.134  10.403   3.539 -0.0157  0.1939  0.0285
28953W        W44762   0.738   0.807  14.302 -0.1181  0.0979  0.2501
28954W        W44763  14.208   1.005   4.139 -0.2065  0.0336 -0.0280
28955W        W44764   9.168  17.853   3.581 -0.1890 -0.1292  0.0200
28956W        W44765   4.058  15.127   0.436  0.0103 -0.1887  0.2078
28957W        W44766   2.010   7.879  14.964  0.0040  0.0005  0.0443
28958W        W44767  11.898  16.444  15.059 -0.1737  0.2893 -0.2004
28959W        W44768  16.627  13.253   3.544 -0.0460  0.0609  0.0599
28960W        W44769   9.970   1.690   2.959 -0.0484  0.0108 -0.2389
28961W        W44770  15.938   8.536  10.698 -0.0690 -0.2159  0.3283
28962W        W44771  14.610  11.695  14.363  0.0406 -0.3184  0.0248
28963W        W44772   3.455  11.918   0.527  0.2237  0.1893 -0.1304
28964W        W44773  16.398  17.837   2.060 -0.3533  0.1980 -0.0350
28965W        W44774   2.379   4.369  11.239 -0.1645 -0.0280 -0.2313
28966W        W44775   6.208  15.720  12.549 -0.1122  0.0381 -0.2652
28967W        W44776   3.805   0.036   1.764  0.2692 -0.3528 -0.1365
28968W        W44777   6.977   2.114  12.315 -0.1356  0.2852 -0.0967
28969W        W44778  13.587   4.561  11.253 -0.1531 -0.2697  0.0517
28970W        W44779  18.565   8.941  12.859  0.0890  0.1641  0.1385
28971W        W44780  13.998  14.560   0.086 -0.0422  0.0291 -0.1698
28972W        W44781   8.467   0.351   1.994 -0.0722  0.0012 -0.1484
28973W        W44782  17.574   9.299  14.719 -0.1403  0.2004 -0.4195
28974W        W44783   6.512  18.904  10.502  0.2667  0.1603  0.2235
28975W        W44784  14.800   2.069   1.206  0.0186  0.0441 -0.2111
28976W        W44785   8.103  12.795  10.052 -0.1313  0.2454  0.1066
28977W        W44786   6.481   0.489  13.268 -0.1784  0.2559  0.0797
28978W        W44787   1.026  13.904  12.426 -0.2240  0.0093 -0.0559
28979W        W44788  10.398   2.650  11.186  0.1984  0.2961 -0.2795
28980W        W44789  11.535  16.371   4.930 -0.3120 -0.0159  0.3047
28981W        W44790   8.925   5.009  12.638 -0.0602  0.4231  0.0125
28982W        W44791   7.996  16.554  10.498 -0.1899 -0.0559 -0.1609
28983W        W44792   2.563  16.234  11.136  0.4773  0.1855 -0.0774
28984W        W44793   7.716  11.113   5.203 -0.0754  0.1507 -0.0503
28985W        W44794   3.627  10.390  10.325 -0.1219 -0.0249 -0.0971
28986W        W44795  16.669  18.124  14.307 -0.1911 -0.1861 -0.0689
28987W        W44796   2.937   0.611   1.420  0.1573  0.0866  0.0044
28988W        W44797   3.740  16.338  10.032  0.1088  0.1323  0.0306
28989W        W44798   7.549  15.405  13.220 -0.0112  0.0561  0.3187
28990W        W44799   6.294  11.987  14.529  0.1981  0.2512  0.4716
28991W        W44800  14.051  13.808   4.424  0.1477  0.0445 -0.0300
28992W        W44801  11.727  11.086   2.978  0.0639  0.0184  0.0359
28993W        W44802  16.246   2.085   3.403 -0.1240 -0.0877  0.1164
28994W        W44803   3.581   0.902  14.214 -0.0146 -0.0438 -0.1786
28995W        W44804  13.181   9.102   2.838  0.0654 -0.1528  0.2231
28996W        W44805  18.827  13.537   1.456  0.0678  0.1285  0.0164
28997W        W44806  15.396  15.029  11.819 -0.2152  0.0135  0.1749
28998W        W44807  15.344   2.511   3.444 -0.2501  0.1171 -0.2912
28999W        W44808   7.406   8.257   1.608  0.3624  0.0235 -0.1297
29000W        W44809   7.401   6.048   1.687  0.0871  0.0258  0.0664
29001W        W44810   1.666  11.940   1.435  0.1319 -0.1565 -0.2419
29002W        W44811  12.527   8.290  14.492 -0.1172  0.0237  0.1168
29003W        W44812  10.569   8.802  14.321 -0.3716  0.3501 -0.0615
29004W        W44813  17.354  13.890   1.252  0.0001  0.0689  0.0983
29005W        W44814   5.960   8.248   2.298  0.1552  0.1785 -0.0109
29006W        W44815  14.893  18.673  12.501  0.0108  0.3515  0.1938
29007W        W44816   7.976  16.839  14.570  0.0762 -0.1248 -0.1100
29008W        W44817   0.019  13.100  13.384 -0.0045  0.2142  0.0040
29009W        W44818   1.439   8.535   3.882 -0.0643 -0.1702 -0.1081
29010W        W44819  15.701  15.658   2.155 -0.0880 -0.3362 -0.2089
29011W        W44820   2.229  15.194   3.611 -0.1033 -0.1498 -0.3695
29012W        W44821   6.304   8.814   2.157  0.1846 -0.1034 -0.1165
29013W        W44822  18.032   6.045  12.465  0.1512  0.0110  0.3041
29014W        W44823  14.747  13.340   3.384  0.1352 -0.2002 -0.1300
29015W        W44824   5.328  13.276   1.211  0.1067 -0.0596  0.0250
29016W        W44825  11.694  11.476  14.874  0.3012 -0.0444  0.1532
29017W        W44826   1.981  12.535  12.465 -0.2447  0.0734 -0.1517
29018W        W44827   0.380  18.900   0.570 -0.0430 -0.1026  0.0468
29019W        W44828  12.827   6.402   3.749  0.1075  0.0365  0.1961
29020W        W44829   7.261   0.541   1.266 -0.1280  0.1029  0.0460
29021W        W44830  16.873   1.676  14.410 -0.1039 -0.2996  0.0193
29022W        W44831   1.253  17.304  15.116 -0.3381 -0.2186  0.2461
29023W        W44832  17.386   4.162  11.232 -0.0325  0.1028 -0.0568
29024W        W44833   1.028  11.164   0.624 -0.0269 -0.1225 -0.0402
29025W        W44834  15.684   4.037   0.021  0.2426 -0.2010  0.1912
29026W        W44835  15.173   7.047  13.466  0.3098  0.0230 -0.1836
29027W        W44836   6.208  18.466   0.028 -0.0718  0.1066  0.2352
29028W        W44837   1.700  12.404  14.337  0.2159 -0.1640  0.2519
29029W        W44838  13.579   5.867   1.238 -0.1038  0.0702 -0.1398
29030W        W44839  10.216   7.895  12.206 -0.0172  0.1961  0.1078
29031W        W44840   0.352  15.160   5.276 -0.0391 -0.0618 -0.0088
29032W        W44841   3.993  13.636   2.634  0.2667  0.0599  0.3153
29033W        W44842   9.096   9.067  11.031 -0.1504 -0.0667  0.0429
29034W        W44843  15.640   5.827  14.585 -0.2481  0.0160  0.0358
29035W        W44844  18.301   7.599  11.001  0.0992 -0.3911  0.2224
29036W        W44845  16.064   4.242  13.523  0.0707  0.0334 -0.0315
29037W        W44846  10.969  11.045   0.993 -0.1133 -0.0666 -0.2614
29038W        W44847   9.232  13.563   1.000 -0.3075  0.1322 -0.1804
29039W        W44848  17.155  14.232  14.327 -0.0983 -0.0247  0.1590
29040W        W44849   1.055   4.969   2.678 -0.1071  0.2193 -0.2835
29041W        W44850   2.165  18.716   0.059 -0.0549 -0.5216 -0.0927
29042W        W44851   4.803  17.776   1.317  0.0293 -0.2666 -0.0773
29043W        W44852  14.534  10.993   1.134  0.2149  0.0317 -0.2836
29044W        W44853  15.430  13.869  15.100 -0.0121 -0.1071 -0.1107
29045W        W44854   4.664  13.123   3.006 -0.1736 -0.1792 -0.3167
29046W        W44855   6.832  15.071   2.867 -0.0235 -0.1541 -0.1545
29047W        W44856   8.295   3.360   0.135  0.2352 -0.1142  0.1967
29048W        W44857   4.664   9.621  14.602 -0.1072 -0.1766  0.0587
29049W        W44858   7.466  15.071  15.147 -0.0905  0.0577 -0.1172
29050W        W44859  15.160  16.000  13.045  0.1092 -0.2578  0.1706
29051W        W44860   3.057   7.952   9.015 -0.0216  0.1106  0.0644
29052W        W44861   2.063  19.106   4.350 -0.3341  0.1233  0.0287
29053W        W44862  11.896  12.455   3.480  0.0479 -0.1810  0.2321
29054W        W44863  18.224  16.776   2.647 -0.1264 -0.1993 -0.2134
29055W        W44864  14.699   6.010   5.201  0.0858 -0.3139 -0.0738
29056W        W44865  12.550   1.567   0.054  0.0684  0.0190  0.1001
29057W        W44866   1.886   3.584  13.983  0.0583 -0.3617  0.1379
29058W        W44867   9.140   7.978  13.712 -0.1007  0.1226 -0.2887
29059W        W44868  13.070  17.044  12.572 -0.0727 -0.1428  0.5242
29060W        W44869  18.108   8.376   2.652 -0.3703  0.0603  0.0039
29061W        W44870  10.634  16.110   1.913 -0.3526  0.1338  0.1174
29062W        W44871  13.242  18.314   1.015 -0.1393 -0.2834  0.1781
29063W        W44872  14.180  10.262  13.277  0.2835  0.0150  0.1883
29064W        W44873  17.187   9.774   3.955  0.0936 -0.1445  0.0703
29065W        W44874   0.329  12.622   2.414 -0.2049 -0.0298  0.0261
29066W        W44875   5.997   4.299  14.572 -0.0949  0.3681 -0.1672
29067W        W44876  13.119  18.467  11.496  0.2046 -0.0470  0.1513
29068W        W44877   6.691   7.545   9.665  0.0690 -0.1068 -0.0339
29069W        W44878   2.255   6.388  11.799 -0.0023  0.0105 -0.1668
29070W        W44879   9.995   4.714  11.511 -0.0228  0.1574 -0.0210
29071W        W44880   7.553  10.613  14.542 -0.0466  0.2001  0.1208
29072W        W44881   5.638  14.331   0.959 -0.5904 -0.1744  0.0325
29073W        W44882  12.535  11.383   1.164  0.0266 -0.1625 -0.1343
29074W        W44883   2.977   1.578   1.650 -0.2662 -0.1164  0.0133
29075W        W44884  13.196  10.570   2.804 -0.3637  0.1845 -0.0269
29076W        W44885   3.875   6.957   3.823 -0.0794  0.1106  0.6332
29077W        W44886   3.694  15.879   2.951 -0.1550  0.4629  0.0790
29078W        W44887  17.403   0.598  11.569  0.1751 -0.0134  0.2032
29079W        W44888  13.805   6.165  13.515  0.1150  0.1647 -0.0134
29080W        W44889   4.706  17.811   4.116 -0.0134  0.0747  0.2455
29081W        W44890  12.444   1.630  13.736 -0.0339  0.2672  0.0405
29082W        W44891   3.388   3.241  13.502 -0.1819  0.1740 -0.2915
29083W        W44892   4.767  14.629  14.822  0.0282 -0.2249  0.1240
29084W        W44893   7.456   7.588  14.487  0.2889 -0.0297 -0.0864
29085W        W44894   8.798  18.475   5.121  0.0123  0.0852 -0.0369
29086W        W44895   7.928  14.618   1.728 -0.0354  0.3157 -0.0238
29087W        W44896  15.332  17.226  13.636  0.3281 -0.1083 -0.3634
29088W        W44897  13.905   3.028   3.280 -0.0172  0.0292  0.1195
29089W        W44898   1.389  13.888  10.924  0.2892  0.1028 -0.3345
29090W        W44899  11.931  13.730   5.267  0.0605 -0.1824  0.0954
29091W        W44900  14.186  15.673  14.543  0.1764  0.2469  0.1170
29092W        W44901   9.609  16.782  10.609 -0.0633 -0.0092  0.0804
29093W        W44902  13.554   9.329  13.102 -0.3662  0.1094  0.1172
29094W        W44903   1.220   3.442   1.550 -0.0146  0.0562 -0.0435
29095W        W44904  18.566   3.616   0.067 -0.1118 -0.1499 -0.2264
29096W        W44905  14.902  14.474  14.217  0.1207 -0.0469  0.1045
29097W        W44906  11.825   3.650   0.984 -0.0032  0.3350  0.0745
29098W        W44907  16.565   7.941  14.581  0.1525 -0.1372 -0.3717
29099W        W44908   4.128  10.445  10.482 -0.2019  0.0279 -0.1295
29100W        W44909   0.577   2.366   3.317 -0.1945  0.1632 -0.3350
29101W        W44910   2.607   7.207   4.610 -0.0966 -0.3349 -0.1725
29102W        W44911   8.019   8.639   0.041 -0.0277 -0.0599  0.0005
29103W        W44912   0.032  10.691   2.699  0.3249 -0.0305 -0.3762
29104W        W44913   3.441   8.656   4.224  0.1264  0.1275 -0.1961
29105W        W44914   4.827   5.478  10.153 -0.2925 -0.1083 -0.0813
29106W        W44915  10.541   1.994   5.499 -0.0405  0.3327 -0.1935
29107W        W44916  13.401   6.645   0.117  0.2885  0.3523  0.1903
29108W        W44917  16.965   4.010   0.518  0.0331 -0.2987  0.1055
29109W        W44918  11.853   9.166  13.936  0.1004  0.0051  0.0745
29110W        W44919   3.321   2.675   1.370  0.2235 -0.0163 -0.0755
29111W        W44920  15.744   7.953   2.205 -0.0409 -0.3215 -0.3556
29112W        W44921  13.033  12.310  13.207  0.0392 -0.2695  0.1482
29113W        W44922   7.651   4.774   3.144 -0.3287  0.3149  0.1433
29114W        W44923   5.085   3.826  15.001 -0.1323  0.3555  0.0543
29115W        W44924  13.280  18.156   5.472 -0.1428 -0.1591 -0.0954
29116W        W44925  16.711   1.804   2.119 -0.2452  0.1583 -0.1025
29117W        W44926  18.969   8.409   3.801  0.2403 -0.2642 -0.0249
29118W        W44927   1.330   4.606   3.423 -0.2374  0.2376  0.2512
29119W        W44928  11.634   9.413  13.501 -0.1708 -0.1821 -0.1724
29120W        W44929   7.411  15.585   4.905  0.1435 -0.2044 -0.0422
29121W        W44930   3.728   5.690  11.307  0.2277  0.2274  0.0105
29122W        W44931  15.263  13.193  11.252 -0.0054 -0.2384 -0.2008
29123W        W44932   3.501   8.364  12.087 -0.1835  0.1468 -0.1310
29124W        W44933   0.937   2.175  13.920 -0.1410  0.0156  0.0899
29125W        W44934  14.478   1.234   2.724 -0.1436 -0.1945 -0.1171
29126W        W44935  11.564   4.336  13.321 -0.1442  0.0647 -0.3392
29127W        W44936   1.380  18.363   2.514 -0.0963  0.2279 -0.2676
29128W        W44937   9.002   8.198  10.320  0.1216  0.0340  0.1952
29129W        W44938   5.113   9.012  13.947  0.1660 -0.1002  0.1967
29130W        W44939   9.376   7.893  12.682 -0.0369 -0.0581 -0.1235
29131W        W44940  11.635  12.744   2.393  0.2444 -0.1920  0.1933
29132W        W44941   6.734   4.323   9.606 -0.1076 -0.1653 -0.0676
29133W        W44942  15.413  10.689  14.297  0.2930  0.1249 -0.2040
29134W        W44943  15.584  13.651  13.524 -0.5642  0.1211  0.0583
29135W        W44944   9.959  16.684  14.681 -0.1246 -0.0695 -0.0323
29136W        W44945   3.517  16.645   2.235  0.0526 -0.2317 -0.2113
29137W        W44946   9.571   5.771  12.953  0.1507  0.1433  0.0620
29138W        W44947   5.848  14.932   1.717 -0.1074 -0.0798 -0.0451
29139W        W44948   7.158  15.791   3.756 -0.1717  0.3053  0.2819
29140W        W44949   4.800  18.330  13.931 -0.0546 -0.1477  0.1521
29141W        W44950  10.461   7.273  14.297 -0.1030 -0.1598 -0.0802
29142W        W44951  17.998  13.614   4.372 -0.2303  0.0387  0.0577
29143W        W44952  14.927  12.281   5.433  0.1637 -0.2148  0.0870
29144W        W44953  13.530  13.349   0.632  0.3200  0.1129 -0.2371
29145W        W44954  17.667  15.817   3.008 -0.1578 -0.0999 -0.0120
29146W        W44955  18.078  13.301  11.666 -0.0167 -0.1765 -0.1930
29147W        W44956   4.934  12.216   0.448  0.0828 -0.1552  0.1216
29148W        W44957  10.025  11.193   5.429  0.1749  0.1298 -0.4783
29149W        W44958  12.547   8.669   1.859 -0.3658  0.1207 -0.0609
29150W        W44959   8.209   2.088   0.571 -0.1679  0.0623  0.2835
29151W        W44960  12.420   0.491   3.538  0.0952  0.0752  0.0489
29152W        W44961  12.902   1.591  11.210 -0.0105  0.2756  0.1036
29153W        W44962   7.691  14.552  12.892 -0.0261  0.3174  0.3788
29154W        W44963   0.253   9.561   0.168  0.1579 -0.0519 -0.2972
29155W        W44964  15.614  18.368   0.125 -0.3969  0.3137  0.2186
29156W        W44965  13.930  11.657   0.852  0.1904  0.1651 -0.1408
29157W        W44966   4.423   1.207   4.576  0.0501  0.0776  0.1654
29158W        W44967   7.184   5.954  14.844  0.1941  0.1810 -0.2400
29159W        W44968  17.201  18.812   2.444  0.2550  0.0709 -0.0143
29160W        W44969   1.537  10.531  14.142 -0.2154  0.0403  0.2209
29161W        W44970  16.953  13.913   3.899 -0.1903  0.0224  0.0033
29162W        W44971  17.884  18.532   2.940 -0.0565 -0.2195 -0.2763
29163W        W44972   0.785   1.430   4.563 -0.0570 -0.0933 -0.0935
29164W        W44973  14.639   4.574   2.864  0.0003 -0.1428  0.0259
29165W        W44974   2.783   9.150   3.230 -0.1396  0.1473 -0.2771
29166W        W44975  11.685   7.071   1.520 -0.2493 -0.1600 -0.1556
29167W        W44976   7.604   2.891   5.373 -0.2296  0.1462  0.2691
29168W        W44977   1.271  17.888  14.281  0.1121 -0.1818  0.3469
29169W        W44978   2.500  10.584   3.435  0.1069 -0.0385 -0.0576
29170W        W44979   6.598  15.590   2.367  0.0093  0.1353 -0.1425
29171W        W44980   1.478   6.242   0.635 -0.0624 -0.0101 -0.1688
29172W        W44981  15.076   0.259   0.332  0.2861  0.1100 -0.1988
29173W        W44982   9.031   3.328   0.846  0.1073 -0.1872  0.0205
29174W        W44983   8.769   9.168  13.189  0.2219 -0.0820 -0.0085
29175W        W44984   2.275   7.831   1.184  0.2167 -0.2807 -0.0363
29176W        W44985  19.042  12.543   3.829 -0.0400 -0.0923 -0.0356
29177W        W44986  15.624   5.719   5.719  0.2383  0.3545 -0.0214
29178W        W44987  11.079  15.137   4.398 -0.2832  0.3247 -0.0561
29179W        W44988   5.890   7.384  13.256  0.1125  0.2229 -0.1762
29180W        W44989  17.915   8.382  15.036 -0.0229  0.2473 -0.1232
29181W        W44990  17.324  14.433   4.757 -0.1820  0.0803 -0.1006
29182W        W44991  10.417  10.256  14.746 -0.1231  0.0975  0.0934
29183W        W44992   9.692   0.783   3.210 -0.0479  0.2028 -0.2700
29184W        W44993  15.841   0.975  11.125  0.1594 -0.0660 -0.3024
29185W        W44994   8.604  12.032   4.544  0.0740  0.4116 -0.0736
29186W        W44995  10.315   6.220  10.612  0.2510 -0.1080 -0.0149
29187W        W44996  10.282  15.474   1.588 -0.0692  0.1026  0.0681
29188W        W44997  14.601  11.642   3.548 -0.1389 -0.0568  0.2258
29189W        W44998  14.409  14.400   1.235  0.0644  0.1605 -0.3360
29190W        W44999  12.282   5.573   4.212  0.1137  0.3981  0.0022
29191W        W45000   8.293   5.753  14.267  0.0755  0.2861 -0.0933
29192W        W45001  14.605   8.422   2.474  0.2341  0.1603 -0.2737
29193W        W45002  17.455  18.728   0.265  0.0654 -0.0928 -0.0382
29194W        W45003   7.505  15.785   2.623 -0.1421 -0.2969 -0.1241
29195W        W45004  12.724  16.842  11.861  0.2945  0.0794  0.0641
29196W        W45005   8.304  15.833   1.708  0.0882  0.0224  0.0591
29197W        W45006   0.508   3.900  11.291 -0.3083  0.2044  0.0170
29198W        W45007   1.144  14.568   3.880 -0.4325  0.2605 -0.1247
29199W        W45008   2.958   6.812  11.379  0.1069 -0.0271  0.0944
29200W        W45009  18.238   4.904   0.551 -0.1598 -0.6795 -0.3891
29201W        W45010  18.932   1.750  10.408 -0.1702 -0.1746 -0.0993
29202W        W45011   3.018  11.460   4.237 -0.0394 -0.0917 -0.0941
29203W        W45012  17.292   3.224   0.637 -0.2990 -0.3752  0.0267
29204W        W45013   4.843   4.778  11.324  0.0722  0.1057 -0.0416
29205W        W45014   8.690   2.251  11.304 -0.1359 -0.0696 -0.0225
29206W        W45015   6.226  10.038  12.637 -0.2802 -0.1941 -0.0270
29207W        W45016  14.099  19.051  12.296 -0.5552  0.1553 -0.3962
29208W        W45017   1.765  17.363   5.326 -0.2000  0.2845 -0.3036
29209W        W45018   4.449  17.740   3.038 -0.0449 -0.2491  0.0386
29210W        W45019   3.714  13.896   0.473 -0.0099 -0.0559 -0.1991
29211W        W45020  12.492   7.806   1.412 -0.2224  0.0155  0.2049
29212W        W45021   5.646  16.090   4.105 -0.1458  0.0395  0.0057
29213W        W45022   2.551   2.232  10.431 -0.2374  0.2946 -0.1590
29214W        W45023   6.247   8.058  10.236  0.2457  0.0536 -0.2555
29215W        W45024  17.354   6.942   0.863 -0.2477  0.0408 -0.1907
29216W        W45025   7.298  13.231   3.640  0.1500 -0.0981 -0.1214
29217W        W45026  13.993   1.629   4.421 -0.2111  0.0768  0.2203
29218W        W45027  11.341  14.740  14.081  0.2282  0.1002 -0.1929
29219W        W45028   0.522   4.015   2.124  0.2884  0.2073 -0.1832
29220W        W45029   2.616   2.539  10.993 -0.0073  0.5532 -0.4037
29221W        W45030   4.746  14.357   2.250 -0.0373 -0.0186 -0.0779
29222W        W45031   4.982  13.895  12.686  0.1598  0.0211  0.0492
29223W        W45032   1.494   5.730   0.843  0.1133 -0.1361 -0.1886
29224W        W45033   9.076   6.810  10.417 -0.1054 -0.1390  0.6026
29225W        W45034   6.104  10.110  10.886  0.0325  0.1211  0.0989
29226W        W45035  13.909   3.071   2.313  0.1719  0.1830  0.1368
29227W        W45036  14.605  10.655  14.129 -0.1465  0.0472  0.1350
29228W        W45037  15.042   8.734   1.286  0.2319  0.0726  0.1681
29229W        W45038  10.518   0.417   0.375  0.2517  0.4044  0.2545
29230W        W45039   9.579   4.312   1.302  0.0551  0.2238  0.2275
29231W        W45040  10.395   9.932  12.948 -0.2058  0.2930  0.2363
29232W        W45041  18.399  15.666  14.053  0.0416 -0.0790 -0.2203
29233W        W45042   9.465  16.035  13.306 -0.0008  0.3440  0.4676
29234W        W45043   3.251  11.692   1.093  0.1261  0.1244  0.0040
29235W        W45044  17.590   4.955  12.551 -0.3759  0.1547 -0.2399
29236W        W45045  18.835   9.259  11.060  0.2475 -0.0184 -0.0218
29237W        W45046  10.990  12.962   3.036  0.3048  0.1519  0.0039
29238W        W45047  16.089  11.718   4.788 -0.1290  0.1719  0.3014
29239W        W45048   4.338   4.996   0.107  0.3388  0.3428 -0.0013
29240W        W45049   3.128  17.181   2.976 -0.1996  0.2346  0.1136
29241W        W45050  11.185   5.519   4.790  0.0075  0.0307 -0.1748
29242W        W45051  11.971  18.738  13.569  0.1610  0.1167 -0.0546
29243W        W45052   1.935   9.416   1.982 -0.2078  0.3697 -0.0119
29244W        W45053  12.717   8.067   0.971  0.2354 -0.0279 -0.1952
29245W        W45054   7.187   2.654   4.545 -0.1346  0.1609  0.1527
29246W        W45055  14.364   2.032   4.259  0.0456 -0.2608 -0.2917
29247W        W45056   9.991  14.058  11.518  0.0722  0.4139  0.0725
29248W        W45057   4.650   4.098  10.829  0.0047 -0.1217  0.0334
29249W        W45058   9.089  18.040   0.959  0.4066  0.1382  0.1123
29250W        W45059  10.791  11.523   1.486  0.0216 -0.2963  0.2193
29251W        W45060   1.815   2.151   1.769 -0.0295  0.3086 -0.2201
29252W        W45061   1.159   1.852  12.943 -0.3752 -0.0331  0.2444
29253W        W45062  18.263  17.624   3.643 -0.3237  0.1246  0.4850
29254W        W45063  15.100  13.630  14.750 -0.1588 -0.0019  0.0517
29255W        W45064   2.413  13.588   2.662  0.0682  0.0582  0.0566
29256W        W45065  12.512   8.384   4.696  0.2681 -0.1487  0.1119
29257W        W45066   6.555  12.396  10.254 -0.0657 -0.0089  0.1434
29258W        W45067  19.029  12.124   2.925  0.0390  0.1665 -0.1604
29259W        W45068  14.986  16.306  12.102 -0.1210 -0.1957  0.0726
29260W        W45069   8.816   8.921  12.328  0.4345  0.2309  0.0057
29261W        W45070   6.371   2.223  14.127 -0.0672  0.1535 -0.2428
29262W        W45071  15.505   5.413   5.314  0.0737  0.0999 -0.2254
29263W        W45072   2.860   2.702   9.126 -0.1732 -0.1000 -0.0021
29264W        W45073  18.608  10.828   1.929 -0.0506  0.1191  0.1008
29265W        W45074  17.724   0.929  15.152 -0.1082  0.2921 -0.2316
29266W        W45075   0.795  13.874   0.183 -0.0107 -0.1390 -0.0638
29267W        W45076  11.693   3.483   1.998  0.3163  0.0353 -0.0885
29268W        W45077   0.664  14.396   3.714  0.0810  0.1519 -0.3931
29269W        W45078   5.348  10.342  12.239 -0.3519 -0.0373 -0.5656
29270W        W45079   3.486  11.749  11.376  0.1555 -0.1666  0.1104
29271W        W45080   4.328   3.044   1.001  0.1876  0.3352 -0.0915
29272W        W45081   5.507  15.263   3.721 -0.0511  0.3361 -0.5588
29273W        W45082   1.566   3.565  11.080 -0.3703  0.1698  0.2845
29274W        W45083   8.765   7.324   3.523  0.0731  0.2318 -0.1510
29275W        W45084  17.813   5.873   3.967 -0.3447 -0.0515 -0.3653
29276W        W45085   5.544  10.464   4.187  0.2044 -0.1343  0.0337
29277W        W45086   1.213   6.536   2.789  0.0790 -0.0578  0.3211
29278W        W45087  15.061  14.820   2.560  0.1878 -0.0028  0.2216
29279W        W45088   2.217  18.541   2.840  0.2324 -0.0808 -0.0544
29280W        W45089   8.384  11.407  13.482 -0.2543 -0.1788 -0.3304
29281W        W45090   7.821   3.869   3.866 -0.0093  0.2497  0.1284
29282W        W45091  16.508   9.146  13.873  0.4787 -0.1489  0.0540
29283W        W45092   0.442  14.395  10.707 -0.1061  0.1587  0.0579
29284W        W45093   6.731  16.449   2.002 -0.2568  0.0438 -0.1430
29285W        W45094  11.214  18.745   3.557 -0.3178 -0.3226 -0.0336
29286W        W45095   4.820   4.844   3.570 -0.0433 -0.1789  0.1197
29287W        W45096  16.389  10.382   1.449  0.0725  0.1793  0.0658
29288W        W45097   8.695   9.428   5.638  0.0670  0.0268 -0.2465
29289W        W45098  11.377  14.907  13.585 -0.0853 -0.2728  0.0934
29290W        W45099   6.546   1.208  13.162  0.1456 -0.1596 -0.1462
29291W        W45100   2.118   6.973   1.812  0.0969 -0.1470 -0.5818
29292W        W45101   4.573  11.344   1.659  0.1417  0.0878  0.0928
29293W        W45102   2.923   2.548  11.525 -0.2392  0.0758 -0.1755
29294W        W45103  15.026  15.189  13.423 -0.0437 -0.1492 -0.1442
29295W        W45104   8.530  16.826   1.337  0.1455  0.1579  0.3082
29296W        W45105   1.405   5.986  11.996 -0.2624 -0.0717  0.1020
29297W        W45106   7.195  11.146  14.962  0.0136 -0.0005  0.0433
29298W        W45107  16.466   7.305   2.892  0.2877 -0.0330  0.1382
29299W        W45108  11.108  12.870   5.104 -0.1823  0.1089  0.1846
29300W        W45109   4.798  14.181  13.698 -0.0061  0.0476  0.0022
29301W        W45110   4.400  16.668   3.080 -0.3078 -0.3470 -0.0722
29302W        W45111   1.312  12.506  10.441 -0.0380  0.4303  0.3793
29303W        W45112   1.827   5.610   1.222  0.3521 -0.0285  0.1818
29304W        W45113  14.431  12.528  12.090  0.1642  0.0768  0.1142
29305W        W45114   8.373   5.354  10.411 -0.1275  0.0987  0.0268
29306W        W45115  15.096  10.205  10.716 -0.0452 -0.1498 -0.4778
29307W        W45116   3.677  18.770   5.237 -0.2082 -0.0075  0.3534
29308W        W45117   9.887  15.292  13.488 -0.1246  0.1452 -0.0907
29309W        W45118   2.313  13.248   2.007  0.4135  0.1760 -0.0387
29310W        W45119  13.654  13.409   4.608  0.0738 -0.0127  0.3025
29311W        W45120   1.385  18.874   1.669 -0.0195  0.0320 -0.0917
29312W        W45121   9.242  10.831  10.881 -0.2293  0.0478 -0.0331
29313W        W45122   7.242  11.011  13.136  0.2913  0.1413 -0.0193
29314W        W45123  17.007  11.330   3.709  0.1181  0.1562  0.0143
29315W        W45124   5.478   5.087   4.259  0.1086 -0.2310  0.0419
29316W        W45125   9.748  11.728  12.861  0.1710 -0.0008  0.0416
29317W        W45126  16.583  15.578  14.037  0.0123  0.1675  0.2894
29318W        W45127   6.415   8.975   4.299 -0.1310 -0.0911 -0.1823
29319W        W45128  15.154  15.087   6.123 -0.0040 -0.3764 -0.3272
29320W        W45129  13.839  16.259   1.947  0.0769 -0.2127  0.2147
29321W        W45130   8.192  10.497   2.109  0.2669  0.1785  0.1144
29322W        W45131   1.148  10.816   5.219 -0.2728 -0.0624 -0.0922
29323W        W45132  17.249   2.687  11.677  0.1875  0.3046 -0.2674
29324W        W45133   3.769   9.230  13.704  0.3289  0.2286 -0.2656
29325W        W45134  15.996  10.602   5.111 -0.3132  0.3433 -0.1498
29326W        W45135  11.846   5.179  14.496  0.1032  0.1115 -0.0397
29327W        W45136   2.854  13.605  10.737  0.1600 -0.1995  0.0283
29328W        W45137   6.964  16.044   3.265  0.5234 -0.2706 -0.0512
29329W        W45138  12.418   1.820   1.601 -0.0670  0.0742  0.0772
29330W        W45139  12.286  17.114  14.177  0.1506 -0.1622  0.1589
29331W        W45140   0.095   9.511   1.784  0.1260 -0.1850 -0.0568
29332W        W45141  18.572  18.479  12.459  0.2729 -0.0073  0.0587
29333W        W45142  13.877   2.883  14.298  0.2596 -0.0014  0.0183
29334W        W45143  15.021  15.088   5.644 -0.4174 -0.0036  0.3947
29335W        W45144   9.671  18.468   4.236  0.1200 -0.1633  0.1002
29336W        W45145   5.609  13.943  13.460  0.0295 -0.1577 -0.3669
29337W        W45146  17.395   2.002   2.749  0.1158  0.0884  0.0210
29338W        W45147   1.826   2.018  10.296  0.1783  0.0433  0.2911
29339W        W45148  18.311  14.535  13.526 -0.0094  0.2018  0.2242
29340W        W45149   4.518  12.310  12.050 -0.1848  0.0554  0.1130
29341W        W45150  10.408   8.817  13.477 -0.0543  0.1133 -0.0476
29342W        W45151   2.575  13.569  14.197 -0.3567  0.0480 -0.2882
29343W        W45152  17.493  17.816  11.450  0.1872  0.1452  0.3321
29344W        W45153   5.939   5.247  10.991  0.1471  0.1743 -0.1335
29345W        W45154  15.402   5.526  12.326 -0.0565  0.0295 -0.1395
29346W        W45155   5.123   9.850  14.828 -0.0512 -0.1566 -0.2730
29347W        W45156   4.870   9.093  12.172 -0.0598  0.1570  0.0080
29348W        W45157   7.553   0.385   4.825  0.0795  0.0824  0.4194
29349W        W45158   1.051  16.687   1.247 -0.2057 -0.0318 -0.2083
29350W        W45159   3.262  10.402   4.261  0.2146 -0.0143  0.1490
29351W        W45160  14.063   9.756   0.484 -0.1342 -0.1686  0.2362
29352W        W45161   8.327  12.954  14.905 -0.2867 -0.0070  0.5346
29353W        W45162   0.145  17.719   0.949  0.0548  0.0903  0.0632
29354W        W45163  12.793   0.423   1.087  0.3904  0.1475  0.1192
29355W        W45164  11.202   0.906  10.664 -0.2395  0.0045  0.0040
29356W        W45165  10.429   6.940  10.954 -0.2137 -0.0695  0.2920
29357W        W45166  18.594  12.340   3.866 -0.1061  0.1953  0.3093
29358W        W45167  18.833   3.065   2.535  0.0367  0.2549  0.1130
29359W        W45168  12.117   2.682  12.261  0.2275 -0.1252 -0.1391
29360W        W45169   2.029   0.770  12.735  0.1742 -0.0390 -0.0474
29361W        W45170  10.517  11.279   0.138  0.0881  0.0288  0.0095
29362W        W45171  12.110   7.687  10.496  0.0006 -0.0491  0.2465
29363W        W45172  17.549  15.567   1.402 -0.0155  0.1117  0.0497
29364W        W45173  13.049   9.780   2.985 -0.1835  0.1857  0.0804
29365W        W45174   7.514   8.697  15.124  0.1005  0.1747 -0.0406
29366W        W45175   8.524  11.340   5.757 -0.1677 -0.4161  0.4811
29367W        W45176   7.281   3.884   5.853 -0.0232 -0.0447  0.0544
29368W        W45177   7.242   6.147  12.543  0.1871 -0.1765 -0.0699
29369W        W45178  10.215   7.016   3.342 -0.0449 -0.2216  0.2828
29370W        W45179   3.550   0.134  11.881  0.2437 -0.0445 -0.0590
29371W        W45180  17.728  16.169  12.829 -0.3724 -0.3789 -0.0052
29372W        W45181  12.646   6.522   3.256 -0.4322 -0.0095  0.0165
29373W        W45182  16.799   2.843   0.361 -0.0681  0.0266 -0.1792
29374W        W45183  18.750   1.338  13.698  0.2851 -0.0091  0.0398
29375W        W45184  14.907  13.792   2.170  0.1042  0.3035  0.1752
29376W        W45185  13.216  12.822   2.943  0.0296  0.2001 -0.1339
29377W        W45186  12.387  12.890   3.474 -0.3629 -0.0470 -0.0161
29378W        W45187  12.652   5.012  13.768  0.0709 -0.0766  0.0938
29379W        W45188   6.324   3.291   1.252  0.1129  0.1892 -0.0406
29380W        W45189   7.518   1.295   1.488 -0.0769 -0.2742  0.3014
29381W        W45190   5.723   9.258   0.516 -0.1180  0.2543  0.1195
29382W        W45191  17.965   2.988  12.229 -0.4816 -0.1036  0.1442
29383W        W45192  14.285   4.042   0.018 -0.0595 -0.6990 -0.1556
29384W        W45193  17.279  12.436   1.057  0.0076 -0.1417  0.0510
29385W        W45194   9.261  12.239  12.910  0.2030  0.3661 -0.5669
29386W        W45195  10.136  11.017   0.888  0.2658 -0.0513 -0.1030
29387W        W45196   1.502   9.687  10.404 -0.1215 -0.2926 -0.0213
29388W        W45197   8.673   7.646  10.436 -0.2008 -0.1776  0.1813
29389W        W45198  17.786  18.978  14.397 -0.2819  0.1295  0.3125
29390W        W45199   8.360  12.412   1.922 -0.1685 -0.0787  0.2318
29391W        W45200  18.676   8.222   1.839  0.4175 -0.0862  0.1195
29392W        W45201  14.262  15.586  13.627 -0.3883  0.1798 -0.2077
29393W        W45202   3.483   7.596  12.968  0.0019 -0.1041 -0.0729
29394W        W45203  12.096   8.962  10.069 -0.3183 -0.0987 -0.1317
29395W        W45204  16.665  15.494   4.097 -0.2400  0.0336 -0.1216
29396W        W45205   2.647   5.798   1.317  0.0587  0.2929 -0.1040
29397W        W45206   2.191   2.243   2.160 -0.1393 -0.0903  0.0097
29398W        W45207  12.062   9.483   0.502  0.3374 -0.1993 -0.1973
29399W        W45208   9.589   0.632   6.044  0.1124  0.0516  0.2845
29400W        W45209  13.817  10.754  12.356  0.0796 -0.1314  0.0914
29401W        W45210  14.631   8.576  13.047  0.0605  0.1097 -0.2683
29402W        W45211   1.638  17.831   5.211 -0.2800  0.0507 -0.0482
29403W        W45212  14.625  18.857   3.779 -0.1043  0.0274 -0.2869
29404W        W45213   7.015   3.130  12.046 -0.0996  0.2228 -0.1917
29405W        W45214  17.432  11.447  14.538 -0.1894 -0.0456  0.2180
29406W        W45215   7.186   6.043  10.496  0.1732 -0.3414 -0.5809
29407W        W45216  14.603   2.478  11.573 -0.0619  0.3382 -0.3748
29408W        W45217  11.150  11.932   4.076  0.0898 -0.4496 -0.0406
29409W        W45218  18.298  16.096  14.554 -0.0868 -0.3407  0.2189
29410W        W45219  15.370  12.649   1.285 -0.1418  0.0470  0.3255
29411W        W45220   7.524   8.647   0.513  0.1236 -0.0107 -0.3296
29412W        W45221   5.027  15.997   4.718 -0.2958 -0.0169 -0.2350
29413W        W45222  12.326  16.479  14.233  0.1697 -0.1583  0.2792
29414W        W45223   9.225  18.573  13.278 -0.0520 -0.1665  0.0250
29415W        W45224  12.908  13.213  14.143 -0.0071  0.0025  0.3101
29416W        W45225  12.930  11.094  14.139  0.0937  0.1562  0.0850
29417W        W45226   5.736  16.074   0.347  0.1318 -0.0617  0.2788
29418W        W45227   3.913  17.081   4.733 -0.0596 -0.0115 -0.1261
29419W        W45228   5.565   7.609   1.100 -0.1138 -0.1049 -0.2167
29420W        W45229   8.312   7.647  14.232 -0.0383  0.0323 -0.0279
29421W        W45230   3.371  18.291  11.437 -0.0479  0.0713 -0.1704
29422W        W45231   1.751   1.924   3.613 -0.0414  0.0119 -0.1292
29423W        W45232  12.102  15.831   4.868 -0.2453  0.1606  0.2023
29424W        W45233   2.460   2.211   3.570 -0.0162  0.1084 -0.0107
29425W        W45234   4.091   2.825   2.830 -0.0150 -0.2540  0.1808
29426W        W45235   7.931   7.270   4.578  0.0543  0.1885 -0.1385
29427W        W45236   6.426  14.495   4.700  0.3282 -0.1057  0.0264
29428W        W45237   8.243   4.072   3.859 -0.0094  0.2036  0.0454
29429W        W45238   3.154   8.482   2.285  0.1016 -0.2510  0.1330
29430W        W45239   6.690  16.355   1.033 -0.4354 -0.3147 -0.3802
29431W        W45240  18.605  12.371  11.873  0.0590  0.0851 -0.3074
29432W        W45241   3.876   4.405   1.813  0.0505 -0.1623 -0.0785
29433W        W45242   2.509  10.349   2.304  0.1002  0.2562 -0.2191
29434W        W45243   2.178  18.599   1.417  0.0739  0.0405 -0.2035
29435W        W45244   0.819   0.782   3.838  0.1743 -0.1385 -0.1518
29436W        W45245   6.168  14.864   2.357  0.0327  0.0110 -0.2432
29437W        W45246   6.575  16.571   3.213 -0.0816  0.1787  0.1105
29438W        W45247  14.678  14.400   3.799 -0.2640  0.1556  0.0941
29439W        W45248   4.897  10.615   0.083  0.0699 -0.0337 -0.2727
29440W        W45249  13.615   8.882  11.677  0.3717 -0.0947  0.2068
29441W        W45250   5.260   6.388   2.993 -0.2119 -0.1632  0.2247
29442W        W45251   3.061   1.149   4.451 -0.0187  0.3684 -0.1892
29443W        W45252  16.794   8.422  13.415 -0.1408 -0.0156  0.2305
29444W        W45253   0.173  17.181   4.371 -0.2278 -0.2537 -0.1419
29445W        W45254   7.064  16.488  14.360 -0.2229 -0.1495  0.2292
29446W        W45255  16.527  17.222   4.276 -0.0733 -0.1638 -0.0951
29447W        W45256   5.076   8.496  14.004  0.0396 -0.1398  0.0068
29448W        W45257   2.543   6.179   4.285 -0.1290  0.0543  0.4051
29449W        W45258  15.457   6.655  14.498 -0.3035  0.1459 -0.0912
29450W        W45259  13.361  18.756   0.222  0.1252 -0.3165  0.0958
29451W        W45260   7.572   8.678  11.864  0.1096 -0.2418 -0.1119
29452W        W45261  17.539  18.762   0.771  0.2234  0.1715  0.2580
29453W        W45262   4.882  15.647  14.133  0.1723  0.1279  0.2466
29454W        W45263  10.988   8.677  12.363  0.1066  0.0700  0.2938
29455W        W45264   9.375  16.701   3.930 -0.0109  0.0617 -0.3219
29456W        W45265  17.934   9.757  14.763 -0.3174  0.5017  0.0110
29457W        W45266   3.203  19.152   0.616  0.1690 -0.1158 -0.0215
29458W        W45267   8.348  12.447  13.291  0.0131 -0.1824  0.1679
29459W        W45268   2.942  17.643   1.735 -0.4647 -0.3642 -0.2207
29460W        W45269   0.370   2.385   1.439 -0.1036  0.0664  0.3977
29461W        W45270  12.237   3.386   0.897  0.3476  0.1291  0.0741
29462W        W45271  18.571   1.806   3.620 -0.1185  0.1490 -0.0444
29463W        W45272   8.030   0.463   1.383  0.1456  0.1738  0.0981
29464W        W45273  13.361   7.543   1.312  0.1409 -0.4903  0.1726
29465W        W45274   4.556  16.832  15.157 -0.3031  0.3668 -0.1829
29466W        W45275   3.609   7.787   4.065 -0.4229 -0.1843  0.1838
29467W        W45276   0.660  16.992  14.397 -0.0022  0.2728  0.3424
29468W        W45277   9.758  10.561   1.603  0.1599  0.0847 -0.3607
29469W        W45278  13.319  11.269   4.388 -0.0319  0.2334 -0.0065
29470W        W45279  17.229   5.881  14.683  0.1560 -0.0425 -0.0398
29471W        W45280  11.690   8.173   3.196 -0.2362  0.2343 -0.0803
29472W        W45281  14.072  16.499  12.632  0.0347 -0.0152 -0.1612
29473W        W45282   5.675  11.874   1.198  0.2841  0.2386  0.4739
29474W        W45283  12.772  13.642   3.916 -0.0047  0.1045 -0.0073
29475W        W45284  12.158   3.909  12.121 -0.0298  0.3611 -0.2288
29476W        W45285  17.798   0.114  14.785 -0.0354 -0.0544 -0.0271
29477W        W45286   9.447  12.360   1.101 -0.2114  0.0626 -0.1244
29478W        W45287  13.485   5.569   2.755 -0.3533  0.0984 -0.2393
29479W        W45288   4.221   3.155  14.604  0.0101 -0.0288 -0.0002
29480W        W45289  11.073  12.592   1.791 -0.2192  0.1073 -0.5329
29481W        W45290   6.037  17.671   2.333  0.1780 -0.2563  0.0836
29482W        W45291   7.068   7.379  10.559 -0.2385 -0.0533  0.1539
29483W        W45292  10.064  11.786  11.272  0.2518  0.1783  0.0032
29484W        W45293   3.228  10.468  11.126 -0.3777  0.3124 -0.2623
29485W        W45294  12.332   1.633   1.165 -0.3822 -0.1041 -0.0147
29486W        W45295  13.823   1.578   4.878  0.0868  0.1879 -0.1749
29487W        W45296   8.089   0.516  12.937 -0.0129  0.1185  0.2551
29488W        W45297   9.872   3.931  13.150  0.0485 -0.1985  0.1157
29489W        W45298  15.655  15.347  14.990  0.1897 -0.0742 -0.1257
29490W        W45299  17.504  18.255   0.091 -0.1742 -0.1316 -0.1181
29491W        W45300   2.252   1.218   1.778 -0.1408 -0.0550  0.1827
29492W        W45301  11.576  14.807   4.364 -0.3523  0.0374 -0.5002
29493W        W45302  14.236   4.221  14.386 -0.2775 -0.2195 -0.2143
29494W        W45303  14.194  15.201   5.292 -0.1948 -0.5188 -0.1471
29495W        W45304  15.856   1.959   5.186  0.1234  0.1153  0.4842
29496W        W45305   9.027  12.358  12.434  0.2628 -0.2321 -0.5292
29497W        W45306   8.840  16.579   4.807  0.0420  0.2835  0.2006
29498W        W45307   9.582   3.476  14.810 -0.1065 -0.0053 -0.2968
29499W        W45308   1.170  18.240   1.351 -0.1797  0.1162  0.2442
29500W        W45309   7.840   0.926   2.509  0.0007 -0.1816 -0.1506
29501W        W45310  11.160   9.575  13.700  0.1446  0.2773  0.0899
29502W        W45311  12.615  10.642   4.168 -0.2590 -0.0525 -0.0089
29503W        W45312  14.830  14.997   0.495  0.3291 -0.0940 -0.0770
29504W        W45313  18.943  12.810   5.313  0.1061  0.1288  0.3431
29505W        W45314  18.385  15.417   0.352 -0.0337 -0.4455  0.1085
29506W        W45315   7.912  14.993   4.209 -0.1539 -0.2175 -0.1173
29507W        W45316   4.473   7.682   1.353  0.4558 -0.1558 -0.2950
29508W        W45317  12.356  15.401   2.356 -0.3778 -0.1991 -0.0558
29509W        W45318   8.821   3.901  14.438 -0.1194 -0.3724  0.1592
29510W        W45319   0.311  11.755   0.834  0.0212 -0.0951 -0.0918
29511W        W45320   1.756   8.896   3.153 -0.0322 -0.1742  0.3666
29512W        W45321  16.690  15.894   0.929 -0.1506 -0.0305  0.0240
29513W        W45322  11.261  14.238   2.667  0.1761 -0.0900 -0.0720
29514W        W45323   3.361   6.744   0.354 -0.1286 -0.1626  0.3069
29515W        W45324  13.411  13.749  10.795 -0.1467 -0.1513  0.0999
29516W        W45325  11.321  13.400   4.588  0.0509 -0.3354 -0.0935
29517W        W45326  15.222  18.083  14.103  0.2037  0.2239  0.1150
29518W        W45327   0.944   3.870   0.316 -0.2073 -0.0452  0.0021
29519W        W45328  13.551  18.009  12.539  0.2785  0.1401 -0.2573
29520W        W45329  15.276  13.143   5.204 -0.3352 -0.0873 -0.0538
29521W        W45330  12.197  17.646  14.052 -0.1249  0.0571 -0.2601
29522W        W45331   0.699   5.080   3.218 -0.0653 -0.2646  0.2426
29523W        W45332   3.319  14.362   1.747 -0.1765 -0.0827 -0.1893
29524W        W45333   8.926  10.459   0.007 -0.0807  0.0873  0.0258
29525W        W45334   5.742  12.795   0.645 -0.2218  0.0784  0.2055
29526W        W45335   4.939   8.568  12.238 -0.0041  0.0420  0.4556
29527W        W45336   4.307  13.541  14.492 -0.1706  0.0306  0.1719
29528W        W45337   3.198   4.809   4.611 -0.2146  0.0965  0.2802
29529W        W45338  17.078   0.054   3.462  0.0123 -0.0244  0.0796
29530W        W45339   9.734  15.201  14.404  0.0153 -0.0555 -0.0961
29531W        W45340  12.865  13.586  13.227 -0.2904 -0.1082  0.0419
29532W        W45341   7.639  14.342  10.662  0.0701 -0.0041 -0.2641
29533W        W45342  18.189  18.567   4.143 -0.0361 -0.0818 -0.0049
29534W        W45343  18.633   5.275   3.344  0.2602 -0.3321  0.2379
29535W        W45344  12.171  19.003   1.508 -0.3035  0.3843 -0.1577
29536W        W45345  17.931  11.052   9.573  0.1002 -0.1728  0.2421
29537W        W45346  17.286  10.483  11.214  0.0578 -0.0341  0.2712
29538W        W45347   5.187   7.896  10.518  0.0348 -0.5168  0.2368
29539W        W45348   5.630   3.258  11.610  0.0101 -0.0544  0.5028
29540W        W45349   0.265  14.077  11.422  0.0810 -0.0561 -0.1219
29541W        W45350   0.047   0.377  13.175 -0.1101  0.1594 -0.3204
29542W        W45351  16.466  13.287   1.423 -0.1318  0.2077  0.3047
29543W        W45352   4.648   1.115  11.684  0.0602 -0.1611  0.0223
29544W        W45353   2.761   3.566   1.639 -0.2014  0.0084  0.1533
29545W        W45354  14.333  18.511   3.334 -0.0998  0.0364 -0.1111
29546W        W45355   8.705  18.199   5.593  0.0696  0.3898 -0.1148
29547W        W45356   6.770  15.363   4.941  0.2487 -0.1406 -0.0088
29548W        W45357  11.151  16.976  13.700  0.1510  0.1212 -0.1676
29549W        W45358   3.748  17.928  11.417  0.0078 -0.1754  0.1091
29550W        W45359  18.514  15.338   0.888 -0.0694 -0.3314 -0.1397
29551W        W45360   4.616   0.018   3.958  0.0877 -0.0270 -0.1354
29552W        W45361  18.713   4.862   4.561  0.0701  0.1124 -0.0306
29553W        W45362   1.736  12.636   5.635 -0.0951 -0.0947 -0.2410
29554W        W45363  19.065  17.158   0.965  0.0745 -0.0920 -0.1268
29555W        W45364   1.839  17.189  12.426  0.0111 -0.1750  0.2665
29556W        W45365   3.117  17.669  10.242 -0.1703  0.2142 -0.1606
29557W        W45366   0.326  13.511  14.881 -0.1632 -0.1596  0.1759
29558W        W45367   2.536  16.469  10.663 -0.2765  0.0027 -0.2717
29559W        W45368   7.914  13.837  10.795  0.0591 -0.0523 -0.2473
29560W        W45369  18.235  15.722   2.392  0.0813  0.0539  0.1031
29561W        W45370  15.994  13.107   5.698  0.0929 -0.2329  0.4246
29562W        W45371  14.778   9.257   2.804  0.0758 -0.1192  0.1808
29563W        W45372  12.290  17.177   0.181  0.0947 -0.1300  0.0240
29564W        W45373  18.570  16.871   3.033  0.0550 -0.2471 -0.0539
29565W        W45374  15.988  18.594   4.019  0.1659 -0.2767 -0.3413
29566W        W45375   0.818  12.777  14.578  0.2222 -0.2351 -0.0476
29567W        W45376   5.139  13.251  15.066  0.1039  0.0472 -0.0820
29568W        W45377  18.885   4.577   4.191 -0.2262  0.3764  0.0913
29569W        W45378   2.042  10.714  10.787 -0.0916 -0.0743  0.2014
29570W        W45379  10.195  12.294   2.758 -0.1922  0.1422 -0.0243
29571W        W45380   4.928  15.121  12.679 -0.3149  0.3321  0.2251
29572W        W45381  11.391  15.682   0.526 -0.3468 -0.1409 -0.0158
29573W        W45382  12.350   1.675   9.567 -0.0568  0.1019 -0.1169
29574W        W45383  15.112   7.662  11.050 -0.1228 -0.0335  0.2435
29575W        W45384  11.154   2.977  11.942 -0.0591 -0.2054 -0.0170
29576W        W45385   6.854   9.783  14.580  0.0245  0.0498  0.0841
29577W        W45386  16.578  17.173   5.092 -0.0566 -0.1891  0.2949
29578W        W45387  13.287  10.892  10.272  0.1333  0.0763 -0.1484
29579W        W45388  11.768   7.715  10.895 -0.1960 -0.0796  0.1777
29580W        W45389  12.285   8.765  14.706  0.0419 -0.0694 -0.2350
29581W        W45390  10.293   0.333   1.263  0.1168 -0.0268 -0.1718
29582W        W45391   4.132   8.827  14.180  0.0919  0.1842  0.0953
29583W        W45392   7.150   7.443   0.861  0.1102  0.2488  0.0954
29584W        W45393  14.173  11.854   1.843 -0.2102  0.2945  0.1733
29585W        W45394  16.546  10.798   1.603 -0.0698 -0.2108 -0.0036
29586W        W45395   8.417   1.234  15.173  0.2776 -0.2347 -0.1529
29587W        W45396  12.272  12.334   1.634 -0.0426 -0.1069  0.2142
29588W        W45397   6.356  16.734   5.410  0.0816  0.2816 -0.3454
29589W        W45398   0.043  11.806  11.073  0.3242  0.0673 -0.0980
29590W        W45399   7.282  13.492  11.216  0.3312  0.3023  0.0091
29591W        W45400   2.522  14.613   0.452 -0.1769  0.0822  0.1579
29592W        W45401   2.982  14.865  14.933  0.1772 -0.1295 -0.1784
29593W        W45402   5.772  15.843   2.949  0.4558 -0.0900 -0.0193
29594W        W45403  10.114  17.971  10.905  0.0544 -0.2260  0.2921
29595W        W45404   2.395  12.447   1.819  0.0241  0.2532  0.1575
29596W        W45405   8.770   3.806   2.092 -0.0955  0.0727  0.1590
29597W        W45406   6.649   7.748  10.235 -0.2099  0.3318 -0.0547
29598W        W45407  14.288  12.517   3.805  0.1630  0.1672  0.2969
29599W        W45408   5.501   8.131  10.930 -0.0380 -0.1131  0.1447
29600W        W45409   1.794   2.611   1.422 -0.0578  0.2133  0.2242
29601W        W45410  12.890   6.162  14.695  0.1443 -0.5644  0.1868
29602W        W45411  16.122  18.986  13.566 -0.0958 -0.3908 -0.1882
29603W        W45412   9.539  10.789  11.706 -0.1827 -0.2450 -0.0190
29604W        W45413  13.595  11.304   3.920 -0.0334 -0.0122  0.0085
29605W        W45414   5.496  16.498  10.599 -0.0329  0.1716  0.2110
29606W        W45415   0.636   8.590  10.422  0.0536 -0.0284  0.1897
29607W        W45416   3.201  13.633   2.185 -0.4075  0.1814 -0.0483
29608W        W45417   4.678  10.296   1.182 -0.0147  0.0210  0.3112
29609W        W45418  11.257   2.268  13.332 -0.2184 -0.0351 -0.1426
29610W        W45419   2.860   5.936   3.919  0.1452 -0.3907 -0.3399
29611W        W45420   4.648  10.428  10.404  0.0848 -0.1369 -0.3331
29612W        W45421   5.795   2.611  11.503 -0.3743  0.0957  0.1371
29613W        W45422  16.144  11.109  11.739 -0.2563 -0.4209 -0.1883
29614W        W45423   1.143  13.199   3.851  0.2475 -0.0447  0.3251
29615W        W45424  18.401   2.282  11.198 -0.1064  0.5018 -0.0416
29616W        W45425  17.232  10.524   2.317 -0.2219 -0.3269  0.1063
29617W        W45426   2.983   8.296  12.109  0.2233  0.3125  0.2724
29618W        W45427   1.984  14.637   1.863  0.0506  0.2101  0.1073
29619W        W45428   1.997   7.094   4.511  0.1725  0.0577  0.0354
29620W        W45429   2.882  14.855   1.038  0.3761 -0.0742  0.3179
29621W        W45430  17.397   1.776   1.527 -0.1829  0.1186 -0.1907
29622W        W45431   4.196   9.296   1.995  0.2058  0.3384  0.4459
29623W        W45432  16.191   1.187   1.912  0.3234 -0.1417  0.2398
29624W        W45433  18.858  15.613  14.694  0.4604  0.0930 -0.0833
29625W        W45434   9.434  17.116   1.784  0.0372  0.0778  0.0356
29626W        W45435   4.421  13.684  12.791 -0.2688  0.0023  0.0997
29627W        W45436   6.003   8.687  15.009  0.4360 -0.2448 -0.1481
29628W        W45437  12.647   7.826   4.844 -0.0549  0.0701 -0.1653
29629W        W45438   1.613  16.828   3.629  0.1791  0.1077 -0.1420
29630W        W45439   4.939  12.399   4.243  0.0875  0.1970 -0.1969
29631W        W45440  17.799   4.537   0.584 -0.1660 -0.0147  0.0209
29632W        W45441   5.409   9.928  10.914 -0.4023 -0.0117  0.0759
29633W        W45442   7.045  11.615  10.767 -0.2294  0.0430 -0.1133
29634W        W45443  18.353  19.081   0.116 -0.0606 -0.1231  0.0742
29635W        W45444  17.704   1.653  15.081 -0.2010 -0.1975  0.2417
29636W        W45445   1.588  15.503  13.013 -0.1104 -0.1858  0.1640
29637W        W45446  13.493   6.320  14.591 -0.1256  0.1758 -0.2656
29638W        W45447   1.821  14.840  14.387 -0.0487 -0.0486  0.3207
29639W        W45448   1.681   4.211   0.405 -0.0152  0.2875  0.2411
29640W        W45449  17.313  14.375  14.849  0.2161  0.0320 -0.0172
29641W        W45450   3.328  18.104  10.105  0.1260  0.0628 -0.3989
29642W        W45451  15.204  14.056   4.073 -0.2688 -0.1264  0.0234
29643W        W45452   9.146   5.841  11.081  0.1036  0.0884 -0.0092
29644W        W45453   6.070   6.827  14.510  0.0004  0.2438  0.0283
29645W        W45454   3.426   6.402   4.536  0.1305 -0.4015 -0.1269
29646W        W45455  15.905  17.602  10.943  0.0417  0.3310 -0.2685
29647W        W45456   6.678  15.618  11.813 -0.4270  0.1860 -0.3788
29648W        W45457  19.136   8.255   0.102  0.1632 -0.0279  0.0226
29649W        W45458   0.080   5.565  11.412 -0.3464 -0.2164 -0.3306
29650W        W45459  16.401   3.193   1.675 -0.0177  0.2528  0.0548
29651W        W45460   7.010   5.490   2.769  0.3034  0.2308 -0.0161
29652W        W45461  15.550  11.260  11.581  0.1402  0.2762  0.0436
29653W        W45462  17.083   2.594  14.485 -0.1379 -0.0866  0.0683
29654W        W45463   8.897   3.463  14.063  0.0740 -0.0439 -0.0959
29655W        W45464   2.819   7.701  10.068 -0.2333  0.1556  0.1599
29656W        W45465  17.950   0.121   2.073  0.5317 -0.0658  0.2263
29657W        W45466   0.905   2.871   0.275 -0.0332 -0.1499 -0.0513
29658W        W45467   8.852   2.327  13.951 -0.2536 -0.2827  0.2021
29659W        W45468   8.591  17.409  12.934 -0.1354  0.1458  0.1918
29660W        W45469  12.551   1.106  14.990 -0.0706  0.0899  0.0879
29661W        W45470   4.119   8.342   3.791 -0.1215 -0.1169 -0.1871
29662W        W45471   4.836   7.351   2.873 -0.1348 -0.1288  0.1324
29663W        W45472   1.589  16.723   1.119  0.0149 -0.0150  0.1271
29664W        W45473   8.370   2.554   4.430 -0.0317 -0.1181  0.2121
29665W        W45474  10.640  13.462  14.857 -0.1964  0.1376 -0.0210
29666W        W45475   6.026  10.942  11.158 -0.1514  0.3283 -0.2519
29667W        W45476  17.915   9.183  12.077  0.0053 -0.1086 -0.1268
29668W        W45477   5.025   0.763   5.301 -0.0074 -0.0608  0.2650
29669W        W45478   7.481  19.102  14.844 -0.1311 -0.4582 -0.0862
29670W        W45479   9.764  15.739   2.866  0.1935  0.0118  0.0496
29671W        W45480   0.080   4.263  13.546 -0.3336 -0.1491  0.0541
29672W        W45481  13.700   2.836  12.360 -0.1707 -0.1043  0.0229
29673W        W45482  16.216   5.106  14.180 -0.0663 -0.1983 -0.1941
29674W        W45483   7.401   3.872   3.498  0.1666 -0.0214 -0.1922
29675W        W45484   0.174   7.047  14.848 -0.0245  0.0769 -0.3857
29676W        W45485   1.951  17.626   3.730  0.4026  0.2126 -0.2236
29677W        W45486   0.342   3.414  13.494  0.2807  0.0894 -0.0058
29678W        W45487  17.755  11.886  12.404 -0.0026  0.0746 -0.0354
29679W        W45488  11.721  18.623  11.474 -0.3533 -0.0352  0.1858
29680W        W45489   3.205  15.955  10.991  0.2415  0.1416  0.3696
29681W        W45490   6.414   6.465  10.080  0.1066 -0.0209 -0.0532
29682W        W45491  12.624  11.875  10.894 -0.0058 -0.3807 -0.0622
29683W        W45492   8.262   1.271   4.982  0.0808 -0.0400  0.2262
29684W        W45493   5.417   2.950  12.206  0.1504 -0.2456  0.2404
29685W        W45494   6.919   9.643  13.126 -0.1868  0.1203  0.2608
29686W        W45495   8.759   6.457  10.605 -0.0430 -0.2264  0.0429
29687W        W45496   4.725   0.882  14.635 -0.4708  0.1947 -0.1428
29688W        W45497   7.734  14.420  11.897 -0.1367  0.0113 -0.1128
29689W        W45498   6.252   8.855  12.015 -0.1661 -0.0727 -0.3642
29690W        W45499   8.525   6.996  12.131  0.2109 -0.4638 -0.3209
29691W        W45500   4.035  11.550  13.133  0.0780  0.0990 -0.0158
29692W        W45501   4.451  11.311   2.599  0.0953 -0.1003 -0.0066
29693W        W45502  18.508   7.942   4.950  0.2858 -0.1867 -0.0747
29694W        W45503   5.203   4.796   2.640  0.0869 -0.2273 -0.4381
29695W        W45504  14.435  11.647  11.085  0.2335 -0.2992  0.3637
29696W        W45505  15.930  14.003   2.270 -0.0395 -0.2045 -0.0391
29697W        W45506   3.004  12.849   4.179  0.0463  0.3460  0.1144
29698W        W45507   1.248  10.269  12.277  0.2535 -0.1204 -0.3097
29699W        W45508  12.832   5.964  11.464 -0.1804 -0.3191  0.3196
29700W        W45509  13.641  14.454  14.479  0.0951  0.0197  0.1180
29701W        W45510   4.055   4.195   3.212  0.2385  0.1606  0.1776
29702W        W45511  18.161  17.650   4.135 -0.0507 -0.0935 -0.1314
29703W        W45512   9.366   4.692  14.253 -0.6227  0.0115 -0.2310
29704W        W45513   6.907  18.005   2.991 -0.1028 -0.1547 -0.1618
29705W        W45514   2.365  14.698   2.227  0.3470 -0.0004  0.0158
29706W        W45515   4.604  11.707  14.996  0.0778 -0.4510  0.2821
29707W        W45516   3.870  17.299   3.674 -0.2293  0.2085 -0.1711
29708W        W45517   8.856  10.056   4.462 -0.0822 -0.1734 -0.0984
29709W        W45518  13.911   1.800  13.493  0.2343 -0.0061  0.0853
29710W        W45519   1.774  15.350  14.124  0.2741  0.1656  0.0060
29711W        W45520   1.921   2.390   3.955  0.3134 -0.1021  0.1738
29712W        W45521   1.803  13.442  10.181 -0.1886  0.2418  0.1650
29713W        W45522   5.874  13.493   3.588  0.1008  0.1099 -0.1545
29714W        W45523   1.079   8.949   3.672  0.0728  0.0452 -0.2807
29715W        W45524  14.785   3.537   5.672  0.2249 -0.0076  0.3466
29716W        W45525  17.972  17.258   3.173  0.2434 -0.0801  0.1816
29717W        W45526   5.846   9.753  10.211 -0.1854  0.1870 -0.1752
29718W        W45527   2.420  15.702  11.024  0.2613 -0.0952  0.3067
29719W        W45528   3.567  14.452  14.398  0.2048 -0.4728 -0.2796
29720W        W45529  14.688   8.168  11.832 -0.0763 -0.1086 -0.1025
29721W        W45530  16.874   1.829  11.275  0.1598 -0.0825 -0.0495
29722W        W45531  12.877   0.223  13.004  0.3211  0.0330  0.2116
29723W        W45532   5.736   2.734   1.313  0.1643 -0.1085 -0.2428
29724W        W45533   0.288   7.112   0.094  0.1133 -0.0753  0.0440
29725W        W45534   0.281  11.435   3.296 -0.2933  0.0980  0.4859
29726W        W45535   6.681   9.726   2.066  0.3472 -0.1433 -0.0023
29727W        W45536   5.312  15.909   3.214 -0.0815  0.3281  0.4103
29728W        W45537  16.100  12.873   4.212  0.1207  0.1797 -0.1121
29729W        W45538   6.494  11.899   2.368 -0.2698  0.2053 -0.2698
29730W        W45539  10.737  13.332  14.130  0.1099 -0.0300  0.1043
29731W        W45540   3.639  18.274   0.761  0.2681  0.0737 -0.1188
29732W        W45541  14.585   1.752   4.647 -0.1073 -0.1107 -0.2082
29733W        W45542  15.068   9.627   2.662  0.0602  0.0443 -0.0352
29734W        W45543  11.952   1.009  13.286 -0.3851  0.2625  0.2364
29735W        W45544   9.905   6.569  13.672  0.0651 -0.1987 -0.0329
29736W        W45545  10.796   7.197  10.785 -0.2349  0.1684  0.0046
29737W        W45546  12.218   2.140  13.660 -0.3777  0.0044  0.1767
29738W        W45547  18.329  14.563  12.306 -0.1881 -0.1236  0.2062
29739W        W45548  15.637  14.671  15.033 -0.0393 -0.2926 -0.2899
29740W        W45549  11.190  18.283   0.114 -0.1400 -0.2744  0.4767
29741W        W45550   2.967   8.770   1.751 -0.1512 -0.1011  0.1172
29742W        W45551   1.885   3.921  12.012  0.0507 -0.0542 -0.2055
29743W        W45552   4.115   2.995  10.965 -0.0927  0.4749  0.1052
29744W        W45553   8.502   4.738  10.145  0.1875 -0.0563 -0.3267
29745W        W45554   3.438   0.446   3.597  0.0937 -0.1105  0.2939
29746W        W45555  10.218   7.540  10.129  0.1669 -0.1956  0.0335
29747W        W45556  13.427  11.704   4.208 -0.0241 -0.4188 -0.0104
29748W        W45557  18.610   0.538  12.424  0.1089  0.1537  0.0857
29749W        W45558   5.573   3.902  10.253 -0.4262 -0.0300  0.0005
29750W        W45559   4.039   9.011   1.472  0.2167 -0.1550  0.0787
29751W        W45560  17.532   2.229  11.946  0.0947 -0.0313  0.1119
29752W        W45561  14.631  11.859  14.835  0.2311  0.2188 -0.3373
29753W        W45562  17.750   6.325  13.971 -0.0946  0.1448 -0.0532
29754W        W45563   1.620   0.318   2.266 -0.4141  0.3326  0.3022
29755W        W45564  13.457  14.390  12.144 -0.2374  0.0607 -0.3411
29756W        W45565  10.030  11.354  13.074 -0.1100 -0.0963  0.4703
29757W        W45566   6.044   9.569   0.692  0.2156 -0.1693 -0.1294
29758W        W45567   7.999  18.629   4.966 -0.3572 -0.1154 -0.0513
29759W        W45568   3.945  15.207  12.200 -0.1759  0.2184 -0.3008
29760W        W45569   0.374   4.724  12.796  0.0978 -0.0431  0.2359
29761W        W45570   3.223   7.502   4.996  0.2612 -0.1060 -0.0452
29762W        W45571   1.060  17.856  13.306  0.2181  0.3268 -0.0845
29763W        W45572   0.717   7.053   4.691 -0.3173  0.2394  0.1422
29764W        W45573   3.739  17.577  13.426  0.1077  0.0076 -0.0350
29765W        W45574  15.101  12.992   3.805  0.1221 -0.2255 -0.5042
29766W        W45575   2.606  13.378   1.574  0.2130  0.2677 -0.2186
29767W        W45576  12.010   3.093  12.530 -0.1777  0.1206  0.0861
29768W        W45577  14.825   5.708   0.391  0.1745 -0.2067  0.0019
29769W        W45578   4.446  12.310  13.125 -0.1519  0.1774  0.0693
29770W        W45579  17.165   7.214  11.732 -0.1672  0.1321  0.1670
29771W        W45580  15.269  15.818   1.961  0.1605 -0.3392  0.1470
29772W        W45581   5.049  17.558   3.891  0.0612 -0.0504 -0.1285
29773W        W45582   3.277  14.045  13.614 -0.3318  0.1720  0.0299
29774W        W45583   7.533   0.917  11.002  0.0063 -0.1447  0.1388
29775W        W45584   7.865   8.226   1.293  0.0673 -0.2271  0.0686
29776W        W45585   5.664   0.712   3.475 -0.1575  0.2042 -0.1664
29777W        W45586   4.712   7.048   1.971  0.2063 -0.1752  0.2473
29778W        W45587  18.484  15.780   1.906  0.3351 -0.3497 -0.1018
29779W        W45588  18.240  18.863   2.775 -0.0081 -0.1517  0.1996
29780W        W45589  15.138   0.037  13.336 -0.1134 -0.0433  0.1753
29781W        W45590   5.749  16.779   2.335 -0.1486 -0.2856  0.1455
29782W        W45591   9.091   4.644   4.529  0.0466  0.0072 -0.1350
29783W        W45592   5.111   5.414  12.833  0.1320 -0.1542  0.1273
29784W        W45593   0.823  10.630  15.163  0.1277 -0.0668  0.1190
29785W        W45594  15.044   6.523  11.808  0.0037 -0.1547  0.0799
29786W        W45595  14.698   2.582  12.187  0.1375  0.0691 -0.4200
29787W        W45596   5.053  13.399  12.390  0.0488  0.0388 -0.1671
29788W        W45597  10.301  17.373   1.657 -0.2081  0.1476  0.0292
29789W        W45598   8.632   3.872  15.086  0.1408 -0.4751  0.0623
29790W        W45599   1.846   2.879   4.761  0.1532 -0.1878 -0.2038
29791W        W45600  18.055   1.645  12.318  0.0397  0.1660 -0.2974
29792W        W45601  13.233  10.726  11.541 -0.3125 -0.0182 -0.0213
29793W        W45602  17.797  11.292   3.846  0.0548  0.1466 -0.2017
29794W        W45603   8.519   6.063   0.070  0.3929 -0.0965  0.1275
29795W        W45604  11.322  15.530  11.370  0.1763 -0.3287  0.5262
29796W        W45605   6.692   5.177   5.007 -0.0117  0.0015  0.1118
29797W        W45606  17.827  14.469   4.562 -0.2417  0.1745 -0.1575
29798W        W45607  14.752   5.734  10.180  0.0294 -0.0776  0.0873
29799W        W45608  13.219  11.815   2.488 -0.1680 -0.3866  0.0057
29800W        W45609   4.916  16.211  14.928  0.0706 -0.0132 -0.1037
29801W        W45610   8.190   6.118   3.301 -0.3913  0.2008  0.2134
29802W        W45611   7.860  11.958   2.098  0.0720  0.0614 -0.1554
29803W        W45612  10.909  10.047   0.716 -0.2830  0.0821 -0.0366
29804W        W45613   8.535  14.092  12.823 -0.1707 -0.1981  0.5307
29805W        W45614  19.038   9.739  11.424  0.1084 -0.0937  0.0696
29806W        W45615  18.867   5.873  11.460 -0.1916  0.2333 -0.1534
29807W        W45616   4.902  12.205   0.944  0.1843 -0.2759 -0.0205
29808W        W45617  17.468  18.359   1.085 -0.3873 -0.2661 -0.0773
29809W        W45618   9.296  10.960  12.226 -0.0371 -0.0443  0.1473
29810W        W45619  10.807  14.898  13.266 -0.2075 -0.3301  0.0394
29811W        W45620   4.385   2.271   1.649  0.1007  0.3449 -0.2288
29812W        W45621  12.588  10.137   0.779  0.0069 -0.1352  0.3183
29813W        W45622   8.233  14.525  12.032 -0.0965  0.0430  0.0597
29814W        W45623  15.853  15.347   3.412 -0.0996 -0.0721  0.0070
29815W        W45624   5.008   3.532  10.305  0.0386 -0.1456  0.2704
29816W        W45625  16.314  15.258  14.351 -0.3652  0.1618  0.3026
29817W        W45626   8.887   4.076   0.713  0.3380 -0.1789 -0.0892
29818W        W45627   1.343   7.457   1.476 -0.3002  0.1369  0.0715
29819W        W45628  14.136  14.810  13.081 -0.2030 -0.1409  0.1619
29820W        W45629   3.905  12.292  14.963 -0.0747  0.0422 -0.0721
29821W        W45630   1.382  11.786  11.495 -0.1024  0.1181  0.1688
29822W        W45631  17.072  12.443  13.397 -0.3310 -0.0551  0.1913
29823W        W45632  12.140  18.963   2.037 -0.0410 -0.0243  0.0667
29824W        W45633  10.235   4.056   5.260  0.0686  0.0741 -0.1132
29825W        W45634  11.751   1.200   0.299 -0.3077  0.3040  0.2471
29826W        W45635   1.122   7.687  11.700  0.0833 -0.0106 -0.0274
29827W        W45636  16.381   6.557   3.115 -0.4727  0.1002 -0.4941
29828W        W45637  14.603   7.345   9.935 -0.0660  0.1147 -0.1536
29829W        W45638   8.152  12.052   0.743  0.1027  0.0145  0.2127
29830W        W45639  16.992  14.641   1.474 -0.0349  0.0712 -0.0382
29831W        W45640  15.287   8.350   9.563  0.1082  0.2453 -0.0305
29832W        W45641  13.105  18.039  14.789  0.3470  0.2790 -0.2718
29833W        W45642  14.135   8.920  14.453 -0.1912  0.0221 -0.1542
29834W        W45643  17.015  13.569   2.368  0.1550 -0.3067 -0.1502
29835W        W45644  15.617   8.702   1.098 -0.2675  0.1761 -0.0566
29836W        W45645  18.259   2.255   5.032  0.1074  0.3842 -0.1648
29837W        W45646   5.843  16.016   3.426  0.1053 -0.1845  0.0124
29838W        W45647  11.804  19.088   2.989  0.1179  0.2293  0.1003
29839W        W45648   0.066   4.359   2.033 -0.2378  0.0795 -0.1054
29840W        W45649  18.262   7.009   1.410 -0.1037  0.4761  0.0158
29841W        W45650  10.366  15.405  12.354 -0.2016  0.0577 -0.4013
29842W        W45651   7.910  18.800  15.183 -0.0862  0.1066 -0.2684
29843W        W45652  12.215  11.635   0.421 -0.2699 -0.0568 -0.1023
29844W        W45653   8.082   6.681   1.479 -0.1392  0.1680  0.3337
29845W        W45654  10.597  13.090   5.320 -0.0567 -0.2075 -0.4084
29846W        W45655   0.926  15.372  14.372  0.1214  0.0334 -0.0659
29847W        W45656  13.347   6.346  10.645  0.1327  0.2341 -0.2184
29848W        W45657   3.682   6.694  11.649  0.2631 -0.2602 -0.2133
29849W        W45658  16.400  10.258   4.931 -0.3435 -0.1258  0.1461
29850W        W45659   2.551  16.291  12.930  0.0979  0.2191 -0.1282
29851W        W45660   0.701   8.585   2.773 -0.0733 -0.1534  0.0801
29852W        W45661   6.992  14.183   1.620  0.1394  0.1444  0.1339
29853W        W45662  15.462   4.748   2.430 -0.1641  0.0221 -0.0843
29854W        W45663   4.056   1.213  14.391  0.0131 -0.1536  0.1073
29855W        W45664  15.491  13.234  13.822  0.3589 -0.0411  0.3014
29856W        W45665   5.548  16.113   1.188 -0.6289  0.0940  0.2760
29857W        W45666  18.691  18.440  14.391  0.0582  0.0062  0.3697
29858W        W45667   8.223   9.685   1.121  0.0247 -0.1878 -0.0247
29859W        W45668   8.217  13.179   4.930  0.0853  0.4902 -0.3249
29860W        W45669  14.296  13.286   3.985 -0.2035  0.2116 -0.3746
29861W        W45670  13.188  18.959  13.232 -0.0989  0.2400 -0.2975
29862W        W45671   3.351   0.086  12.994  0.0505 -0.1082  0.0589
29863W        W45672   0.821  16.849  11.113 -0.0735 -0.0819  0.3072
29864W        W45673   4.993  16.047  14.444 -0.1108 -0.0909  0.1170
29865W        W45674   9.046  12.855  13.162  0.0546 -0.2881 -0.2176
29866W        W45675   0.380  16.298  10.609  0.2993 -0.0597 -0.3106
29867W        W45676   2.162   2.937   0.331  0.0894  0.0341  0.0063
29868W        W45677  17.371  12.420  15.006 -0.2024  0.1732 -0.1116
29869W        W45678   2.697   8.744  14.237 -0.2572  0.3135  0.2928
29870W        W45679   9.361  10.352   1.938 -0.1054  0.2432 -0.0487
29871W        W45680  13.912  13.275   3.702  0.0208 -0.2290 -0.0622
29872W        W45681  12.755  10.809  11.355 -0.0732  0.0724  0.0800
29873W        W45682   7.117   5.747   5.089  0.1146 -0.2864  0.1958
29874W        W45683   3.486  18.013  14.258 -0.1839  0.1410  0.0866
29875W        W45684   6.571  18.716  14.923  0.2290 -0.0655  0.1254
29876W        W45685  10.912  18.968  14.248  0.2657  0.1551  0.1485
29877W        W45686   7.396   6.866   0.879 -0.0853 -0.0688  0.1557
29878W        W45687   1.466  10.996  11.866 -0.0059 -0.1791 -0.0297
29879W        W45688   4.092  11.245   1.902  0.4444  0.1564  0.0845
29880W        W45689   0.288   5.853   3.660  0.2744 -0.0315  0.2618
29881W        W45690  12.159  13.224  11.895  0.0721 -0.2432  0.2430
29882W        W45691  12.214   0.768   1.687  0.4023 -0.0102 -0.2785
29883W        W45692   5.422  14.402  10.206  0.0323 -0.0399  0.1347
29884W        W45693   9.809   8.336  13.023 -0.0411 -0.2030  0.3849
29885W        W45694  16.323  13.092   6.103  0.0959 -0.1809 -0.0874
29886W        W45695   3.890   6.194   4.303  0.1837 -0.3558  0.1405
29887W        W45696   5.204   6.690   2.592 -0.0578  0.1880 -0.0187
29888W        W45697  17.923  10.460   2.200 -0.5343 -0.1365 -0.2771
29889W        W45698   9.275   9.264   0.409  0.0227  0.2057  0.0697
29890W        W45699  13.639  18.515  15.161 -0.0545 -0.3625 -0.0335
29891W        W45700   9.995   1.062   0.104 -0.2141  0.0387  0.1238
29892W        W45701   5.071  13.845  10.608 -0.0142 -0.0593  0.1334
29893W        W45702   5.521   6.997   0.947  0.2671  0.1425  0.0822
29894W        W45703   3.054  14.101  10.771  0.4750 -0.1894 -0.1087
29895W        W45704  17.931   2.194  11.607 -0.1327  0.3495 -0.1691
29896W        W45705  10.332   7.198  11.372 -0.1984 -0.3920 -0.0633
29897W        W45706  16.095   8.911  12.581 -0.2471 -0.2961 -0.5026
29898W        W45707   0.832   1.344  14.996  0.2174  0.3501  0.1669
29899W        W45708  13.293   0.394   0.089  0.3902 -0.2939  0.1834
29900W        W45709   2.574  16.139   0.446  0.0388 -0.0810 -0.0547
29901W        W45710  18.176   2.306   0.250 -0.0982 -0.0741  0.2310
29902W        W45711   9.836   7.882   4.710 -0.0743 -0.2704  0.0341
29903W        W45712   8.962  18.234   4.723 -0.3677  0.2938 -0.3364
29904W        W45713   5.829   3.515   1.060 -0.1669  0.2009 -0.0477
29905W        W45714  11.236  11.516   5.543  0.1316  0.2281 -0.2650
29906W        W45715  11.017   7.735  13.259 -0.1834 -0.0552  0.0172
29907W        W45716   4.799  17.202  11.718  0.0809 -0.1246  0.0274
29908W        W45717  13.143  12.370   1.055 -0.2255  0.1023  0.0418
29909W        W45718  14.197  17.402   2.038 -0.2286 -0.1214  0.1535
29910W        W45719  17.313  12.452   3.444  0.1789 -0.2297  0.0949
29911W        W45720   8.688   8.455  10.619  0.0902  0.2240 -0.0686
29912W        W45721  14.111   7.434  13.223  0.2464 -0.2971 -0.4114
29913W        W45722   2.974  11.521  12.573 -0.1051  0.2555 -0.1049
29914W        W45723  18.277  15.009   4.618  0.4148  0.0571  0.0705
29915W        W45724   3.854   5.053  12.996 -0.1158  0.2242  0.2011
29916W        W45725   2.222   7.923  10.168 -0.0847 -0.2893  0.1813
29917W        W45726   9.128   0.438  11.335 -0.3765 -0.1870  0.2823
29918W        W45727  10.002  13.224  11.252 -0.0842 -0.3335 -0.5736
29919W        W45728  18.227   0.656  10.521 -0.3198 -0.1112  0.4442
29920W        W45729  12.889  10.112  14.553  0.3748  0.4287  0.2638
29921W        W45730  10.094   2.186   2.880  0.2252  0.0669  0.2134
29922W        W45731   3.469  17.152   0.552 -0.0246 -0.1688  0.2304
29923W        W45732   1.682  11.994  10.277 -0.1544 -0.0758 -0.1587
29924W        W45733   7.557   9.790   1.206 -0.0533 -0.1438  0.1195
29925W        W45734  12.614  10.320   4.939 -0.1323 -0.1077 -0.0917
29926W        W45735  18.106   1.002   1.697  0.0231  0.2658  0.0204
29927W        W45736   1.085  14.016   2.534  0.1788 -0.0285  0.1751
29928W        W45737  18.135  10.297  11.234  0.1733  0.0612  0.0460
29929W        W45738  19.073   0.476   3.784  0.0366 -0.1263  0.0849
29930W        W45739   8.372   3.969  11.360 -0.1693  0.1706 -0.1772
29931W        W45740   1.071   7.753   4.657 -0.1541  0.1776  0.0378
29932W        W45741  11.842   2.298  14.561 -0.0817 -0.4735  0.2786
29933W        W45742   6.632   8.794   0.465 -0.0946  0.0271  0.1981
29934W        W45743   7.695  11.234  13.498  0.5612 -0.2885 -0.1403
29935W        W45744  16.067  18.605   0.760  0.1641 -0.0499  0.0183
29936W        W45745   5.151   8.272  15.023  0.0670 -0.0607 -0.2173
29937W        W45746   1.173  13.100   9.624 -0.1743 -0.0889 -0.5139
29938W        W45747   8.952  13.517  11.188 -0.4426 -0.0137 -0.0921
29939W        W45748   6.422  13.521  12.916  0.1241 -0.0871  0.2568
29940W        W45749  19.068  11.522   1.179 -0.0969  0.1180  0.0292
29941W        W45750  12.360   9.837   2.835 -0.1273 -0.2196 -0.2000
29942W        W45751   8.702   4.675   2.223  0.1354  0.2307  0.0632
29943W        W45752  13.163  14.031  11.270 -0.1192 -0.3551  0.0646
29944W        W45753  11.182  14.382   1.681  0.2333 -0.2519 -0.0815
29945W        W45754  15.519   9.185  10.253 -0.0211 -0.1016 -0.1750
29946W        W45755  15.092  11.754   3.788 -0.4530  0.1124  0.1071
29947W        W45756  12.127  12.361   4.576  0.2284  0.0360  0.2273
29948W        W45757  11.154   6.394   4.118  0.4913 -0.2943 -0.0335
29949W        W45758  10.266   4.243   1.106 -0.1030  0.0526  0.1053
29950W        W45759   1.473   1.621   3.997  0.0301 -0.1451  0.0114
29951W        W45760   4.982  14.824  10.233 -0.0068  0.2385 -0.0038
29952W        W45761   5.250   1.039   4.930 -0.0365 -0.3573  0.1339
29953W        W45762   6.754  12.691   1.134 -0.2033  0.1101 -0.1886
29954W        W45763   5.011   8.914   0.933 -0.1144  0.0020  0.1958
29955W        W45764   4.330   9.024  12.909  0.2841 -0.1272  0.0964
29956W        W45765   6.379   1.415  12.722 -0.0977 -0.2037 -0.2863
29957W        W45766   0.876  11.614   4.561 -0.0143 -0.4354  0.0839
29958W        W45767  15.863   0.885  11.683 -0.0836 -0.3917 -0.2168
29959W        W45768   3.675  17.460  11.213 -0.0881  0.3106 -0.2214
29960W        W45769  18.135   8.247   4.881  0.1153  0.1079  0.2064
29961W        W45770   8.659   3.208   3.411  0.0009 -0.0751  0.2847
29962W        W45771   7.035   7.646   1.260  0.0200  0.2273 -0.0698
29963W        W45772  18.877  13.405   4.769 -0.1163 -0.2583 -0.1482
29964W        W45773  12.047   6.986   3.848 -0.0427  0.0270 -0.0996
29965W        W45774   0.820   3.829   1.673 -0.1430 -0.0340 -0.0467
29966W        W45775   9.267  16.440   5.244 -0.0268 -0.0381  0.0690
29967W        W45776  12.222  12.441   0.610 -0.0948  0.3914  0.0628
29968W        W45777  10.431  16.896  12.845  0.0848 -0.0602 -0.1917
29969W        W45778   3.253   5.488  13.642 -0.2801  0.1123  0.1248
29970W        W45779   4.427   5.203   0.534  0.1053  0.2093  0.1526
29971W        W45780  12.710   1.199  13.893  0.2358  0.1394 -0.1734
29972W        W45781  18.602   1.002  11.779 -0.1903 -0.1948 -0.2658
29973W        W45782   0.848   7.074  10.969 -0.0043  0.1848  0.0887
29974W        W45783  10.575   7.627  13.416 -0.3230  0.0197  0.3045
29975W        W45784   0.770   0.848  14.935 -0.1999  0.0895  0.0984
29976W        W45785  15.178  15.478  11.380 -0.0199 -0.2077  0.1879
29977W        W45786   8.057  12.282   3.158 -0.2323 -0.0477  0.1503
29978W        W45787   2.986  16.327   3.749 -0.2052  0.0864 -0.1284
29979W        W45788  13.962  16.427  10.618 -0.2253 -0.0107  0.3371
29980W        W45789  16.339   9.765   5.248 -0.1146  0.3118  0.0190
29981W        W45790   7.761   3.395  12.756  0.0495 -0.0277  0.0061
29982W        W45791   8.316  12.947   1.793  0.0520  0.1331  0.3374
29983W        W45792   8.799  18.558   2.901 -0.0117 -0.1955 -0.3110
29984W        W45793   6.203  12.911  12.231 -0.4204  0.1192 -0.0793
29985W        W45794  13.969  12.470   0.352  0.1318  0.1167  0.1698
29986W        W45795   0.232   0.297  14.857  0.0514 -0.5679  0.0067
29987W        W45796  10.219   2.051   4.487 -0.3056 -0.0880 -0.0032
29988W        W45797  14.528  10.224   0.593  0.2541  0.1674 -0.0598
29989W        W45798   6.724   2.546   4.466  0.0838  0.3086 -0.0225
29990W        W45799  13.164   8.769   1.867 -0.3161 -0.0994 -0.4197
29991W        W45800   5.705  14.512  11.819 -0.1311 -0.0398 -0.0520
29992W        W45801  12.913  16.681   5.462 -0.1866 -0.0044  0.1539
29993W        W45802  13.775   5.229   0.737  0.0258 -0.0062  0.2497
29994W        W45803   4.542  18.943  13.858 -0.1167  0.2179 -0.1271
29995W        W45804  11.774   1.249  12.802 -0.2611  0.0167 -0.2171
29996W        W45805   8.335   6.486  15.056 -0.0354 -0.1308  0.0052
29997W        W45806  15.028   6.245   2.145 -0.2335  0.1545 -0.0732
29998W        W45807  11.188   4.635  13.221 -0.0066 -0.1046 -0.0911
29999W        W45808   9.424   8.928   2.525  0.1332  0.1256 -0.0116
30000W        W45809   9.274   8.058   4.689  0.1913 -0.1280 -0.0789
30001W        W45810   7.714   0.236  14.360  0.0650  0.1565 -0.0358
30002W        W45811  13.384   2.654   1.257 -0.2260 -0.7147 -0.4183
30003W        W45812  15.651   8.672  14.058  0.1363 -0.0837 -0.1272
30004W        W45813   0.583  15.858  11.621 -0.2165 -0.4623  0.0755
30005W        W45814   0.860  17.807  14.537 -0.0621  0.0953  0.1009
30006W        W45815  10.579   9.726   4.927  0.4034  0.2990 -0.0619
30007W        W45816  12.188   3.264  11.948  0.0089 -0.0174 -0.1536
30008W        W45817   4.296  16.685  13.789  0.1543  0.0767 -0.1317
30009W        W45818   5.951   3.591  14.619  0.2206  0.1536 -0.1652
30010W        W45819   7.709  10.867  13.129  0.1285 -0.0500 -0.0649
30011W        W45820   8.769  13.979   3.715 -0.3611 -0.5120 -0.0918
30012W        W45821   4.780   3.307   3.209  0.2444 -0.1302  0.1683
30013W        W45822  15.727  17.472  14.120  0.0508  0.0533  0.0875
30014W        W45823  17.251   2.269  12.374  0.3250 -0.2466  0.0286
30015W        W45824   2.594  14.897  12.596  0.0359  0.1285  0.0013
30016W        W45825   8.988  15.924  10.986  0.1365  0.1110  0.1898
30017W        W45826  15.381   7.710   5.786  0.1096 -0.0197  0.1662
30018W        W45827  13.117  17.297   1.899  0.0174 -0.2911  0.0387
30019W        W45828  10.675  16.999  13.671 -0.2722  0.1148 -0.1582
30020W        W45829   0.270  13.172  14.427 -0.2062  0.1157 -0.0148
30021W        W45830  16.212  18.019  14.561  0.1209  0.0388  0.3185
30022W        W45831   1.236   5.525  11.992  0.0410 -0.2604 -0.2477
30023W        W45832   7.739   7.733   4.611 -0.0597  0.6360  0.2638
30024W        W45833  17.449   7.142  12.130 -0.0509 -0.1966  0.0368
30025W        W45834   5.452  14.945  14.203 -0.0989 -0.0474  0.2845
30026W        W45835   3.739   6.128   1.613  0.0313 -0.2804  0.2773
30027W        W45836   0.784  16.307   5.061 -0.0493  0.0832 -0.2357
30028W        W45837   6.015  16.601  13.304  0.3748  0.0807 -0.1957
30029W        W45838   9.947  17.789  12.927 -0.1963  0.5276  0.1315
30030W        W45839  14.420  18.425   2.798 -0.1892  0.2754 -0.1652
30031W        W45840   4.735  15.670  12.184  0.2387  0.0084 -0.1755
30032W        W45841   2.186  16.084   4.710  0.3824 -0.1519 -0.2666
30033W        W45842   2.506  18.640  11.019  0.3393 -0.0660 -0.4718
30034W        W45843   7.949  10.670   3.019  0.2160  0.0139 -0.0272
30035W        W45844   6.275   4.804  10.902  0.0523 -0.3013  0.1828
30036W        W45845   0.438  11.403  12.071  0.2066  0.0952  0.3359
30037W        W45846  12.345  10.315   2.578  0.1903 -0.0952  0.0830
30038W        W45847   8.816   5.488   4.273  0.1096  0.4468 -0.2646
30039W        W45848  10.977   5.547  14.262  0.0607 -0.0876  0.2711
30040W        W45849  13.893   8.113   0.329  0.2708  0.1498 -0.0855
30041W        W45850   7.745  16.452   4.792 -0.4807 -0.0369 -0.0111
30042W        W45851  15.454   7.916  14.995  0.0383  0.2809 -0.0003
30043W        W45852   6.733  15.953   4.161 -0.1445 -0.0212  0.3042
30044W        W45853   1.709  14.180  12.583  0.0410 -0.0688 -0.1469
30045W        W45854  15.759   7.511   0.688  0.0723 -0.0204 -0.0145
30046W        W45855   8.232  12.881   3.214  0.4111 -0.1207 -0.2435
30047W        W45856   7.730   2.818   2.330 -0.0328 -0.2362  0.0532
30048W        W45857  10.578   1.916  12.517  0.5659  0.0387  0.0163
30049W        W45858  13.588   6.565   0.633 -0.4472 -0.0707 -0.0226
30050W        W45859  18.167   1.173  13.966 -0.0963 -0.0006  0.1707
30051W        W45860  11.820   1.299   3.966 -0.0079 -0.1837  0.3542
30052W        W45861   8.189  12.322   9.842 -0.2630  0.1412 -0.1959
30053W        W45862   0.419   0.928  11.021 -0.1038 -0.1926 -0.1081
30054W        W45863   1.876  12.457  13.289  0.2269 -0.2608 -0.3070
30055W        W45864  16.009   1.491   2.710 -0.2703 -0.3523  0.0296
30056W        W45865   0.386  12.829   1.942  0.2287  0.1032  0.2139
30057W        W45866   8.957  15.198  12.896 -0.0484  0.4928  0.0642
30058W        W45867   2.964  18.823   4.652 -0.1090  0.0513  0.2282
30059W        W45868   6.329   6.989  14.098  0.0338 -0.0901  0.2544
30060W        W45869  16.657   8.180   2.790 -0.1807 -0.1204  0.0645
30061W        W45870  15.334   8.308   1.110  0.2576  0.0623  0.0495
30062W        W45871   2.656   8.595   3.059 -0.0700  0.0083  0.2017
30063W        W45872  15.511  10.613  10.522 -0.0680 -0.1514  0.1941
30064W        W45873  18.562  16.989  10.298  0.2908  0.0974  0.2325
30065W        W45874  11.995   3.432  15.086 -0.2606 -0.2288  0.1079
30066W        W45875   7.079   7.524   2.872 -0.1453 -0.1160 -0.3076
30067W        W45876   3.649  14.970   3.532  0.0435 -0.0562  0.0659
30068W        W45877   7.243   1.684  11.620  0.3342 -0.1651  0.1984
30069W        W45878  13.894   5.440   0.117 -0.1182 -0.1553  0.2508
30070W        W45879   8.209   3.064   3.561  0.4298 -0.0474 -0.1713
30071W        W45880  15.135   1.497  13.001 -0.0749  0.1281  0.2311
30072W        W45881   5.558   5.061  13.177  0.3111  0.0064  0.0437
30073W        W45882   0.268   8.234  11.628  0.0949  0.3407  0.2210
30074W        W45883   8.984  11.176  10.671 -0.1172 -0.4830  0.5909
30075W        W45884  14.292   6.569  10.976 -0.1892  0.1725 -0.1741
30076W        W45885   3.810   7.550   3.090  0.1357 -0.1783  0.3362
30077W        W45886  14.124  16.428   4.540  0.0619 -0.2377 -0.3836
30078W        W45887   9.002  17.091  14.371  0.0941  0.0360 -0.3357
30079W        W45888  12.208  10.225   4.054 -0.1266  0.2566 -0.0093
30080W        W45889   8.807   3.010  12.635 -0.0400  0.1208 -0.0697
30081W        W45890  12.713   4.427   4.959 -0.0380  0.3073 -0.1043
30082W        W45891   3.008  10.144   3.346  0.1328  0.0048  0.0433
30083W        W45892   2.271   1.077  14.717  0.0962  0.0826 -0.0803
30084W        W45893   6.055  17.474  12.984 -0.5978 -0.2069 -0.3588
30085W        W45894  11.669   6.336   5.429  0.2070  0.3446 -0.3259
30086W        W45895   0.633  12.988  12.918  0.0042  0.0578  0.0083
30087W        W45896  14.105  18.894  14.128 -0.2391  0.1687 -0.1341
30088W        W45897   4.544   9.585  14.110  0.2422 -0.2632  0.1538
30089W        W45898   0.479  18.558  14.495 -0.0242 -0.0415 -0.0379
30090W        W45899   8.518  17.473   3.132  0.1435 -0.0496  0.0485
30091W        W45900  14.279  16.686   1.867 -0.0354 -0.2138 -0.1732
30092W        W45901  12.998   9.489   4.512  0.1025 -0.0379 -0.1072
30093W        W45902  15.345   2.365  13.132 -0.2203  0.2066  0.3698
30094W        W45903  13.002  15.193   0.539  0.4507 -0.1485 -0.0465
30095W        W45904   0.238  19.025   2.919  0.1460 -0.0538 -0.0489
30096W        W45905   5.969   6.572  14.970  0.0517 -0.1083 -0.1854
30097W        W45906  10.034  19.031  14.982 -0.3169  0.3018 -0.3799
30098W        W45907  13.503   9.566   5.176 -0.0745 -0.0087  0.1200
30099W        W45908   1.659   7.442  14.788  0.4376  0.1646  0.0984
30100W        W45909   3.368  16.599  14.694 -0.0345  0.1493 -0.0465
30101W        W45910  12.241   5.269   2.514 -0.1745 -0.1902  0.0008
30102W        W45911   2.164   3.986   1.294 -0.1435 -0.0475  0.0053
30103W        W45912  15.507   0.869  13.590 -0.2901 -0.0478 -0.1719
30104W        W45913  17.538  15.560   0.467 -0.0985  0.3443 -0.2050
30105W        W45914  10.658  15.925   0.197 -0.3085  0.2280  0.0231
30106W        W45915  11.172  18.540  12.488 -0.2408 -0.0849  0.1299
30107W        W45916  10.801   3.114  14.395 -0.0741 -0.1651 -0.0320
30108W        W45917   8.008   0.011   2.081 -0.2465  0.1322  0.2705
30109W        W45918  16.037  19.044  12.194  0.0842 -0.1751  0.1047
30110W        W45919   3.484   2.682   3.295 -0.1834  0.0970 -0.1557
30111W        W45920   0.466   9.283  14.999  0.2071 -0.1117 -0.0221
30112W        W45921   9.578   2.417   0.901  0.0347 -0.1551 -0.1132
30113W        W45922  12.255   2.476   0.411 -0.0223 -0.2976 -0.0795
30114W        W45923   8.680  15.903   0.900  0.0781 -0.1829  0.1783
30115W        W45924   8.311  16.303  13.370  0.2715 -0.0751 -0.0181
30116W        W45925   4.436  10.759   0.914  0.0403 -0.2388 -0.0259
30117W        W45926  17.041  10.273   1.880 -0.2561 -0.0561  0.0519
30118W        W45927   7.973   0.221  13.817  0.1651 -0.1169  0.2467
30119W        W45928   8.720   6.657  12.533  0.0743  0.0674 -0.3479
30120W        W45929  18.587   8.437  10.518 -0.1846 -0.1223  0.0134
30121W        W45930  15.139  15.571   5.743 -0.0306  0.2231 -0.1001
30122W        W45931   1.351  10.096  13.608 -0.1463  0.0438  0.3447
30123W        W45932  13.813   9.318   0.254  0.0402  0.1778 -0.1316
30124W        W45933   0.011   2.764  11.715 -0.1547 -0.1741  0.4522
30125W        W45934   2.509  13.882   4.759 -0.1465 -0.0267  0.3331
30126W        W45935  13.713  16.775   4.540 -0.0081  0.0023  0.1366
30127W        W45936  14.537  11.105  15.147  0.0229 -0.2161 -0.1603
30128W        W45937  14.401   2.284   5.155 -0.2596  0.1753  0.1102
30129W        W45938   3.677   4.991  11.621  0.0550 -0.0896  0.2140
30130W        W45939  15.011  19.057  13.824  0.0400  0.2947 -0.3693
30131W        W45940  11.986   7.474  10.007 -0.3497 -0.0462 -0.2196
30132W        W45941   2.032  17.856   2.354  0.1316  0.0538 -0.2744
30133W        W45942  13.519   6.826  12.611  0.1642 -0.2578  0.0836
30134W        W45943   0.476   5.765   2.590 -0.1704 -0.3495  0.1637
30135W        W45944  11.161  14.741   4.111  0.0268 -0.0051  0.0902
30136W        W45945  17.933  13.018  12.301  0.0830 -0.1295  0.1530
30137W        W45946   1.835  16.421   4.536 -0.0748 -0.1177  0.1177
30138W        W45947   5.531  15.306  14.602 -0.1332 -0.1124  0.1628
30139W        W45948  16.438  13.338  14.245 -0.3158 -0.0309  0.1486
30140W        W45949   4.492  16.171  14.511 -0.1756 -0.0799 -0.0562
30141W        W45950   2.220  10.980   1.069 -0.1394 -0.2503  0.1236
30142W        W45951   0.131   8.321  14.197  0.0010 -0.0938 -0.3977
30143W        W45952   1.695   3.395   3.359  0.0952  0.2644 -0.0145
30144W        W45953  12.609  16.938  13.342  0.1082 -0.2035 -0.0062
30145W        W45954   5.913   7.646   5.162  0.2558 -0.0835 -0.2544
30146W        W45955   9.850   1.820   4.237  0.0735  0.2344 -0.1663
30147W        W45956  18.699  15.524   3.798 -0.0532  0.2875 -0.0308
30148W        W45957   3.450   2.853   4.439  0.3115  0.0772  0.0243
30149W        W45958  14.961   5.371  10.932  0.2000  0.0639  0.3595
30150W        W45959   2.629  18.033   3.955  0.0548  0.0326 -0.3231
30151W        W45960  17.870  17.008   9.688 -0.2490  0.0054  0.1029
30152W        W45961   1.854   9.240   3.503 -0.2198  0.2273  0.1284
30153W        W45962   9.316   5.357   4.254  0.0464 -0.1864 -0.0699
30154W        W45963   1.006   4.898  11.455  0.2342  0.0455  0.2126
30155W        W45964  10.786  17.926   3.543  0.1988 -0.2266 -0.2650
30156W        W45965   9.040  10.026  12.735  0.3929 -0.3801 -0.1288
30157W        W45966  13.428  17.099   2.713  0.1710 -0.1949 -0.4130
30158W        W45967  10.767   2.836  11.614 -0.0248 -0.0700  0.0835
30159W        W45968   4.961   7.281  13.916 -0.0070  0.2548 -0.2441
30160W        W45969   3.137   0.112   4.298 -0.1325  0.2343 -0.0699
30161W        W45970   6.842  17.913  11.433  0.1274  0.0092  0.1743
30162W        W45971   8.310   2.875  12.419  0.1874  0.3539  0.1696
30163W        W45972   7.010   8.467   3.449 -0.2720 -0.1087  0.2061
30164W        W45973   5.075   3.610   2.295  0.0222  0.2076 -0.0404
30165W        W45974  14.849  17.856  15.099  0.0424  0.2218 -0.0241
30166W        W45975   0.323   2.427   2.090 -0.2885  0.0687 -0.0173
30167W        W45976   5.917   6.738   0.674  0.1788  0.0019 -0.0313
30168W        W45977   4.686   9.666  10.853 -0.4225  0.4113  0.1156
30169W        W45978   6.658  19.083   1.073  0.0996  0.2483 -0.0130
30170W        W45979  10.673   5.910  10.301  0.0992 -0.0223 -0.1278
30171W        W45980   3.991  11.232   4.687  0.0809 -0.3676  0.1783
30172W        W45981   4.285   9.000   0.331 -0.2465  0.1694 -0.0323
30173W        W45982   1.605   7.237   2.472  0.1683 -0.1930 -0.0267
30174W        W45983  14.232  14.533  10.681 -0.1379  0.1444 -0.2545
30175W        W45984  12.145  14.841  12.128  0.1827 -0.2786 -0.1352
30176W        W45985  14.146  14.387   3.143  0.1820 -0.0110  0.2062
30177W        W45986   6.284   9.363  11.877  0.3319 -0.2687 -0.1213
30178W        W45987   4.496   6.070   4.285  0.2222  0.0731  0.2320
30179W        W45988   4.732   1.843  11.656 -0.0091  0.1472  0.2960
30180W        W45989   0.359  13.378   3.761  0.2173  0.1233  0.0115
30181W        W45990  12.086  16.169  14.686 -0.2723  0.0962 -0.0685
30182W        W45991  17.883  17.728  11.833  0.5130 -0.1177 -0.0385
30183W        W45992   5.771   9.888   4.722  0.1192  0.1209  0.2029
30184W        W45993   7.819  18.984  10.714  0.0619  0.0479  0.3127
30185W        W45994  15.819  17.753   4.601 -0.0240  0.0046  0.1443
30186W        W45995  15.331  11.358  14.972 -0.0180 -0.2166  0.3407
30187W        W45996  12.814   4.093   0.577  0.1957  0.2802  0.1657
30188W        W45997   3.118   7.600  12.655 -0.1621  0.1309  0.3620
30189W        W45998   1.375  12.140   9.879  0.3265  0.2306  0.1075
30190W        W45999   0.435   1.287   9.956 -0.0873 -0.0078  0.0921
30191W        W46000   6.011  17.727  12.015 -0.1438  0.2852 -0.3029
30192W        W46001   0.067   0.634   1.679 -0.0990 -0.1885 -0.0093
30193W        W46002   3.100   5.745  12.327 -0.1888  0.0549 -0.0573
30194W        W46003   9.614   0.919   1.471  0.0687 -0.2590 -0.3445
30195W        W46004  10.871  16.069   1.130 -0.1587  0.0533  0.0220
30196W        W46005  18.354  11.550  15.015 -0.0734  0.0449  0.2469
30197W        W46006  11.729  12.795  13.350  0.0317  0.3575 -0.3758
30198W        W46007  10.427  15.955  11.517 -0.1971  0.1143  0.0832
30199W        W46008   5.669   1.305   5.045 -0.1379  0.0561  0.1217
30200W        W46009  18.715  19.156   3.613 -0.2916  0.2272 -0.1583
30201W        W46010   9.346   0.790  12.935 -0.0059 -0.0725  0.1020
30202W        W46011  11.439   3.181  10.887 -0.0291 -0.0537 -0.1118
30203W        W46012  16.320   6.105  14.477  0.0691 -0.1573  0.0234
30204W        W46013  18.344  11.803   4.382 -0.0388 -0.0353  0.0204
30205W        W46014   8.786   9.036  10.684  0.1401  0.1104  0.0207
30206W        W46015   9.683   0.827   2.006 -0.0645 -0.0328 -0.0348
30207W        W46016  16.956  15.760   5.720 -0.6005 -0.2050 -0.2374
30208W        W46017   2.183  15.600  12.346 -0.4372  0.1713  0.1751
30209W        W46018   6.815   9.651   0.168  0.3531  0.0742  0.0948
30210W        W46019   1.933  11.314   2.434 -0.1780  0.1443 -0.0729
30211W        W46020  12.576  13.362   2.444  0.1202  0.0743  0.1472
30212W        W46021  15.677  14.386   3.389  0.0732  0.2730  0.1192
30213W        W46022   9.346   4.964   9.807 -0.1979 -0.1202  0.1923
30214W        W46023   5.764   2.712   0.212  0.0124  0.0986 -0.3347
30215W        W46024  17.137   5.782  12.923  0.1040 -0.2020 -0.0781
30216W        W46025  16.560   5.693  11.554 -0.0944  0.1784  0.1912
30217W        W46026   2.720  18.526  13.560  0.6177 -0.2984 -0.1462
30218W        W46027   6.864   3.905   3.479  0.1840 -0.1679  0.0003
30219W        W46028  13.120  18.534   2.525 -0.0335 -0.0476 -0.0380
30220W        W46029  13.135  18.525  14.951  0.1660 -0.3175  0.1171
30221W        W46030   0.248  12.691  12.828 -0.0452 -0.2764 -0.1795
30222W        W46031   0.813   7.346   2.322 -0.1686  0.1782 -0.1327
30223W        W46032  12.436   5.171  10.527  0.3279 -0.2675 -0.0141
30224W        W46033   8.018   2.872  15.211 -0.0709 -0.1210  0.0677
30225W        W46034   9.977  10.496   4.793  0.0460  0.0209 -0.1804
30226W        W46035  13.363  16.276  14.151 -0.1175 -0.2374  0.1618
30227W        W46036   2.408  17.846  14.110 -0.1344 -0.2552  0.0841
30228W        W46037  17.568   3.282   1.443 -0.0719 -0.0567 -0.0782
30229W        W46038   4.265  17.581   3.946 -0.0062 -0.1877  0.3884
30230W        W46039   4.799   1.874   2.227  0.2679 -0.0788  0.2473
30231W        W46040  16.256   9.466  12.313 -0.0224 -0.1867 -0.1787
30232W        W46041  14.207  14.549  11.158 -0.1873 -0.0141  0.0628
30233W        W46042  16.040   8.034   4.633 -0.1406 -0.0548 -0.0951
30234W        W46043  11.106  15.020   5.360  0.0179  0.1294  0.3631
30235W        W46044  16.664   2.623  15.146  0.2169  0.1145 -0.2915
30236W        W46045  16.460   0.081   3.827  0.0714  0.0882  0.0318
30237W        W46046  15.662   8.068   1.463  0.2008 -0.0004  0.1818
30238W        W46047  18.731   6.424  15.113  0.1348  0.0076 -0.0503
30239W        W46048  13.616  10.080  13.127  0.0309 -0.1057 -0.0317
30240W        W46049   3.423  11.838   1.537  0.3006  0.0766  0.1477
30241W        W46050  13.133   8.833   0.854  0.1731 -0.0795 -0.2632
30242W        W46051  10.438   3.554   1.655  0.0219  0.0679 -0.2307
30243W        W46052  12.477  19.022   4.713 -0.2651 -0.0180 -0.0398
30244W        W46053   6.059  13.140   3.273 -0.0442  0.1360 -0.2419
30245W        W46054   3.767  18.030  13.179  0.3943  0.1638 -0.0356
30246W        W46055   1.286   9.220  14.325 -0.2315  0.2843 -0.2295
30247W        W46056   5.232  13.734   3.223  0.3571  0.1200  0.0371
30248W        W46057  12.568  15.724   3.627  0.1004  0.0397  0.0924
30249W        W46058   7.034   0.158  15.059  0.0585 -0.0413  0.2023
30250W        W46059  12.652  16.296   2.838 -0.0133  0.1806 -0.2430
30251W        W46060  11.502  15.010   4.821 -0.0307  0.0390  0.0581
30252W        W46061   1.386   9.630  13.333  0.0342 -0.0572 -0.1343
30253W        W46062  10.296   4.097  11.740  0.2096  0.4583 -0.0013
30254W        W46063  14.013  10.185   0.728 -0.3371  0.0283 -0.2029
30255W        W46064   8.848   5.283  14.224  0.4388  0.1910 -0.2232
30256W        W46065  16.433   0.500   0.322 -0.0442 -0.1435  0.0691
30257W        W46066   4.615  17.072  10.792 -0.0787 -0.0749  0.2052
30258W        W46067  14.789   0.749  14.600 -0.1860  0.1062 -0.3643
30259W        W46068   0.789  15.116  12.478 -0.1005 -0.4722 -0.0723
30260W        W46069   1.632   9.651   0.880 -0.0371  0.1418 -0.0930
30261W        W46070   3.099  14.204   2.158  0.1316 -0.4260  0.0942
30262W        W46071   9.166   5.513   1.661 -0.2911 -0.0338 -0.1656
30263W        W46072   2.879   1.059   3.084 -0.2150  0.2160 -0.0863
30264W        W46073   0.792   0.410  11.863  0.0236 -0.1638 -0.2139
30265W        W46074   6.949  12.602   3.770  0.1027  0.3443  0.4051
30266W        W46075   0.769  11.971   0.306  0.0041  0.1864  0.1787
30267W        W46076   3.762  16.705  15.006  0.1199 -0.0922 -0.4880
30268W        W46077  11.264   5.140  14.490  0.0078  0.0790  0.2227
30269W        W46078  10.830   3.693  11.180  0.1544  0.2784 -0.1645
30270W        W46079  11.042   0.817   2.286 -0.0059  0.1410 -0.2180
30271W        W46080   6.802  14.942  11.010 -0.2866 -0.4542 -0.0402
30272W        W46081  13.099  18.730   0.689 -0.1048  0.1426 -0.2553
30273W        W46082   4.882   3.056   1.685 -0.2440  0.1712  0.0282
30274W        W46083  17.726  17.066  12.099  0.1062 -0.0291  0.1431
30275W        W46084   3.477   5.836  15.006 -0.4170 -0.1782  0.0240
30276W        W46085  12.323  10.682  10.676 -0.0983 -0.4204 -0.0851
30277W        W46086   4.040  16.238   3.037  0.2483  0.2249  0.0960
30278W        W46087   1.599   5.340  12.209 -0.0891  0.1601 -0.3273
30279W        W46088   9.033  17.590  13.328 -0.1914 -0.4301  0.0802
30280W        W46089  10.026   4.723  14.198 -0.2385 -0.0866  0.0557
30281W        W46090   4.798  10.397   2.905 -0.1661  0.0218 -0.0706
30282W        W46091  15.748   8.193  14.111  0.0824  0.0642 -0.2808
30283W        W46092   7.681   4.694   5.392  0.3161 -0.2673 -0.1846
30284W        W46093   3.567   8.514   0.721 -0.0926 -0.1220  0.2404
30285W        W46094  17.347  12.650  13.746 -0.1180  0.2834 -0.1944
30286W        W46095   6.727   9.745   5.506 -0.1731 -0.0698 -0.1048
30287W        W46096  15.982   6.863  12.124 -0.0636 -0.0802  0.0115
30288W        W46097   7.649  16.068  15.104 -0.0453  0.1415 -0.1639
30289W        W46098   7.514  14.114  13.738 -0.1018 -0.0838 -0.1899
30290W        W46099   8.638   7.231   1.009  0.1430 -0.2142  0.2488
30291W        W46100   5.903   0.973   0.035 -0.0770 -0.1138  0.3135
30292W        W46101   8.339  18.044  11.624 -0.1095  0.0484  0.2529
30293W        W46102  11.801   8.199  12.876 -0.1125 -0.1166 -0.1315
30294W        W46103   9.111  10.201   0.436  0.1793 -0.3363  0.0788
30295W        W46104   2.124   3.137  11.661  0.1962  0.2963 -0.0785
30296W        W46105   7.257   4.799   1.250  0.1327 -0.1319 -0.1424
30297W        W46106  18.454   0.265   2.036  0.0462 -0.0562 -0.2917
30298W        W46107  15.792  16.867   5.273 -0.0562 -0.0641 -0.1108
30299W        W46108  10.222  13.819  13.981  0.1407  0.3291 -0.2020
30300W        W46109   7.488  17.876   4.960  0.2841  0.0171 -0.1236
30301W        W46110  13.250   3.726   1.874 -0.1834  0.0173 -0.4196
30302W        W46111   5.987   1.722   0.907  0.2199 -0.1305 -0.0134
30303W        W46112  14.351   9.536  11.962  0.0615 -0.2854  0.2078
30304W        W46113   9.751  17.284  12.751  0.3800 -0.2453  0.0829
30305W        W46114  15.703  11.173  13.282 -0.4112  0.1984 -0.1036
30306W        W46115  13.129  16.181   4.083 -0.0512  0.2831  0.4353
30307W        W46116  17.298   8.256   2.203  0.1405  0.0360 -0.0950
30308W        W46117  14.577  16.847   3.114 -0.0372  0.0909  0.3383
30309W        W46118   8.214   7.865   1.426 -0.2163  0.1910  0.2291
30310W        W46119  13.092   5.201  11.462  0.4677 -0.2753  0.1297
30311W        W46120   2.989   5.039  10.918 -0.1198 -0.2015 -0.2865
30312W        W46121  16.113  14.342  12.287  0.1147  0.1153 -0.0997
30313W        W46122   0.128   0.538   0.613 -0.3017  0.2293  0.3315
30314W        W46123  15.888   6.742  11.400  0.0007 -0.0535  0.2206
30315W        W46124   9.203   8.338  14.586  0.1314 -0.0849  0.0944
30316W        W46125   3.304   5.578  10.216  0.1201  0.1516  0.0829
30317W        W46126   7.746   1.508   3.176  0.1702  0.1244  0.0760
30318W        W46127  14.540  14.961   2.666  0.1169 -0.0094 -0.3130
30319W        W46128   5.149  12.479  14.421  0.0878 -0.0824 -0.2562
30320W        W46129   4.673   9.094   2.208 -0.1758 -0.1384 -0.2652
30321W        W46130   3.991  12.958  14.922 -0.2364  0.3210 -0.2960
30322W        W46131   2.561   7.732  11.424 -0.1247  0.1618  0.1641
30323W        W46132   1.113   4.794  13.208 -0.1987 -0.2253  0.0267
30324W        W46133  14.109   9.476  14.240  0.4878  0.0710 -0.1131
30325W        W46134   4.754  17.656  14.746  0.0465  0.0938 -0.1834
30326W        W46135   7.532   1.982  12.419  0.1562  0.0679  0.0589
30327W        W46136   1.481  14.307   0.569 -0.1437 -0.2429 -0.1071
30328W        W46137   7.128   7.251  13.386 -0.2148 -0.2813  0.3103
30329W        W46138   9.931  14.046  15.029 -0.1447 -0.0290  0.2829
30330W        W46139  17.421   4.657  11.318  0.3216 -0.4126 -0.0478
30331W        W46140  11.377   1.024   3.450  0.0759  0.1409  0.1264
30332W        W46141   6.926  12.934   2.789  0.1480  0.1601  0.3484
30333W        W46142   1.126  14.791   4.324 -0.2544 -0.1325  0.1389
30334W        W46143   2.695  11.589  10.845  0.0125  0.1538 -0.1293
30335W        W46144  16.051   0.897   3.814 -0.2111  0.1936 -0.1950
30336W        W46145   6.816   3.957   3.948 -0.0971 -0.3196  0.0319
30337W        W46146   7.698  16.360  13.304  0.1809 -0.0990  0.1498
30338W        W46147   5.277  17.632   1.303  0.0589  0.0416  0.2193
30339W        W46148  18.251  11.406  10.221  0.2811  0.3439  0.0343
30340W        W46149  13.849   5.906  12.071  0.0002  0.0334  0.0640
30341W        W46150   8.480  13.732   0.799 -0.2139  0.2307  0.0118
30342W        W46151  16.867  11.216   1.519 -0.0889 -0.2626 -0.1098
30343W        W46152  18.950  17.736  13.647 -0.1941 -0.0852  0.1307
30344W        W46153   1.633   5.207   0.080 -0.0546 -0.1889 -0.1025
30345W        W46154  17.934   8.187   3.476 -0.0094  0.2586  0.0569
30346W        W46155   4.475   9.560  12.396  0.0448  0.0869  0.0612
30347W        W46156  11.319   8.055   1.428 -0.2605 -0.1261  0.2128
30348W        W46157   7.443   9.959  13.305  0.1127 -0.1797 -0.0523
30349W        W46158  16.104   1.207   0.420  0.2342  0.0460  0.4868
30350W        W46159  11.042   7.343   1.008  0.1430  0.1154 -0.0238
30351W        W46160   0.143   9.854  14.106  0.0557 -0.0649  0.3647
30352W        W46161   2.936   2.340   3.239 -0.0441  0.1844 -0.4221
30353W        W46162   0.357   6.856   3.178 -0.0663 -0.2333 -0.0815
30354W        W46163   4.401  16.139  12.309  0.1476  0.1314  0.2021
30355W        W46164   1.763  12.425   2.850  0.0203  0.3094 -0.4061
30356W        W46165  12.611  15.169   0.841  0.4311  0.1404 -0.1260
30357W        W46166   1.271   4.014   0.652  0.1107  0.1995 -0.1447
30358W        W46167   1.522   9.506  12.901  0.0754 -0.3119 -0.0166
30359W        W46168   3.603  11.797  13.924 -0.2432 -0.3226 -0.0132
30360W        W46169  10.216  17.387   2.823 -0.0156 -0.0643  0.0563
30361W        W46170  14.672   6.517   5.181 -0.0409 -0.3315  0.2904
30362W        W46171  11.272  17.877  11.134  0.0555  0.0063 -0.2070
30363W        W46172   1.138   2.327  10.922  0.4234  0.1496  0.0279
30364W        W46173   5.212   5.443   1.626 -0.1098  0.2099 -0.1328
30365W        W46174   4.960   2.860   3.840  0.0872 -0.0033  0.0927
30366W        W46175   8.193  10.339  13.527 -0.0045 -0.0513 -0.4153
30367W        W46176  15.463   5.319  14.937 -0.1606 -0.0413  0.0072
30368W        W46177  15.630  18.799  11.827  0.1303  0.2187  0.1376
30369W        W46178  18.151   1.931  15.130 -0.0034 -0.0450  0.0521
30370W        W46179  10.730   4.464   1.441 -0.1019 -0.4623  0.0262
30371W        W46180  17.379   6.224   3.868 -0.2192  0.0848  0.1641
30372W        W46181   4.211  15.467   9.107 -0.0202  0.3333 -0.0169
30373W        W46182   1.588   3.035   1.627 -0.0484 -0.0620 -0.4334
30374W        W46183  11.141   3.603   4.584 -0.0630 -0.1474 -0.0456
30375W        W46184   5.116  13.709   1.282  0.0940 -0.0473  0.0096
30376W        W46185   7.714   0.708   1.074 -0.2542 -0.0006  0.0291
30377W        W46186   3.073   7.129  14.550 -0.1972  0.5324 -0.1255
30378W        W46187   1.025  13.989   4.850  0.1824  0.0617 -0.1815
30379W        W46188  18.170  13.005  13.189 -0.0383  0.1016 -0.1434
30380W        W46189  17.848   1.976   0.358  0.0198 -0.0191  0.2870
30381W        W46190   0.621  16.709  11.977 -0.1124  0.0801  0.1499
30382W        W46191  14.195   6.851   5.679 -0.3010 -0.1018 -0.1079
30383W        W46192  10.945  10.268  14.445  0.0148 -0.4306 -0.1128
30384W        W46193  12.728   9.203   3.669  0.1930  0.0647 -0.0793
30385W        W46194  12.356   6.136  10.517  0.1074  0.3042 -0.2229
30386W        W46195  14.535   2.678  13.263  0.0656 -0.2391  0.0720
30387W        W46196  10.682   0.867  10.750 -0.2007 -0.0176 -0.2485
30388W        W46197  14.767   4.957  12.221 -0.2887  0.3008 -0.1669
30389W        W46198   8.164  10.393   2.630 -0.3769 -0.1286 -0.0903
30390W        W46199  13.947  16.812   1.529 -0.2167  0.1253  0.1693
30391W        W46200   8.342  15.434   3.599  0.0872 -0.2539  0.0810
30392W        W46201  15.549   8.297   3.915 -0.0801  0.0387  0.1441
30393W        W46202   9.508  14.152   4.591 -0.1218  0.3259 -0.0526
30394W        W46203   6.424  15.933   4.957 -0.0399  0.0259  0.1583
30395W        W46204  16.202  13.800   5.729  0.2759 -0.4571 -0.0647
30396W        W46205   9.793  14.774  13.700 -0.2512 -0.0637  0.1306
30397W        W46206  15.373   3.557  12.515 -0.0906  0.2118 -0.1204
30398W        W46207  14.155  17.108  13.385  0.3048 -0.2184  0.1764
30399W        W46208  17.940  17.884  14.140  0.2981 -0.1230 -0.0466
30400W        W46209   9.255  15.673   2.872  0.1357  0.0634  0.2538
30401W        W46210  18.757   8.979   3.055  0.0060 -0.0522 -0.0431
30402W        W46211  17.334   4.324  11.703 -0.2220  0.0876  0.4757
30403W        W46212   6.305  10.368  13.076 -0.1799 -0.2002  0.3020
30404W        W46213   2.379   4.151   0.899 -0.1200  0.3404  0.0336
30405W        W46214  16.991   6.881  10.884  0.3337 -0.1108 -0.1813
30406W        W46215   3.379  15.118   4.242  0.0712 -0.1430  0.2554
30407W        W46216   5.604  12.981   3.083 -0.3194 -0.0700  0.0692
30408W        W46217  10.443   0.913  10.340 -0.0601 -0.3430  0.0590
30409W        W46218  17.882  19.032  12.214  0.2228  0.1381  0.0294
30410W        W46219   6.302  15.295   2.777  0.2731 -0.0316  0.1084
30411W        W46220   0.397   9.029  13.810 -0.3812 -0.2533 -0.0132
30412W        W46221   3.413  13.326   9.115  0.1751  0.2357 -0.2630
30413W        W46222  12.508   8.417   4.142  0.2544 -0.0898 -0.2215
30414W        W46223   4.828   6.407  12.955  0.4185  0.1295 -0.1634
30415W        W46224  10.061   5.104   1.556  0.1327 -0.0873  0.1928
30416W        W46225   3.113  12.841  14.878 -0.0462 -0.0174 -0.0051
30417W        W46226   7.609  12.995  11.283  0.0041  0.0540 -0.3545
30418W        W46227  10.700   7.163  12.511 -0.0893 -0.5004  0.2238
30419W        W46228  17.830   9.429   0.876  0.0555 -0.0960 -0.1105
30420W        W46229   5.240  10.083  10.121  0.2417 -0.0127  0.1539
30421W        W46230   8.137   5.875  13.363  0.1056 -0.2459 -0.1240
30422W        W46231  15.475   4.862   4.556 -0.0675 -0.1930  0.4048
30423W        W46232  15.597   7.857   4.367  0.0341  0.3612 -0.2596
30424W        W46233   7.330   2.230   1.638  0.4023 -0.2535 -0.2032
30425W        W46234  17.185  17.210  13.202  0.1551 -0.2502  0.3072
30426W        W46235   8.237  11.605  14.315 -0.0459 -0.5023  0.0515
30427W        W46236  10.957  13.524   1.278  0.0894  0.0314 -0.0396
30428W        W46237   5.524  12.268  15.052 -0.1710 -0.1598  0.1513
30429W        W46238   6.511   6.310   2.063 -0.4026 -0.2413  0.1778
30430W        W46239   5.497   9.187   1.063  0.2301  0.1426  0.0671
30431W        W46240   7.433   9.566  13.009 -0.2227 -0.0535  0.1375
30432W        W46241  17.512   3.618   3.373 -0.1772 -0.1598  0.2870
30433W        W46242   4.665   8.406  14.956  0.1981  0.1061  0.1404
30434W        W46243   2.285  18.364  12.748 -0.1267 -0.0081 -0.0036
30435W        W46244   0.075   3.146  13.122 -0.0750 -0.0745  0.3216
30436W        W46245   0.782  17.247  12.031 -0.0223  0.1701 -0.1187
30437W        W46246   6.094  13.037  14.690  0.0802  0.0123 -0.1652
30438W        W46247   2.703  12.076  10.801  0.2093 -0.2521  0.0032
30439W        W46248  18.919  13.220  11.300  0.0411 -0.1790 -0.0426
30440W        W46249  11.074   3.869  12.366 -0.0648 -0.4513 -0.2014
30441W        W46250  17.034   9.055   2.649  0.0807  0.0268 -0.0988
30442W        W46251   3.838   2.800   0.935 -0.2888  0.2509  0.3450
30443W        W46252   4.008   8.566  12.009  0.4400 -0.0029  0.1063
30444W        W46253   4.205  12.205  14.261  0.3754 -0.2395  0.0077
30445W        W46254   7.002   4.754  13.077 -0.1006  0.1584  0.1106
30446W        W46255   8.870   4.681   3.972 -0.3515  0.1759  0.1286
30447W        W46256  12.320   2.558  12.772 -0.1386  0.1100  0.2948
30448W        W46257   2.383  11.256  10.063  0.3036 -0.0280  0.1075
30449W        W46258  16.975  15.025  12.935  0.0043  0.1200  0.2439
30450W        W46259   6.116   2.698  14.039 -0.2136  0.0821  0.0330
30451W        W46260  16.752   8.892  14.313 -0.2500  0.3604 -0.0245
30452W        W46261   5.426  19.027  14.687 -0.2643  0.0810  0.0993
30453W        W46262  18.942   7.386  12.467 -0.1196 -0.2761 -0.0249
30454W        W46263  14.893   2.062   4.272 -0.0081  0.2201 -0.0209
30455W        W46264   3.459  10.785  15.178 -0.0677 -0.2175  0.1718
30456W        W46265   8.340  11.919   2.273  0.2061 -0.0069  0.1805
30457W        W46266   0.052   2.923   0.662 -0.1584  0.0755 -0.1332
30458W        W46267   4.773  16.346   1.842 -0.1230 -0.0689  0.0142
30459W        W46268   4.413  11.348  12.651 -0.1793  0.1871  0.0570
30460W        W46269  18.131   1.349   3.439  0.5099  0.0322 -0.0334
30461W        W46270   9.828  19.033   3.107 -0.0964 -0.2652 -0.0000
30462W        W46271   7.619  14.582  11.442  0.4525  0.1801 -0.3129
30463W        W46272   6.338   9.440   4.674  0.1806  0.3435 -0.0090
30464W        W46273   5.589  12.539   5.926  0.3950 -0.0294 -0.1654
30465W        W46274  10.700  15.513   4.628  0.0681  0.0483  0.3895
30466W        W46275  13.661  17.659   5.716  0.0789 -0.1716  0.0157
30467W        W46276  17.067   1.377   0.983 -0.2350 -0.2594 -0.0550
30468W        W46277   5.712   4.609   2.866  0.0944 -0.0452  0.1499
30469W        W46278   0.838   1.246   3.248 -0.1334 -0.0832 -0.0637
30470W        W46279  19.005   6.802  10.891  0.0246  0.0872 -0.0288
30471W        W46280   2.147   6.658  13.194  0.2646  0.3731 -0.1055
30472W        W46281   9.635  14.627  10.702 -0.1010 -0.0807 -0.0695
30473W        W46282   7.093  14.262  10.878  0.1520  0.3269  0.1728
30474W        W46283  12.836  15.518  14.228  0.0934 -0.0444 -0.1265
30475W        W46284  12.770  16.971   3.461  0.2368 -0.0794 -0.0403
30476W        W46285   1.906   1.197  11.111 -0.2678 -0.0295 -0.0037
30477W        W46286   8.778  18.961   3.229 -0.0083  0.1546  0.2128
30478W        W46287   5.205   2.703   1.472  0.0017  0.1651 -0.1836
30479W        W46288   6.688   8.342   3.121  0.2061 -0.0420 -0.0486
30480W        W46289  17.896   0.491   2.458 -0.2495  0.2743 -0.0151
30481W        W46290  14.879   2.003  11.094  0.0470  0.0102 -0.2054
30482W        W46291   1.890  16.960  14.065  0.6829 -0.0374  0.0629
30483W        W46292   1.792   0.945  15.160  0.2674 -0.1935  0.4596
30484W        W46293   8.008  14.441   0.877  0.3932  0.1322 -0.2512
30485W        W46294  13.719  12.433  13.071  0.1140 -0.3062 -0.2431
30486W        W46295  12.374   6.001  12.937  0.2412  0.1365 -0.1311
30487W        W46296  11.345   4.464  15.094  0.3711  0.0004  0.1155
30488W        W46297  12.026  14.113  15.117  0.1642  0.2836 -0.1558
30489W        W46298   8.933  17.509   5.268  0.2618 -0.1130  0.0155
30490W        W46299   5.080   4.337  14.926  0.2744 -0.1798 -0.1608
30491W        W46300   1.717  13.721   3.120  0.1248  0.2603  0.2291
30492W        W46301   6.440  17.869   3.044 -0.1340 -0.2101  0.0625
30493W        W46302   4.166   5.107  11.609 -0.2612 -0.2968 -0.0907
30494W        W46303  10.292   3.102  11.558 -0.1092 -0.3910  0.1873
30495W        W46304  12.767   1.569   1.947  0.2138  0.1324  0.1644
30496W        W46305  17.615  17.509  12.274  0.3403 -0.2230 -0.1182
30497W        W46306   5.173   3.569   3.559 -0.3715  0.1913 -0.0288
30498W        W46307  11.167   7.192  11.578  0.3530  0.1899  0.2619
30499W        W46308  16.735   4.898  12.848 -0.2541  0.5483  0.1204
30500W        W46309  15.776  12.740   0.187 -0.4664  0.1660 -0.3742
30501W        W46310  15.203  17.524   0.254 -0.1683 -0.0983 -0.0567
30502W        W46311  14.336   8.890   5.107  0.2053  0.4249  0.0926
30503W        W46312  12.856   8.747   3.935  0.1394  0.2259 -0.3100
30504W        W46313  14.967   2.439  13.506  0.0050  0.0163 -0.1377
30505W        W46314  18.930  14.839   0.989 -0.1950 -0.0663  0.0237
30506W        W46315   4.900  19.061   1.333  0.1118 -0.1960  0.1888
30507W        W46316  17.985  15.209   1.587 -0.4428 -0.0883  0.0342
30508W        W46317  18.886  15.095  12.406 -0.3557  0.1921 -0.0001
30509W        W46318  12.988   9.486   9.979 -0.2531 -0.2791  0.1643
30510W        W46319   0.684   9.907   3.589  0.5004  0.0913 -0.0078
30511W        W46320  12.058  18.646  14.063 -0.1704 -0.2183 -0.1126
30512W        W46321  17.445   0.691   2.531 -0.2388  0.0120  0.2154
30513W        W46322  15.785   3.989  12.537  0.1744 -0.3031  0.0498
30514W        W46323   3.814  12.821  10.891  0.1217 -0.1014 -0.0220
30515W        W46324  11.884  18.684  14.533 -0.0375 -0.0176  0.0660
30516W        W46325   5.402   0.518   0.765  0.2461 -0.0267  0.0997
30517W        W46326  14.787  10.387  12.766 -0.0826 -0.0091 -0.4021
30518W        W46327   9.640   2.168   9.696 -0.1952 -0.2292 -0.0178
30519W        W46328  19.127  13.055  15.029  0.1247 -0.0484 -0.1933
30520W        W46329  11.601  12.855  13.857  0.2740 -0.0808 -0.0584
30521W        W46330   9.796  17.900   5.227 -0.1583 -0.1598 -0.0673
30522W        W46331  15.672  12.257  12.934  0.1332  0.4586  0.0775
30523W        W46332   7.406   1.480   0.491 -0.1303  0.0705  0.0997
30524W        W46333  16.162  14.784  13.708  0.0799 -0.2942  0.3969
30525W        W46334   1.565  18.310   4.140  0.1494 -0.1678  0.0210
30526W        W46335  10.306   2.768   0.552  0.1328  0.0725  0.0357
30527W        W46336  14.114  16.124   2.685 -0.2412  0.0763  0.0021
30528W        W46337   1.661  10.171  14.651  0.1191 -0.1066  0.3498
30529W        W46338   0.177   7.686  11.705  0.0991  0.0954 -0.0423
30530W        W46339   2.200   2.741   1.709  0.5215 -0.2186  0.1479
30531W        W46340   0.473  17.008   2.519  0.0027 -0.0344 -0.4324
30532W        W46341   5.400   8.801   0.518  0.3439 -0.2232 -0.0017
30533W        W46342  14.201   6.280  10.334 -0.0757  0.1935  0.0341
30534W        W46343   4.879   1.728   9.951 -0.4572 -0.2333  0.2500
30535W        W46344  16.609   2.378   2.002  0.1176  0.0423 -0.1927
30536W        W46345   2.309   6.820  15.017 -0.0620  0.0046 -0.1755
30537W        W46346  13.231   0.232   1.234  0.3475  0.1863  0.0270
30538W        W46347  18.269   0.829   9.986 -0.0416  0.2930 -0.1543
30539W        W46348   8.936  14.159   4.583  0.1535  0.1917 -0.0625
30540W        W46349  13.297   2.971   3.134 -0.1909  0.1853  0.1056
30541W        W46350   6.519   0.786  14.811 -0.5647 -0.1310 -0.1065
30542W        W46351  14.713   0.409   5.292  0.2846 -0.1473 -0.0809
30543W        W46352   7.855   5.476   4.557  0.0493  0.3282  0.2098
30544W        W46353   5.311  18.930  11.802 -0.1232  0.1391 -0.0888
30545W        W46354  11.780   0.831  14.238 -0.0377 -0.1980  0.1938
30546W        W46355  16.040   6.570   3.950  0.1390 -0.0690  0.2084
30547W        W46356   5.768  10.614  13.138  0.0585  0.0343  0.0557
30548W        W46357   8.622  12.758  12.455  0.2131  0.1185 -0.0350
30549W        W46358  12.494   5.006   3.104  0.0229 -0.3987  0.3656
30550W        W46359   1.851   8.874   4.173  0.0086  0.0027 -0.0415
30551W        W46360   0.142  10.626   2.138 -0.0484 -0.1278  0.0402
30552W        W46361   9.019   5.058   0.412 -0.1668  0.0079 -0.1397
30553W        W46362  14.965  11.020   5.533 -0.2268  0.0373  0.0352
30554W        W46363  18.697   1.117   1.000  0.4391  0.1421  0.4502
30555W        W46364  17.937  17.482  10.643 -0.3874  0.0102 -0.0625
30556W        W46365   4.087  10.079  14.337 -0.1959 -0.0825  0.0494
30557W        W46366  17.634   2.445   1.817  0.0233  0.0176  0.1939
30558W        W46367  17.749  13.909   4.064  0.2045  0.0953  0.1503
30559W        W46368   9.854   0.011   0.489 -0.1447  0.1992  0.0094
30560W        W46369   9.553  11.413   5.014 -0.2785  0.1092  0.2453
30561W        W46370  16.557   2.638   0.797 -0.0580 -0.3321  0.0458
30562W        W46371  13.999  10.119   2.698 -0.1248 -0.4437  0.4630
30563W        W46372  10.591   7.900  11.830  0.0384 -0.0974  0.5454
30564W        W46373   2.212  10.593  13.550 -0.0768 -0.0596  0.1201
30565W        W46374  18.678  10.592   4.565 -0.1337 -0.5411 -0.3607
30566W        W46375  10.462   9.955  12.351 -0.0749  0.1392  0.0284
30567W        W46376   6.537  13.087   0.998 -0.1589 -0.1310  0.0263
30568W        W46377  15.012  13.045   1.942 -0.1245 -0.0705  0.0746
30569W        W46378   8.031  10.116  10.827  0.2709  0.4179 -0.1063
30570W        W46379   2.685   0.345   1.751  0.1837 -0.2269 -0.0459
30571W        W46380  18.561  15.805   4.267  0.0447  0.0359  0.2438
30572W        W46381   5.826  18.476   3.520  0.2205 -0.0729 -0.2258
30573W        W46382  19.035  18.405   2.198 -0.0849  0.0978  0.0521
30574W        W46383  14.456   4.710   3.680 -0.2544  0.0149 -0.1179
30575W        W46384  11.725   5.068  11.360  0.0812 -0.0038  0.0320
30576W        W46385   5.273  17.682   1.998 -0.2231  0.2948  0.1646
30577W        W46386  18.422   6.151  12.192 -0.0423  0.0570  0.1109
30578W        W46387  10.134   8.472   2.134 -0.2070  0.0194 -0.1910
30579W        W46388   7.547  11.438  11.359 -0.1049  0.0027 -0.0474
30580W        W46389   3.539   3.962   1.408  0.1036 -0.1518 -0.1398
30581W        W46390  10.669   1.700  11.436 -0.2241 -0.0135  0.1249
30582W        W46391   2.312   7.809   4.522 -0.1484 -0.1803  0.1537
30583W        W46392   0.366   7.317   4.342  0.5348  0.4124 -0.2610
30584W        W46393  15.458   7.041  15.000 -0.2472 -0.0541  0.0871
30585W        W46394  15.780   9.726  13.210  0.0474  0.0766 -0.1001
30586W        W46395   3.495   1.596   1.508  0.1899  0.0334  0.0285
30587W        W46396   9.745   0.957   2.494  0.0700 -0.3560  0.1592
30588W        W46397   6.540  18.386   2.193  0.3739 -0.1907  0.3586
30589W        W46398   2.107  11.677   2.068 -0.0005 -0.0884  0.0513
30590W        W46399  13.978  12.943   4.760 -0.0856  0.0365  0.1607
30591W        W46400   6.967  17.503   0.703 -0.0015 -0.1095 -0.2260
30592W        W46401   0.424  17.005  14.853  0.1948  0.3159  0.3173
30593W        W46402  10.886   1.722   1.848  0.1349  0.0032  0.2205
30594W        W46403  13.070   0.704  14.267  0.1688 -0.4481  0.2515
30595W        W46404  14.738  15.257   1.808 -0.2171  0.0363 -0.0108
30596W        W46405  18.972  17.074   5.196 -0.1071  0.2318 -0.0020
30597W        W46406   0.756   9.458  10.980 -0.5341  0.2521 -0.1233
30598W        W46407   8.478   0.657   4.696  0.0701 -0.1441  0.2271
30599W        W46408  16.592   4.794   6.402 -0.3218 -0.2909  0.0075
30600W        W46409   4.932   6.781  13.905 -0.0276  0.0220 -0.2346
30601W        W46410  11.547   3.900  12.208  0.0292  0.3229  0.1772
30602W        W46411   5.147   9.232   0.553 -0.0019 -0.2755  0.2749
30603W        W46412   2.588  16.525   3.290  0.1083 -0.2840 -0.2111
30604W        W46413  16.493  18.722  11.740  0.1213 -0.0977 -0.1252
30605W        W46414  17.574  14.688   3.518  0.2708 -0.1186  0.1754
30606W        W46415  14.140   4.881   2.030 -0.0078  0.0379 -0.1365
30607W        W46416   0.291  13.443  11.438 -0.0846  0.0381  0.4334
30608W        W46417   0.527  11.023  14.382 -0.1445 -0.0447 -0.0474
30609W        W46418   6.309   3.130  13.688  0.1534 -0.0249 -0.1397
30610W        W46419  13.176  15.175   1.103  0.0167  0.2085 -0.0096
30611W        W46420   1.110  14.189  13.190  0.2439 -0.2795 -0.0237
30612W        W46421  10.982   9.492  11.509 -0.0354  0.2445  0.0740
30613W        W46422   1.272   3.159   1.119 -0.0603  0.1576  0.4255
30614W        W46423   4.166   4.238  11.189  0.0929 -0.1289 -0.0527
30615W        W46424  10.377   1.918  13.704 -0.1382  0.0122  0.0599
30616W        W46425   2.995  12.214   0.771  0.1904  0.1625 -0.1386
30617W        W46426   3.919  18.575   2.201 -0.1153  0.2132  0.1248
30618W        W46427   5.681   9.595   3.165 -0.0321 -0.1073 -0.1938
30619W        W46428  11.060   8.928   4.617  0.0554  0.0201 -0.1407
30620W        W46429  12.636   5.662   2.549 -0.6560 -0.0900 -0.1886
30621W        W46430  15.984  16.271   4.120 -0.0523 -0.0891  0.3086
30622W        W46431  15.144  19.015   4.728  0.0449 -0.1835 -0.0896
30623W        W46432  12.621   7.278   3.453  0.0918 -0.0726 -0.1431
30624W        W46433  13.466   9.988  14.795 -0.0993  0.1633  0.1084
30625W        W46434   1.591   6.306   3.046 -0.1215 -0.1637  0.0750
30626W        W46435  12.935  13.741  11.860  0.5434 -0.0777  0.0814
30627W        W46436  13.692   2.889  11.170  0.2723 -0.0308 -0.0572
30628W        W46437  17.173  14.319   3.605 -0.0195 -0.3330 -0.2537
30629W        W46438   5.596  10.150   0.281 -0.1365  0.0371 -0.2255
30630W        W46439  13.332   6.445   4.176  0.0652  0.5316 -0.0389
30631W        W46440  12.676  18.494   0.928 -0.0900 -0.3703  0.4343
30632W        W46441   3.956  10.284   3.379  0.4563  0.0947 -0.2190
30633W        W46442   1.137   4.134   3.105  0.1053 -0.1205  0.2314
30634W        W46443  16.851   1.211   4.589  0.0174  0.0844 -0.1356
30635W        W46444  14.668   9.050   0.766 -0.1362  0.3300  0.0953
30636W        W46445   5.003  14.349  10.452 -0.2720 -0.0906 -0.1510
30637W        W46446   0.201   7.297   5.487  0.0170  0.2402  0.1968
30638W        W46447   5.776   9.573  12.734  0.0389 -0.0511 -0.0946
30639W        W46448  18.737   3.857   2.135 -0.2782 -0.1453  0.0689
30640W        W46449  17.134  12.515   0.210 -0.1959 -0.0554  0.1227
30641W        W46450   8.035  10.385   0.592 -0.1634  0.1014  0.0294
30642W        W46451  15.507   9.019   1.498  0.0454  0.3035  0.0764
30643W        W46452  18.565   7.892  12.319 -0.1997 -0.0570 -0.1204
30644W        W46453  13.204   3.781   0.252  0.2045 -0.0918  0.3737
30645W        W46454  10.921  18.798  10.835 -0.0731  0.2655 -0.1163
30646W        W46455   9.694   3.094  12.374  0.0092 -0.0120  0.1169
30647W        W46456   2.127  11.614  10.882  0.1506  0.0847 -0.1067
30648W        W46457   4.064   3.666   0.522  0.0534  0.0845  0.1371
30649W        W46458   9.168  10.010  15.072 -0.1047  0.0244 -0.4012
30650W        W46459   2.040   5.550  14.886  0.2019 -0.3390  0.0852
30651W        W46460   0.032   7.945   3.788 -0.2133  0.1520  0.2232
30652W        W46461  12.224   3.609  11.559  0.1933 -0.2656 -0.0226
30653W        W46462  11.783   0.392   2.718 -0.1860 -0.0319  0.3165
30654W        W46463  12.455   5.498  15.079  0.2576  0.0378  0.0240
30655W        W46464   2.601   7.369  14.371 -0.1090 -0.1383  0.1983
30656W        W46465   9.660  18.606   4.804 -0.0266 -0.1234 -0.0311
30657W        W46466  19.022  17.080  14.249  0.0186 -0.0901 -0.0096
30658W        W46467  10.749  17.315  14.860  0.0619 -0.1152  0.0725
30659W        W46468   8.724   4.174  13.452 -0.2020 -0.0133 -0.1394
30660W        W46469  11.527   9.337  14.890 -0.1973  0.1840  0.1121
30661W        W46470   0.959   7.529   4.166  0.3464  0.2519 -0.1872
30662W        W46471   2.414  11.399   0.810  0.2098  0.2103 -0.0348
30663W        W46472  10.543  18.890   3.758  0.0663 -0.2725  0.0600
30664W        W46473   5.663  10.165  10.556  0.1103  0.0582  0.0370
30665W        W46474  10.605   3.615   0.054 -0.0986  0.3467  0.0530
30666W        W46475  18.919  11.450   0.732 -0.3772 -0.0403 -0.0128
30667W        W46476  15.670  17.301  12.288 -0.0327 -0.0077 -0.0453
30668W        W46477   5.889   2.906  13.422  0.1829  0.0153  0.0706
30669W        W46478  15.621  15.268  11.316 -0.0520 -0.1384  0.2713
30670W        W46479   3.946   4.867   1.611 -0.1272  0.2615  0.0702
30671W        W46480   7.964  16.870   4.233  0.1907  0.0561 -0.2441
30672W        W46481  11.031  12.547   2.791 -0.0388 -0.2544  0.1439
30673W        W46482   6.612   3.611   0.934 -0.1336 -0.2104 -0.4419
30674W        W46483  12.620  14.339   1.678  0.0186 -0.1176 -0.1045
30675W        W46484  12.311   2.858   2.558 -0.0284 -0.2289 -0.1273
30676W        W46485   2.782   9.628   3.136 -0.4380 -0.1089 -0.1081
30677W        W46486   4.250  12.360   4.105 -0.2266  0.0940 -0.1963
30678W        W46487   7.106   9.233   2.436 -0.2827 -0.1249  0.0413
30679W        W46488  17.135  17.882   4.036  0.1219 -0.3383 -0.2877
30680W        W46489  10.101  10.416  13.096  0.0421  0.2750 -0.0470
30681W        W46490  13.798  16.394   3.505 -0.4209 -0.4469 -0.0424
30682W        W46491   2.474   2.105  11.152  0.3188 -0.2477 -0.2029
30683W        W46492   6.020  16.273   2.935  0.3095  0.1945 -0.0149
30684W        W46493  10.861   1.862  13.380 -0.1656 -0.1050 -0.1973
30685W        W46494   2.582  16.224  12.064  0.3525 -0.1651 -0.0329
30686W        W46495   1.410  18.194  13.337  0.4267  0.1472 -0.1720
30687W        W46496  18.866  15.546  14.150 -0.1259  0.5008 -0.1293
30688W        W46497  13.384  14.004   1.923 -0.0834 -0.0971 -0.0466
30689W        W46498   9.437   4.404  11.767  0.0571  0.0752  0.0177
30690W        W46499  11.879  14.571   1.085 -0.0111  0.2303  0.0479
30691W        W46500   4.308  14.608   2.717 -0.1469 -0.0183 -0.0233
30692W        W46501   3.999  14.313  14.733 -0.1612  0.1295 -0.4345
30693W        W46502   9.755   3.965  12.593  0.1611 -0.0689 -0.0773
30694W        W46503   8.768  10.741   1.293 -0.3371  0.1048  0.0164
30695W        W46504   8.449   5.332   1.837 -0.2743 -0.2372  0.0798
30696W        W46505   6.972  11.409   4.556  0.0947  0.0666 -0.1355
30697W        W46506  10.139   2.689  13.089 -0.2625  0.0202  0.2079
30698W        W46507   2.261   2.968  10.680 -0.0912 -0.0575  0.0460
30699W        W46508   7.608   3.931  13.540  0.3040  0.1512  0.0092
30700W        W46509  11.114  11.145   1.502  0.1283  0.1444  0.2827
30701W        W46510  17.985   6.019   1.449  0.1046  0.0115 -0.2437
30702W        W46511   3.159   8.772  10.482  0.0697  0.1830  0.0460
30703W        W46512  18.557   7.545  12.685 -0.1926  0.1416  0.0964
30704W        W46513   6.177  11.330   0.539 -0.3228 -0.1440 -0.2112
30705W        W46514   8.180   2.904   4.093  0.4068 -0.1695 -0.1036
30706W        W46515  10.113  10.938  15.126 -0.1862  0.2520  0.0139
30707W        W46516   2.997  10.841  14.439  0.0401  0.0343 -0.1703
30708W        W46517  14.723   7.274   0.560 -0.0565 -0.0784 -0.0030
30709W        W46518   0.226   0.806  14.141  0.0468 -0.2293  0.2581
30710W        W46519  16.227  15.475   4.255  0.0755 -0.1557  0.0890
30711W        W46520   4.642   4.083   4.115 -0.0249 -0.0474  0.0051
30712W        W46521   9.870  14.673  15.189  0.2593  0.1482  0.0415
30713W        W46522   7.171   6.903  10.779 -0.0942  0.2277  0.2063
30714W        W46523   1.108  12.944  12.112  0.2466  0.1873  0.1560
30715W        W46524   1.343   7.047  14.748 -0.0143 -0.2973 -0.0926
30716W        W46525  14.593  11.796   2.661  0.0586 -0.2155  0.1785
30717W        W46526   2.357  14.592  11.144 -0.3025 -0.1894 -0.0457
30718W        W46527  10.569  12.561   2.465 -0.3084  0.2042 -0.1454
30719W        W46528  11.310  12.750  14.350 -0.2639  0.3191 -0.1222
30720W        W46529  12.720   8.013  12.445 -0.2893  0.1824 -0.0778
30721W        W46530  16.541   1.798   3.899 -0.1123 -0.2986 -0.0058
30722W        W46531   6.055   5.370   4.933 -0.0654 -0.3764  0.4987
30723W        W46532  10.340   6.984   1.623  0.3796 -0.1976  0.0013
30724W        W46533   1.637  12.291   0.375 -0.1492  0.3102 -0.1333
30725W        W46534   4.212  18.762   0.481  0.1548 -0.3358  0.1862
30726W        W46535  16.819   3.427  12.558  0.0619  0.2715  0.1059
30727W        W46536   8.171   2.266   2.920 -0.2026 -0.2225  0.1279
30728W        W46537   7.655   2.617  14.109 -0.1189  0.0432  0.0723
30729W        W46538   2.759  18.746  15.165  0.2683 -0.0380  0.0412
30730W        W46539  16.687  17.291  11.978 -0.1776 -0.0192 -0.1823
30731W        W46540   1.520  16.941  13.256 -0.0217  0.2362  0.1584
30732W        W46541   9.708  16.973  13.602  0.2055 -0.1268  0.1671
30733W        W46542   8.208   7.002  14.327  0.1526 -0.2081  0.1057
30734W        W46543  13.080  14.428  13.531 -0.0443 -0.3071  0.2623
30735W        W46544   4.585  12.666   4.439  0.2228 -0.1186  0.1177
30736W        W46545   0.605  11.465  14.640  0.3302 -0.2404 -0.0880
30737W        W46546   0.581   4.297   1.148  0.3012  0.0120  0.4867
30738W        W46547  10.665   6.354   4.390 -0.2175 -0.0964  0.1084
30739W        W46548  16.758  18.256  12.489 -0.1730 -0.2397 -0.1783
30740W        W46549   5.158  15.503   2.898 -0.3142  0.0394  0.4103
30741W        W46550  16.052   4.605   5.208  0.0815  0.5535 -0.0261
30742W        W46551  16.289  16.470  14.998 -0.0003 -0.1210  0.0485
30743W        W46552  10.511   4.265   2.747  0.2814  0.0117  0.0979
30744W        W46553  13.438   3.206  13.917  0.1227 -0.1090 -0.2402
30745W        W46554  18.766  15.159   3.266 -0.2338  0.2470 -0.0217
30746W        W46555   2.844   7.658  13.102 -0.2648  0.2967  0.2003
30747W        W46556   9.857   4.438   2.152  0.0784  0.0831 -0.0971
30748W        W46557   0.812   0.328  13.559 -0.1339  0.0372 -0.0726
30749W        W46558   3.776   9.116   0.745  0.1599  0.2640  0.0957
30750W        W46559  15.211  14.644   4.585 -0.0544  0.2635  0.2320
30751W        W46560  10.518   6.678  13.587 -0.1295 -0.1888  0.3635
30752W        W46561  11.557   6.142   1.281 -0.1745 -0.2079  0.1138
30753W        W46562  16.995  15.824  13.160 -0.2452 -0.3775  0.0619
30754W        W46563   6.854   0.698   2.313 -0.1726 -0.0435 -0.1527
30755W        W46564  16.506  10.512  13.720 -0.0604 -0.0884 -0.0049
30756W        W46565  14.707   2.247  13.060 -0.1757 -0.1444 -0.2034
30757W        W46566   7.669   2.522   4.651  0.2764 -0.1381  0.1458
30758W        W46567  18.096   0.067  11.801 -0.0460  0.0766  0.3702
30759W        W46568   4.616   8.616   0.897  0.3173  0.3083 -0.1005
30760W        W46569   0.098  13.807   1.357  0.0375  0.2870 -0.1969
30761W        W46570   5.550   3.097  10.952  0.1647  0.1090 -0.0751
30762W        W46571  13.818   9.764  11.721  0.0062  0.0250  0.0766
30763W        W46572  10.358   4.621  13.853  0.1207 -0.1119  0.0313
30764W        W46573   4.528   3.827   5.540  0.2713 -0.0583  0.0855
30765W        W46574  10.510   2.816   4.585  0.0186  0.1105  0.1836
30766W        W46575  19.142   6.572  13.728  0.1315  0.1580  0.1528
30767W        W46576   8.149   6.832  12.898 -0.1200  0.3033  0.3794
30768W        W46577   1.702  11.764   2.315 -0.1508  0.1215  0.1897
30769W        W46578   7.859   2.598  10.686  0.0187  0.1790 -0.2349
30770W        W46579  10.857   9.996  11.936  0.1534 -0.2731  0.2569
30771W        W46580   2.567   0.373  11.305  0.1335 -0.1063  0.0259
30772W        W46581  17.142  16.925   3.479 -0.0221 -0.0282  0.2085
30773W        W46582   0.142  15.413  13.980 -0.0361 -0.0723  0.0575
30774W        W46583   5.686  10.713   3.470 -0.1480 -0.0704  0.0830
30775W        W46584   1.827  17.784   5.783  0.4058 -0.0728  0.2057
30776W        W46585   3.584  15.305   2.143  0.1698  0.1984  0.2412
30777W        W46586  13.285  15.414   5.207  0.0421  0.0440 -0.3095
30778W        W46587  14.419  11.511  12.792  0.0652  0.1264  0.1555
30779W        W46588  12.791  15.347   3.445 -0.2162 -0.1824 -0.2371
30780W        W46589  16.747  17.204  14.283  0.3564 -0.1156  0.1171
30781W        W46590  13.929   8.301   1.735  0.1448  0.4679  0.0688
30782W        W46591   9.482  11.782   2.778 -0.1501  0.1500  0.2643
30783W        W46592  10.509   6.003   3.317  0.0403 -0.0126 -0.0556
30784W        W46593  17.578  17.758  14.460  0.2332  0.2850  0.1611
30785W        W46594   4.339   9.505  12.850 -0.1990  0.2317 -0.1489
30786W        W46595  15.381   5.475   2.098 -0.1997 -0.2681 -0.1520
30787W        W46596  10.383  12.207   3.188 -0.0450  0.2756  0.1488
30788W        W46597  14.980   2.077   5.551 -0.1304 -0.0701  0.0010
30789W        W46598   3.591   1.737   0.544 -0.0106  0.1964 -0.5270
30790W        W46599   3.297  13.783  13.180 -0.1207  0.1294  0.3011
30791W        W46600   4.936   9.284   4.348 -0.1623  0.0271  0.0846
30792W        W46601   4.711   7.644   3.186  0.0923  0.0345  0.1813
30793W        W46602  17.087   9.271   3.829  0.3945  0.2378  0.0767
30794W        W46603  11.891   2.987   2.899  0.2963  0.2348  0.0728
30795W        W46604  13.397  16.009   2.137  0.2351  0.4239  0.2075
30796W        W46605  15.649   5.004  11.701 -0.0950 -0.3968 -0.1724
30797W        W46606   2.689   4.734  11.838  0.3062 -0.0368 -0.0243
30798W        W46607  18.083  10.785   1.817  0.0608 -0.3351  0.0296
30799W        W46608  10.936   4.347   3.563  0.2251 -0.1193  0.0582
30800W        W46609  11.260   3.495   1.742 -0.0007  0.0848  0.0001
30801W        W46610   8.740   7.159   4.184 -0.1230  0.1412  0.0946
30802W        W46611   8.615   3.734   5.712  0.3428 -0.1069 -0.3113
30803W        W46612  17.040  11.707  12.040  0.0405 -0.2418 -0.2817
30804W        W46613   8.576   7.757   4.864 -0.0664 -0.1091  0.2081
30805W        W46614   6.179  12.702  10.428 -0.3298 -0.4030  0.1354
30806W        W46615  14.584   9.782   3.151  0.3848  0.0829  0.0847
30807W        W46616  15.194  14.652   1.296 -0.1187  0.0405  0.0462
30808W        W46617  14.354  10.570   0.915  0.1979  0.4117 -0.1514
30809W        W46618   3.387  14.906  14.643 -0.2141  0.1662 -0.3999
30810W        W46619  15.404  14.358   1.732  0.0762 -0.1106  0.0704
30811W        W46620  12.047  12.123   1.031  0.2239  0.4387 -0.0779
30812W        W46621   7.290  15.751  14.107 -0.3696 -0.0974  0.1876
30813W        W46622  11.143  19.114   1.125 -0.0117  0.2860 -0.1413
30814W        W46623   7.060   9.239   2.907  0.2507  0.1647 -0.0816
30815W        W46624   5.246   0.904   3.269  0.1843  0.0880  0.1011
30816W        W46625   3.411  15.365  12.903  0.0991 -0.1678  0.1218
30817W        W46626   2.963  14.092   1.076  0.1004  0.0078 -0.1759
30818W        W46627   9.098   6.428  13.256  0.0324 -0.1256  0.3101
30819W        W46628   8.497   8.965   4.299 -0.0197 -0.0929 -0.2187
30820W        W46629   3.706  13.304   0.872  0.1521 -0.1508 -0.1567
30821W        W46630   9.268  12.558  13.887  0.1722 -0.1034  0.3334
30822W        W46631   7.078  11.155  12.100  0.1158  0.0038  0.0421
30823W        W46632  12.940  19.031  11.699 -0.1186  0.0579  0.0491
30824W        W46633   9.481   2.027  13.973 -0.0435  0.0557  0.1047
30825W        W46634   5.509   6.388  14.871  0.1001 -0.2170  0.2851
30826W        W46635   1.478  13.123  13.694  0.0309  0.2923 -0.2815
30827W        W46636  10.544  16.815   2.884 -0.0224  0.0833  0.0244
30828W        W46637   5.296   4.053   3.562 -0.2001 -0.3697 -0.0362
30829W        W46638   6.219  12.281   2.537 -0.1990  0.0344  0.2696
30830W        W46639  15.361  11.516   0.804 -0.1362 -0.1415 -0.0158
30831W        W46640   1.532   5.279   1.580  0.0128 -0.0303 -0.4846
30832W        W46641  14.407   9.886  13.490 -0.3354  0.1024 -0.1255
30833W        W46642  11.769   0.797   3.897  0.0006 -0.1902 -0.5244
30834W        W46643   7.513  14.942  14.035  0.2989  0.1707 -0.1021
30835W        W46644   2.750  18.267   0.302  0.0720  0.1391 -0.1103
30836W        W46645  18.293   8.836  13.689 -0.2058 -0.1362  0.0763
30837W        W46646   0.074   6.818  11.305  0.4214 -0.0357 -0.3634
30838W        W46647   5.808   1.734   5.135 -0.1025  0.0658 -0.0658
30839W        W46648  10.056   9.673   2.479 -0.1433  0.1054  0.0511
30840W        W46649  14.279   1.827   1.045 -0.1189  0.0994 -0.1983
30841W        W46650   0.194   9.440  14.600  0.0500  0.6358 -0.0977
30842W        W46651   3.471   8.081   1.341 -0.0914  0.2140  0.1655
30843W        W46652  18.330  14.868  10.342 -0.2571  0.0286  0.2841
30844W        W46653   7.925   9.340   1.036  0.1205  0.3607 -0.0303
30845W        W46654   6.057   8.481   4.488  0.0891 -0.1062  0.0746
30846W        W46655   6.756  13.605  14.441  0.0917  0.0504  0.0118
30847W        W46656  10.342   9.735   5.424 -0.0077 -0.0695 -0.3650
30848W        W46657   6.891  11.337   3.605 -0.3063  0.1065  0.2974
30849W        W46658  13.107   3.684   1.100 -0.0430  0.1697  0.0393
30850W        W46659  10.684  17.511   1.208  0.1763 -0.0045 -0.0337
30851W        W46660  13.811  14.721  10.917  0.0508  0.0572  0.0536
30852W        W46661  17.257   9.482  11.463  0.2139 -0.2350  0.3609
30853W        W46662  14.628  13.371  14.497  0.1735 -0.3092  0.3469
30854W        W46663  17.442   9.749   2.438 -0.0454 -0.0847 -0.0368
30855W        W46664  13.283   0.542  14.744 -0.1013 -0.0019 -0.2164
30856W        W46665  13.924   7.144  12.304 -0.1778 -0.0173  0.1580
30857W        W46666  10.098   5.308  14.870 -0.1564 -0.2521  0.0023
30858W        W46667   2.167  14.517   3.720  0.1148 -0.2120  0.4028
30859W        W46668   8.660  14.414   3.401 -0.0098  0.0668 -0.2093
30860W        W46669  17.993   8.038  11.091 -0.5178 -0.1397  0.0931
30861W        W46670  17.551  10.724  14.774 -0.0937  0.2496 -0.2779
30862W        W46671  15.179  16.732   1.507  0.0240 -0.0189 -0.2105
30863W        W46672   6.917  17.312   1.410  0.2211  0.2645  0.2606
30864W        W46673   6.480  16.440  12.553 -0.0884  0.1932 -0.0142
30865W        W46674  11.251  12.467  13.412 -0.0175  0.2467  0.0909
30866W        W46675   5.719   1.701  12.487 -0.1569  0.3892 -0.3368
30867W        W46676   6.588  10.288   0.141  0.2139 -0.1568  0.0573
30868W        W46677   9.903   3.966   3.987 -0.2391 -0.0845 -0.0664
30869W        W46678  18.896   6.410   3.442 -0.0845  0.2865 -0.0384
30870W        W46679   0.191  15.048   3.385  0.0955 -0.0094  0.2231
30871W        W46680   1.204  12.105   0.593  0.0451  0.4411  0.2379
30872W        W46681  12.237  12.404  13.658 -0.1699  0.2291  0.1038
30873W        W46682  18.855  11.361   2.155 -0.0745  0.0185  0.1317
30874W        W46683   1.064   5.660  13.104  0.0905  0.0344 -0.2538
30875W        W46684  16.114  17.732   1.392 -0.2218 -0.0534  0.0130
30876W        W46685  17.150   7.758   1.047 -0.1654 -0.0405  0.2925
30877W        W46686   1.024  11.654   0.625  0.0586 -0.1268 -0.0350
30878W        W46687  12.277   2.815   0.875 -0.0089 -0.0328 -0.0093
30879W        W46688   1.244   8.923  10.529  0.1770  0.1586 -0.0658
30880W        W46689  12.484   8.953   3.025 -0.1393  0.0914  0.2710
30881W        W46690  10.836   9.109  11.804  0.2428 -0.1091 -0.2627
30882W        W46691  17.544   5.390   4.766 -0.5266  0.0502 -0.0856
30883W        W46692   1.688  17.985  14.623 -0.0569  0.2052  0.1261
30884W        W46693  14.174   6.575   4.242 -0.0335  0.0134 -0.1566
30885W        W46694   2.487  15.024  10.970 -0.0763  0.0772  0.2327
30886W        W46695   1.662   3.337   0.749  0.2259 -0.2654 -0.0875
30887W        W46696   9.286   7.886   0.301 -0.0687  0.2899 -0.0383
30888W        W46697  12.865   2.612  14.055 -0.2067  0.1058 -0.1700
30889W        W46698   4.469   8.724   5.121  0.2033 -0.0489 -0.0460
30890W        W46699   7.583   4.173  15.028 -0.0531  0.1981 -0.5164
30891W        W46700   0.959   5.762  14.218 -0.2168  0.1364  0.0509
30892W        W46701  12.695   9.223   4.153  0.2366 -0.0833 -0.0657
30893W        W46702  14.837  14.816  11.871 -0.0866 -0.1972  0.1499
30894W        W46703   0.568  18.134   3.728  0.2681  0.2705  0.0119
30895W        W46704   8.493   1.558   2.238 -0.4232 -0.2869  0.1420
30896W        W46705  18.689   1.874   2.535  0.0183  0.1656 -0.1123
30897W        W46706  10.066   2.397  13.605  0.1391 -0.1229 -0.0859
30898W        W46707   3.778  13.213   3.687  0.2169 -0.3606 -0.3883
30899W        W46708  10.144   9.386   2.950 -0.4426 -0.1816  0.1225
30900W        W46709   2.251  15.421  11.896  0.2773 -0.0443  0.0362
30901W        W46710   9.820   3.090  11.661  0.0148  0.0853 -0.0491
30902W        W46711   9.073  13.823   5.336  0.0341 -0.3768 -0.2396
30903W        W46712  10.177   7.939  13.292 -0.1639  0.2969  0.0178
30904W        W46713  19.095  17.179  13.724  0.1137 -0.0910  0.1170
30905W        W46714  18.084  13.157   3.784 -0.0018 -0.2312  0.0078
30906W        W46715   1.008  10.825  14.290 -0.0654  0.2997 -0.2150
30907W        W46716   9.854  12.490  14.666  0.0231 -0.0914 -0.0458
30908W        W46717  11.450   0.099  13.002  0.1615  0.0785 -0.0918
30909W        W46718  16.166   7.230  12.348  0.2105 -0.0881  0.1438
30910W        W46719   7.472   8.015  15.116 -0.0646  0.0374 -0.3168
30911W        W46720  14.710  17.561  13.618 -0.0718  0.0837 -0.2072
30912W        W46721   0.310   4.456   4.301 -0.1624 -0.0167  0.0284
30913W        W46722   1.929  14.115   1.910  0.3584 -0.2088  0.0121
30914W        W46723   0.088   3.016  14.435  0.2426  0.2377 -0.0503
30915W        W46724  13.558   1.566  11.838  0.2095 -0.0045  0.2341
30916W        W46725  10.182   0.512  12.917 -0.0279  0.0108  0.0071
30917W        W46726  13.026   4.672  11.124 -0.1484 -0.2906  0.2087
30918W        W46727  14.041   4.698   0.598 -0.4337 -0.0165 -0.0789
30919W        W46728  11.323  16.781  12.129  0.2822 -0.3029  0.3384
30920W        W46729   8.902  13.826   2.804  0.2814 -0.0232  0.0202
30921W        W46730  10.806  13.273   1.741  0.1536 -0.0366 -0.0639
30922W        W46731  18.473   1.961   4.604  0.0744  0.0713 -0.1869
30923W        W46732   5.076  17.914   4.966 -0.2274  0.1604  0.0343
30924W        W46733  16.976   9.218  11.792 -0.3331 -0.3407 -0.0128
30925W        W46734   5.028  18.155   4.003  0.1694 -0.1219 -0.4369
30926W        W46735   4.974  18.460  13.390  0.2912 -0.1432  0.1802
30927W        W46736  13.161   4.621  14.334 -0.0440  0.2672 -0.1406
30928W        W46737   1.095  10.471  13.329  0.1438 -0.0281  0.0833
30929W        W46738  18.472   2.650  11.480  0.1607 -0.0730 -0.2156
30930W        W46739  18.811   2.029   4.968 -0.1339  0.0324 -0.0738
30931W        W46740  14.307  15.575   4.941  0.0838 -0.1009  0.0129
30932W        W46741  16.691   2.778  13.068 -0.0962  0.3338 -0.1135
30933W        W46742   8.925   8.047  11.296 -0.2004 -0.3444 -0.0807
30934W        W46743  10.667   4.705   2.703  0.2937 -0.2134  0.1946
30935W        W46744  16.461  19.134  13.121 -0.2164  0.1791  0.0501
30936W        W46745  18.169  12.505  12.194 -0.2697  0.0331 -0.0018
30937W        W46746   1.077   0.557   0.034  0.0409 -0.6095  0.0911
30938W        W46747   5.057   0.924   2.544 -0.1232 -0.2864 -0.3162
30939W        W46748  18.875  13.749  14.237  0.1838  0.3690  0.0849
30940W        W46749   9.021   1.464   0.953  0.2169  0.3106  0.0942
30941W        W46750  14.176   9.388  12.420  0.0456  0.1249  0.3145
30942W        W46751   9.058  11.856   0.919 -0.2156 -0.0819 -0.3102
30943W        W46752   6.197  12.692   0.911  0.1697  0.2588  0.1403
30944W        W46753  11.844  19.119   9.754  0.0077  0.0310 -0.3007
30945W        W46754   3.528  17.764   4.931 -0.0186 -0.1983  0.2190
30946W        W46755   2.925  12.337   4.012  0.2972  0.4354  0.0227
30947W        W46756   6.062  10.296  13.521  0.7403  0.1972  0.0064
30948W        W46757   5.105  18.796  11.180  0.0795 -0.1451 -0.0599
30949W        W46758  16.292   9.002   3.087 -0.0414 -0.1039  0.0284
30950W        W46759  12.176   8.797  10.591  0.0850  0.1104 -0.2542
30951W        W46760   5.944  11.121  12.981 -0.1034  0.1406 -0.3324
30952W        W46761  13.221   6.192   5.053  0.4736  0.4912  0.0821
30953W        W46762  15.833  13.894   1.163 -0.1209 -0.0688  0.1950
30954W        W46763  15.428  16.559   5.140 -0.2791  0.1850  0.3318
30955W        W46764   9.711   5.304  12.049  0.4729  0.0536  0.0339
30956W        W46765   6.720  10.220  11.046 -0.2868  0.0532 -0.0980
30957W        W46766   2.318   2.734   3.900  0.1228 -0.1889  0.0135
30958W        W46767  13.856   9.139   3.037 -0.1031  0.2646  0.2815
30959W        W46768   3.670  10.204  14.604 -0.0209  0.3881  0.3211
30960W        W46769  13.504  13.475   2.152  0.0744 -0.4174 -0.0130
30961W        W46770  11.261   5.743  12.447 -0.1437  0.1120 -0.1209
30962W        W46771   1.934  15.694  13.710 -0.0764 -0.4208  0.4260
30963W        W46772  18.062  14.330   2.661  0.1348 -0.0241  0.3338
30964W        W46773   4.240  16.398  14.174  0.2234 -0.0897 -0.0667
30965W        W46774  17.307   8.409  11.399 -0.3433  0.2031  0.1880
30966W        W46775   6.552  12.338   9.653 -0.0473 -0.1116 -0.2302
30967W        W46776   6.221   6.161  10.863 -0.0619 -0.0704  0.0896
30968W        W46777   0.940  13.680   1.894 -0.0209  0.2819  0.0007
30969W        W46778   5.842  17.172  12.266  0.0411 -0.1279 -0.3937
30970W        W46779  17.584  19.037   1.160 -0.3855 -0.0221  0.0635
30971W        W46780  12.201   5.238   3.490 -0.3749 -0.1281  0.0923
30972W        W46781   8.253   4.457  10.463 -0.1772  0.1318 -0.1163
30973W        W46782   8.151   8.395  10.720  0.2491 -0.0908 -0.0698
30974W        W46783  19.099  17.868   5.437  0.0371 -0.1244  0.1411
30975W        W46784  16.868   0.416   0.021  0.0580  0.3716 -0.3197
30976W        W46785   4.945  10.624  11.662 -0.0876 -0.0233 -0.0005
30977W        W46786   6.375  14.509  13.371 -0.4358  0.0306 -0.0768
30978W        W46787   7.309  14.031   2.111  0.2727 -0.0190 -0.0313
30979W        W46788   5.709   0.258  10.609 -0.1734 -0.1527  0.1324
30980W        W46789  10.567  18.369   1.437 -0.1621  0.2007  0.0052
30981W        W46790  11.218   6.455  12.962  0.3596  0.1549  0.1558
30982W        W46791   4.464  13.244  13.026  0.2054 -0.1702 -0.0309
30983W        W46792   5.489  17.485   4.805 -0.2717 -0.1363  0.2063
30984W        W46793   3.337  12.688   2.354 -0.1823 -0.0513  0.0308
30985W        W46794  11.191   6.134   2.636 -0.4451 -0.0560  0.4996
30986W        W46795   0.340  18.092  10.314 -0.1243 -0.1921 -0.3891
30987W        W46796   3.020  14.231   4.176  0.2152  0.0237  0.0922
30988W        W46797  15.857   5.470  12.570 -0.1271 -0.0339 -0.0262
30989W        W46798   5.642   3.167   0.356 -0.1308 -0.0394  0.0274
30990W        W46799   4.493   0.131   4.441 -0.1468 -0.1878 -0.0650
30991W        W46800  11.663  13.234  15.024  0.1215  0.0277  0.2731
30992W        W46801  11.370  16.691   1.444 -0.1591  0.2759 -0.0231
30993W        W46802  16.306  12.939   2.348  0.2100 -0.0187  0.1333
30994W        W46803   2.212   2.107  11.627 -0.2795 -0.0266 -0.1952
30995W        W46804  17.411  12.885  15.191  0.2494 -0.1684  0.0822
30996W        W46805   0.425  15.801  12.083 -0.3128  0.2035 -0.1801
30997W        W46806   9.822   5.742   1.716  0.4813 -0.1616  0.0038
30998W        W46807  14.191   4.757  10.588 -0.0220 -0.2688  0.0363
30999W        W46808  15.278   9.980  13.014  0.0106  0.0155 -0.2719
31000W        W46809   8.244  12.201   0.266 -0.2193  0.3102  0.0000
31001W        W46810  18.121  14.112  13.386 -0.1636 -0.0481  0.1168
31002W        W46811   4.140   9.216   5.255 -0.0905 -0.0461 -0.2680
31003W        W46812   7.920  16.732  12.873  0.2266  0.1498  0.0459
31004W        W46813  10.810   1.635   1.284 -0.3144 -0.1844 -0.0148
31005W        W46814  14.848   5.904  10.705 -0.1466 -0.3613  0.0531
31006W        W46815  12.307   9.823  14.521 -0.2703 -0.1462 -0.1565
31007W        W46816   9.927  16.151  12.377  0.5736  0.2008  0.2575
31008W        W46817  14.089  13.417   0.736 -0.2816 -0.2774 -0.0295
31009W        W46818   1.203  12.263   2.729  0.1616 -0.3122  0.0751
31010W        W46819   7.141   8.373  11.642  0.3204 -0.0581 -0.0042
31011W        W46820   1.375   5.852   2.806 -0.0328  0.2376 -0.1281
31012W        W46821  17.489  10.057  14.479 -0.2658  0.0164  0.3459
31013W        W46822   0.955  11.350  13.251  0.0629  0.2929  0.1142
31014W        W46823  16.113  13.334  12.407  0.0084  0.2049 -0.0579
31015W        W46824   6.344   7.016   2.370 -0.0890 -0.2028  0.0113
31016W        W46825  16.565  16.875  14.963 -0.0811  0.1081 -0.4909
31017W        W46826  12.862   2.399   2.538  0.1174 -0.0031  0.1367
31018W        W46827   9.117  14.382   3.670  0.1231  0.0922 -0.0478
31019W        W46828   4.721  16.376   4.920  0.0118 -0.2049 -0.0344
31020W        W46829  16.919   7.286   2.660  0.0984  0.3967 -0.0628
31021W        W46830   3.786  18.438   0.290 -0.1186 -0.0969 -0.1529
31022W        W46831   9.534   1.132  11.313 -0.0511  0.0788  0.2201
31023W        W46832   3.142   8.411  11.547  0.3865 -0.0993 -0.0753
31024W        W46833  18.079   6.563  12.372 -0.0598  0.1775  0.1062
31025W        W46834  15.458  13.921   2.091  0.1708  0.0942 -0.0421
31026W        W46835   6.719  18.148   1.716  0.0394 -0.1676 -0.0270
31027W        W46836  13.467   9.959   3.308 -0.4096 -0.1221 -0.5529
31028W        W46837   0.718  17.817  14.027  0.2309  0.0714 -0.2503
31029W        W46838  17.694   8.342   3.053 -0.0574 -0.2008  0.0110
31030W        W46839   8.266   6.880   0.128 -0.2430 -0.0662 -0.1462
31031W        W46840   2.199  17.426   0.272 -0.1281  0.1642  0.1119
31032W        W46841   0.727   5.095   0.356  0.2722  0.0370 -0.0456
31033W        W46842   4.218  18.596  13.826 -0.0536  0.1897 -0.2666
31034W        W46843   9.407   4.256  12.805 -0.3800  0.0862 -0.0721
31035W        W46844  12.644   3.802  11.564  0.0103 -0.0509 -0.1630
31036W        W46845   9.683   7.957  12.072  0.0855  0.2491 -0.0498
31037W        W46846   1.262   7.759   2.281  0.1180 -0.0359  0.0249
31038W        W46847  16.195   0.610  11.298 -0.1750 -0.0691  0.2715
31039W        W46848   1.242   1.935  14.229  0.4185 -0.2493  0.0979
31040W        W46849  12.053  15.669   3.357 -0.0537 -0.2073 -0.1516
31041W        W46850   0.508   9.752  10.286 -0.0221 -0.0631  0.0050
31042W        W46851   0.766  18.380  12.567 -0.4565 -0.1547  0.0293
31043W        W46852  10.251  10.851   4.472  0.3431  0.1063 -0.1545
31044W        W46853  11.967  16.190  12.124 -0.1651 -0.1432  0.1668
31045W        W46854  11.660  13.921  12.288 -0.0403 -0.2538  0.0101
31046W        W46855   9.115   8.269   0.677 -0.1393 -0.3226  0.2209
31047W        W46856   8.424  13.419   3.073 -0.3630  0.2510  0.2979
31048W        W46857   0.607  17.318   4.202 -0.0597 -0.2234 -0.1982
31049W        W46858  13.410  14.081  12.641 -0.4473  0.2722 -0.1659
31050W        W46859   1.722  10.936   4.610 -0.0467 -0.0818  0.2216
31051W        W46860  11.152   2.349   2.443 -0.0484  0.1851  0.1187
31052W        W46861   8.788  13.163  10.785 -0.1179 -0.1125 -0.2796
31053W        W46862   5.722   4.142  14.166 -0.0498  0.0292 -0.1789
31054W        W46863   2.375   9.875   4.653 -0.0993 -0.0338 -0.1081
31055W        W46864  15.312  12.025  10.640  0.1784 -0.3661  0.0746
31056W        W46865  10.033   5.924   3.576 -0.0042 -0.1534 -0.1790
31057W        W46866  11.537  18.163   0.500  0.0715 -0.3454  0.0773
31058W        W46867  17.184   6.574  12.839 -0.1785  0.1089  0.3625
31059W        W46868  16.469   9.514   1.561  0.0224 -0.0926  0.1392
31060W        W46869  10.730   0.806   1.903 -0.2099 -0.0612 -0.1141
31061W        W46870  15.669   5.188  14.474  0.0673 -0.0175  0.2303
31062W        W46871   5.363  11.978   2.850  0.1656 -0.0673  0.2424
31063W        W46872   7.162  17.970   0.005 -0.2201  0.5870  0.0223
31064W        W46873  12.127   6.858  12.672  0.1750 -0.0352  0.0469
31065W        W46874   0.795   7.574  13.744 -0.0576  0.2399 -0.0620
31066W        W46875   9.369   8.779   3.385  0.1391 -0.0494  0.1676
31067W        W46876   8.032   5.059   1.279  0.1087 -0.1914  0.2277
31068W        W46877  12.392   1.594   5.541  0.1469 -0.0718 -0.1032
31069W        W46878  10.302   7.676  14.987  0.1435  0.1154  0.0352
31070W        W46879  10.203  16.346  13.601  0.2815  0.4539  0.0076
31071W        W46880  14.859  11.368  14.708 -0.2171 -0.1017  0.0714
31072W        W46881   5.960   1.493  15.178 -0.1174  0.0978 -0.2752
31073W        W46882   0.704   8.640   3.689  0.2515  0.0858 -0.2604
31074W        W46883   9.699   5.200  14.184  0.2847  0.2621 -0.1190
31075W        W46884   0.533  14.994   1.473  0.0222 -0.0823 -0.1924
31076W        W46885   0.756  14.538  12.851  0.4061 -0.0182 -0.3599
31077W        W46886  14.619  19.012   5.411  0.0878 -0.1393  0.1061
31078W        W46887   9.537  17.766   0.907  0.0362  0.2591  0.0554
31079W        W46888   7.517  12.389   2.190  0.1683 -0.1814 -0.2942
31080W        W46889  12.366  13.425   0.387 -0.1886 -0.3520  0.0450
31081W        W46890  14.776  12.758   0.622 -0.1490  0.0277  0.1579
31082W        W46891  10.576   6.830   2.456 -0.0163  0.2376 -0.0529
31083W        W46892  16.167   5.684  10.592  0.1125 -0.0362  0.0848
31084W        W46893  14.107  12.733   2.601 -0.1802  0.0529 -0.0721
31085W        W46894  15.595   9.178  14.751 -0.0949 -0.2032 -0.2096
31086W        W46895  11.702   9.039  12.152 -0.0136  0.2893  0.1018
31087W        W46896   9.576  13.919   5.128 -0.4192 -0.2027  0.1969
31088W        W46897   4.088   8.650   2.201  0.2419  0.1103 -0.0790
31089W        W46898   4.973   0.528  15.006 -0.1127 -0.0664 -0.0119
31090W        W46899   4.395   9.908   0.485 -0.2515 -0.2761  0.0067
31091W        W46900  16.610   1.039   0.245  0.0946 -0.3662  0.2288
31092W        W46901   4.359  14.501  13.949  0.1439  0.0815  0.2018
31093W        W46902  16.979   3.444  14.303  0.1383 -0.3648  0.1792
31094W        W46903  11.484  11.815  14.419 -0.0673  0.4107 -0.0064
31095W        W46904   9.881   2.275  13.074  0.2016  0.1746  0.0522
31096W        W46905  17.274  18.635   1.992 -0.1129 -0.0195  0.0756
31097W        W46906   2.475   6.770   4.420  0.0001  0.0108  0.2023
31098W        W46907   9.688   4.784  12.201  0.1117 -0.1779  0.0678
31099W        W46908   3.669   4.014  14.783 -0.0301 -0.3320  0.1645
31100W        W46909   9.136  16.073   4.952  0.0950  0.0773  0.2692
31101W        W46910   1.619   4.256  14.564  0.5127  0.0211 -0.2529
31102W        W46911  19.050   5.174   2.012  0.1531 -0.1959  0.1060
31103W        W46912  16.041   4.127   2.765  0.2545  0.0343 -0.2226
31104W        W46913   8.751  11.044   4.849 -0.0597  0.3416 -0.1353
31105W        W46914  17.121   9.123  14.931  0.1644  0.2881 -0.0083
31106W        W46915  13.410  17.750  13.794  0.2629  0.2608 -0.0147
31107W        W46916  16.201   9.487   2.982  0.1640  0.2393 -0.0473
31108W        W46917   1.667   4.657  13.251  0.1332 -0.3423  0.0781
31109W        W46918   6.543   0.049   1.643 -0.2777 -0.1983  0.0758
31110W        W46919  10.284  14.891   1.687  0.2939 -0.0384  0.1841
31111W        W46920   4.637  18.333  12.983  0.1627 -0.0225 -0.1252
31112W        W46921   4.764   3.661   0.166 -0.0571  0.3360  0.0075
31113W        W46922   6.419   9.429   0.031  0.0332 -0.2234  0.2609
31114W        W46923   6.945  11.090  13.777  0.0713  0.3608  0.1446
31115W        W46924  15.510   3.993   5.260  0.1358  0.4175  0.2917
31116W        W46925   1.347  16.999   4.028 -0.3432  0.1399 -0.5144
31117W        W46926   0.087   4.652   3.874 -0.2265 -0.6518  0.2205
31118W        W46927   2.030  15.238  14.714  0.1274  0.1213  0.5019
31119W        W46928  12.100   7.282  12.290 -0.1191 -0.4089  0.2421
31120W        W46929  15.740  13.763  10.099 -0.0035  0.3870  0.0546
31121W        W46930  10.947  15.423  14.459 -0.0291 -0.1457 -0.1101
31122W        W46931  12.874  18.521  12.020  0.1467  0.1177  0.0323
31123W        W46932   2.487   5.868  14.018 -0.1534  0.0672 -0.2408
31124W        W46933  14.826   9.579   0.613  0.1403 -0.0161  0.0136
31125W        W46934   8.926   9.802  13.988  0.2341  0.0340 -0.1709
31126W        W46935   7.157   6.164  13.064  0.0495 -0.3068  0.1727
31127W        W46936   2.378  12.576   4.133 -0.1141 -0.0265  0.0057
31128W        W46937   3.158  11.382  10.624  0.1688 -0.1101 -0.2434
31129W        W46938  14.015  10.171  14.825 -0.0342  0.0920  0.4415
31130W        W46939  15.590   5.257   0.228  0.4245 -0.1970 -0.1072
31131W        W46940  18.956   4.759  12.069 -0.0925  0.0226 -0.1194
31132W        W46941   3.393  17.641  11.582  0.5599  0.1022 -0.0072
31133W        W46942   2.477  17.963   5.576 -0.5559  0.1959  0.0584
31134W        W46943   6.270  13.392   0.702 -0.1784 -0.0981 -0.0787
31135W        W46944  18.531   2.206   0.638  0.1878  0.0873  0.1609
31136W        W46945  17.143   0.787  13.036 -0.3649  0.0937  0.0670
31137W        W46946  18.956   0.736  12.770 -0.0089  0.0496 -0.0390
31138W        W46947   6.763  17.695  14.979  0.0104 -0.0847 -0.1961
31139W        W46948   2.766  19.009   1.813  0.0199 -0.4665 -0.0118
31140W        W46949   5.798   4.093   4.759  0.2075  0.1357 -0.0656
31141W        W46950  16.431   0.029  11.889  0.1016  0.0134 -0.1660
31142W        W46951  14.578   8.444   2.966  0.0840 -0.1268  0.1677
31143W        W46952   2.635  18.895   3.770 -0.2051 -0.0838 -0.0421
31144W        W46953  15.606  16.547  14.215 -0.2791 -0.0022  0.0567
31145W        W46954   8.903   3.556  12.424  0.0431 -0.1464 -0.1114
31146W        W46955  14.436   3.750  14.740  0.0824 -0.1646 -0.0105
31147W        W46956   2.400  13.146   3.461  0.2130 -0.0406  0.0042
31148W        W46957   7.287  16.040  13.004  0.3068  0.0109 -0.1230
31149W        W46958  18.747  18.285   4.002 -0.1087  0.2341 -0.2027
31150W        W46959   4.754   1.221   2.339  0.2161  0.1117 -0.0142
31151W        W46960   7.614  12.038  12.895 -0.0776 -0.2580  0.3538
31152W        W46961  15.366   2.805   5.298  0.2064 -0.0541  0.3887
31153W        W46962   3.308   9.136   3.378  0.3183  0.1821 -0.2351
31154W        W46963  13.117   2.126   0.650 -0.1295 -0.1814 -0.0283
31155W        W46964  18.376   3.793   1.129 -0.2397 -0.0610 -0.2150
31156W        W46965   1.064   7.195   3.585 -0.0256 -0.1382 -0.0053
31157W        W46966  10.513   4.584   3.679  0.0219  0.1290  0.1938
31158W        W46967  10.013   4.160   1.561  0.0319 -0.1094 -0.1086
31159W        W46968  16.570   9.320   0.370  0.0254  0.1360 -0.2327
31160W        W46969  14.561   2.713  14.777  0.4024  0.2770  0.0214
31161W        W46970   7.046   5.524   0.400  0.1983  0.1247 -0.2714
31162W        W46971   0.107  17.907   3.684 -0.1831 -0.2856 -0.0342
31163W        W46972  11.705   8.422   3.635  0.1250  0.4422 -0.1009
31164W        W46973   7.895   9.044  11.653  0.0362  0.3321  0.0313
31165W        W46974   4.496  18.777   1.365  0.1409 -0.3546 -0.3621
31166W        W46975  12.399   1.089   0.854  0.0892  0.1418  0.4112
31167W        W46976  11.057   4.376  14.648 -0.0182 -0.0171 -0.4295
31168W        W46977  14.420  11.069   4.127 -0.3144  0.2523  0.0576
31169W        W46978  18.017  10.332  11.821  0.2613 -0.0680 -0.0732
31170W        W46979   2.875  18.345   0.765 -0.1439 -0.0762 -0.1398
31171W        W46980  16.294   2.383  12.312  0.0212 -0.1263 -0.0612
31172W        W46981  16.213   5.197   0.294  0.3705 -0.2164  0.1202
31173W        W46982  18.850   9.359   2.695  0.2093  0.3856 -0.3678
31174W        W46983  14.057   3.446  14.868 -0.3772 -0.0485 -0.1004
31175W        W46984   9.321  14.773   2.172 -0.0459 -0.0286 -0.1771
31176W        W46985  15.622  11.943   4.213 -0.0412  0.1790  0.1819
31177W        W46986  10.499   9.751   0.533  0.0005  0.3657  0.2367
31178W        W46987  18.514   3.684  13.121  0.1610 -0.0454 -0.3957
31179W        W46988   8.972   4.169  13.003 -0.2626 -0.1223  0.1454
31180W        W46989  12.790  16.862   4.944 -0.1498  0.1961  0.0177
31181W        W46990   6.446   9.985   3.228  0.0662 -0.0778  0.0772
31182W        W46991  14.062   5.463   2.543 -0.0811  0.1931  0.2692
31183W        W46992  11.389  10.448  14.574 -0.2890 -0.0979 -0.1137
31184W        W46993   3.110  15.170  10.390  0.1627 -0.2196 -0.1324
31185W        W46994  11.539   7.252   3.065 -0.0417 -0.0757 -0.1414
31186W        W46995  15.804  18.428  11.481  0.1485  0.3009 -0.0086
31187W        W46996  14.096   4.217   4.743  0.1448 -0.2931  0.0981
31188W        W46997   6.108   5.791   1.102  0.0604  0.0508  0.2794
31189W        W46998   6.057   5.352   1.785  0.5397  0.2331  0.1255
31190W        W46999  10.783   8.934   3.729  0.0661 -0.4099  0.3756
31191W        W47000   7.916   1.517   4.137 -0.3229 -0.2173  0.1100
31192W        W47001   7.417   5.313  11.479  0.0112 -0.0365  0.0636
31193W        W47002   9.218  16.379  11.235  0.1842 -0.1714 -0.0276
31194W        W47003  13.161   1.116  11.018  0.0948  0.0502  0.1622
31195W        W47004   3.236   4.422  12.910 -0.3781  0.1495 -0.0766
31196W        W47005  11.436   1.875   0.934 -0.0994  0.4162 -0.0881
31197W        W47006   7.829  17.544   1.261 -0.0069 -0.2153  0.7080
31198W        W47007  10.949  15.082  10.456  0.3134 -0.0270  0.0499
31199W        W47008   9.520   0.394   2.228  0.1113  0.1415 -0.0163
31200W        W47009  14.119   7.029   1.196 -0.2399  0.1128  0.1294
31201W        W47010   6.532  15.579  14.797  0.2480 -0.4491  0.2428
31202W        W47011   9.950  12.913  14.473  0.2504  0.0038  0.0098
31203W        W47012  11.537  11.906  11.248 -0.4133 -0.1534 -0.0402
31204W        W47013   7.220  16.934   4.361 -0.0560  0.0118  0.2430
31205W        W47014   8.376  14.830   0.921 -0.0564 -0.2681  0.2971
31206W        W47015  17.310   7.371   3.215  0.0140  0.1463 -0.0761
31207W        W47016  14.190  16.032  12.747  0.1590  0.0179 -0.3226
31208W        W47017  10.551  16.648   1.972 -0.1592  0.1423 -0.4131
31209W        W47018   3.953  18.481  12.244 -0.0587 -0.4297  0.0119
31210W        W47019   2.355   1.479  14.050  0.3162 -0.0844 -0.1753
31211W        W47020  15.608  14.209   2.569 -0.0264 -0.0134  0.0516
31212W        W47021   1.922   9.213   0.907  0.1592 -0.0828  0.0305
31213W        W47022   2.506   4.806   0.289  0.1202 -0.1172 -0.0493
31214W        W47023   9.847  14.943   5.020 -0.2509 -0.0055 -0.1303
31215W        W47024   3.397   0.314   1.451 -0.1732 -0.0080 -0.0555
31216W        W47025   7.333   6.559   3.053  0.5449  0.0555 -0.2662
31217W        W47026  18.202  10.326   0.609  0.0688  0.4063  0.0654
31218W        W47027   8.598  17.764   1.745 -0.0565  0.2339 -0.1707
31219W        W47028  14.751  11.603   4.767  0.1662  0.1658  0.2756
31220W        W47029  16.090  11.358   1.300 -0.1246  0.0133 -0.0994
31221W        W47030  11.917  17.884   5.002  0.1866 -0.1995 -0.2135
31222W        W47031   5.532   3.223  14.566  0.2922  0.1268 -0.1961
31223W        W47032  14.854  11.489  15.199  0.0233  0.0684  0.0364
31224W        W47033  11.611  16.411   5.478  0.1528  0.1542  0.5792
31225W        W47034   1.842  11.397   4.724 -0.0308 -0.3827  0.3528
31226W        W47035  16.972   0.712  12.456  0.2922 -0.1795 -0.1147
31227W        W47036  10.322   4.469   1.766  0.2625 -0.0180  0.2054
31228W        W47037   8.418  11.125   0.262 -0.4135  0.2974  0.1589
31229W        W47038   9.420   0.082   2.587  0.1857 -0.2873  0.1861
31230W        W47039   1.032   4.883  14.084  0.1861 -0.2445  0.4203
31231W        W47040  14.020   1.150   4.593  0.1102 -0.0033  0.0134
31232W        W47041  13.995  13.563  13.448 -0.3403  0.0351 -0.2227
31233W        W47042   8.402   4.377  12.714  0.2210 -0.0396  0.1869
31234W        W47043   0.349  16.910   2.044 -0.1815  0.0831  0.0159
31235W        W47044  16.155   4.461  12.689  0.1611  0.2979  0.0062
31236W        W47045   7.969   5.840   3.734 -0.0815 -0.0704  0.5130
31237W        W47046  14.333   4.399  13.909 -0.0662 -0.1552  0.1668
31238W        W47047  14.159   2.909  13.464  0.1411 -0.0964 -0.2288
31239W        W47048  15.000   7.943  15.211 -0.0645 -0.1527 -0.3568
31240W        W47049   8.541   8.621  12.054  0.0125  0.5164 -0.0469
31241W        W47050   7.841   6.612  14.357  0.3395  0.0101  0.0596
31242W        W47051  10.626  17.378   0.475  0.1830 -0.0511  0.0406
31243W        W47052   6.732   0.706   5.143  0.0969  0.1907 -0.1395
31244W        W47053  16.863  18.555  11.404 -0.0417  0.2162 -0.2034
31245W        W47054  14.636   1.191  13.302  0.0507 -0.0126  0.1549
31246W        W47055   5.782   9.348   2.679 -0.2305  0.0451  0.2122
31247W        W47056   4.312  14.971   4.492 -0.0352 -0.0469  0.2296
31248W        W47057  12.637   2.562   5.172 -0.2345 -0.1791 -0.1345
31249W        W47058   8.182   2.406  11.486  0.0575  0.0516  0.0561
31250W        W47059   0.225  14.034   3.109 -0.1417 -0.3704 -0.3062
31251W        W47060  12.329  13.110   2.796  0.2803  0.0265  0.2606
31252W        W47061   6.397  19.083  12.536  0.4194  0.5069  0.3532
31253W        W47062  11.740   9.178   3.719  0.1312 -0.1622  0.0460
31254W        W47063  16.401   8.941   4.620 -0.2567 -0.0328  0.1242
31255W        W47064   5.822   8.617   0.789 -0.5320 -0.0113  0.0330
31256W        W47065  15.347   1.288   1.621 -0.1242 -0.0659 -0.4112
31257W        W47066   2.054  10.673   0.646 -0.0056 -0.2054 -0.2312
31258W        W47067   8.678  18.766  11.015 -0.3531  0.1505  0.0749
31259W        W47068   2.445   3.275  14.211  0.0091 -0.2214 -0.0935
31260W        W47069   6.836  17.524   1.822 -0.0339 -0.1732  0.0305
31261W        W47070  17.816   5.652   0.576  0.2899 -0.2268  0.1446
31262W        W47071   6.673  19.111  14.538 -0.0530 -0.0889 -0.1302
31263W        W47072   7.404  10.758  10.529 -0.0353  0.1837  0.1028
31264W        W47073   3.260  16.483  11.724 -0.0223 -0.3212  0.0889
31265W        W47074  17.767  15.802   2.205 -0.0728  0.5125 -0.1035
31266W        W47075  15.476  16.469   5.710  0.1579  0.1644  0.1439
31267W        W47076   6.300   8.543  10.398 -0.0001  0.1256  0.1727
31268W        W47077  14.711   7.647   0.906 -0.0954 -0.2408  0.1835
31269W        W47078   3.775  12.021  13.435  0.0050  0.4390  0.2424
31270W        W47079   6.603   8.100  14.855 -0.1091  0.0835 -0.2147
31271W        W47080  17.389   8.847   3.011 -0.1008  0.1686 -0.1149
31272W        W47081   7.827  13.468  11.104  0.0989  0.1043  0.1624
31273W        W47082  15.494   8.133   0.182 -0.0420  0.0271 -0.0409
31274W        W47083  15.844  11.908   2.308 -0.0864 -0.0061 -0.1783
31275W        W47084  14.753   8.177   4.015  0.0756 -0.2194  0.2067
31276W        W47085   7.241   4.514  15.003 -0.1727  0.1670 -0.1836
31277W        W47086  16.219  15.684   2.693 -0.0442  0.0629 -0.2237
31278W        W47087   4.767   1.165  14.121 -0.2204 -0.3585 -0.0980
31279W        W47088   4.276   3.409  12.880  0.0541  0.0981  0.0496
31280W        W47089  14.380   7.004   4.058 -0.0756 -0.0200  0.1033
31281W        W47090  16.777  17.357  15.057 -0.0870  0.1810  0.3360
31282W        W47091  16.979  13.097   0.348  0.0221  0.1067 -0.2286
31283W        W47092  17.726   0.008  10.911 -0.1035 -0.0814 -0.0606
31284W        W47093   2.619   7.144  10.151  0.0099 -0.1472 -0.0786
31285W        W47094   5.774   6.777  12.048  0.2437  0.3364  0.1162
31286W        W47095   4.571  17.244  10.334  0.1816  0.1810 -0.0044
31287W        W47096  17.183  14.745   0.589 -0.0362 -0.1065  0.0725
31288W        W47097   1.758  11.367  13.626  0.2261 -0.0777 -0.2337
31289W        W47098  17.318   5.535  13.827 -0.0597  0.0133  0.3438
31290W        W47099   3.160  18.639   1.625 -0.0014  0.1990  0.2471
31291W        W47100  11.991  12.626  11.839  0.2467  0.2202 -0.0844
31292W        W47101   5.279   9.639   0.015 -0.2865  0.2030  0.1677
31293W        W47102   6.256   6.481  14.145  0.1193 -0.2721  0.1585
31294W        W47103  14.538   4.976   1.242 -0.0711 -0.2046 -0.1654
31295W        W47104   6.876   6.418  11.315 -0.1932 -0.0683 -0.2197
31296W        W47105   2.006   5.582  12.449 -0.0396 -0.0411  0.1187
31297W        W47106  13.258   5.045  10.174 -0.1180  0.1288 -0.0938
31298W        W47107  14.028  11.088  14.533 -0.1939  0.0630 -0.1635
31299W        W47108  15.780   2.935  11.326  0.1088  0.0889 -0.2891
31300W        W47109   1.546   7.262   0.510  0.0043 -0.2317 -0.0799
31301W        W47110  15.864  10.349   1.853  0.1709 -0.2334 -0.1680
31302W        W47111  10.070  14.454  14.701  0.1294 -0.0173 -0.3312
31303W        W47112   6.301   0.226   2.995  0.0751  0.1763  0.1459
31304W        W47113   9.332  11.641  12.360  0.0905  0.1524 -0.0472
31305W        W47114  10.241  16.731   3.510 -0.0323  0.0025 -0.2712
31306W        W47115   4.818  10.876   1.343 -0.0824  0.4538 -0.2375
31307W        W47116  14.186  10.911  14.093 -0.2263  0.2667 -0.0711
31308W        W47117   4.089   6.045  11.265  0.1947  0.0123 -0.2364
31309W        W47118  17.105  13.759   3.006 -0.3310 -0.1815  0.1596
31310W        W47119   0.621   7.637  11.887  0.1465 -0.2375 -0.4037
31311W        W47120  10.249  14.550  11.506 -0.2758 -0.2968 -0.1992
31312W        W47121   0.703   2.006   3.903  0.2393 -0.2245 -0.1161
31313W        W47122   2.870  12.499   1.660 -0.1094  0.3148  0.0524
31314W        W47123  11.992   7.998   5.448  0.2660 -0.0145  0.3702
31315W        W47124   5.433  11.755  15.042  0.0815 -0.1900  0.0558
31316W        W47125   8.403  11.789  10.847 -0.0856  0.1490  0.1643
31317W        W47126   3.458   2.672  11.640  0.0229  0.0673 -0.2060
31318W        W47127   2.643   8.780  12.803 -0.0804  0.3096  0.1365
31319W        W47128  14.470   7.826   4.520 -0.3396  0.1007 -0.1876
31320W        W47129   3.334  13.189   9.590 -0.0283  0.0817  0.1673
31321W        W47130  17.361   4.284   5.444  0.3565 -0.0780 -0.1586
31322W        W47131  11.353  11.081  13.352  0.4824  0.5016  0.0681
31323W        W47132  15.389   2.392   2.534 -0.0603  0.1692  0.2018
31324W        W47133   5.066  16.843   1.723 -0.1079  0.0369  0.0426
31325W        W47134  10.731   7.714  10.677  0.0692  0.0765 -0.0748
31326W        W47135   7.981   0.454   5.237 -0.0867  0.2891 -0.0532
31327W        W47136  17.020   9.282   2.181 -0.0604  0.0201  0.2733
31328W        W47137  14.004  16.043   0.819 -0.1250  0.0372 -0.0297
31329W        W47138   5.733  18.509   2.237  0.1138 -0.0985  0.0989
31330W        W47139   4.340   3.889   0.019 -0.0445 -0.1875  0.3168
31331W        W47140   5.113   6.211   2.251 -0.0078  0.0390  0.0148
31332W        W47141   8.591  13.164   0.573 -0.1206 -0.1846  0.3115
31333W        W47142  18.980   6.448   1.956 -0.1813  0.1074 -0.0721
31334W        W47143   7.093  16.154   0.215 -0.2051 -0.0187  0.3363
31335W        W47144   0.549  16.496   1.818  0.0266  0.0262  0.1528
31336W        W47145  12.319  13.332  11.316 -0.2170  0.0974 -0.1995
31337W        W47146  15.091   1.669   1.400  0.1931  0.2948  0.3437
31338W        W47147  16.739   7.275   0.231  0.0960  0.6787 -0.1544
31339W        W47148  17.023   4.933   6.148 -0.1548 -0.0005  0.2956
31340W        W47149  12.568  17.241   4.727  0.2245 -0.0539 -0.0282
31341W        W47150   4.820  11.585  14.100 -0.1218 -0.0001 -0.0017
31342W        W47151  16.569  10.443  12.396  0.1658  0.2360  0.0581
31343W        W47152  14.592  14.219  13.422 -0.0167 -0.0053 -0.0599
31344W        W47153  17.696   2.787  13.154  0.2205  0.1487 -0.0092
31345W        W47154  12.739   5.420   3.241  0.2256 -0.0109  0.2041
31346W        W47155  16.607   0.909  12.688  0.0509 -0.0364 -0.1379
31347W        W47156  10.103  16.241   5.045 -0.2920  0.0548  0.0758
31348W        W47157  13.843   4.405   3.062 -0.0153 -0.2496  0.1112
31349W        W47158  12.627  18.060  12.848 -0.1188 -0.1365  0.0453
31350W        W47159   2.609   6.435   2.578 -0.1272  0.0005 -0.0723
31351W        W47160  12.784   9.110   0.626 -0.2125 -0.2593  0.2115
31352W        W47161   7.839   2.122   0.172  0.0903  0.2798  0.3326
31353W        W47162  18.207  19.151   9.588 -0.3323 -0.0244  0.1537
31354W        W47163  13.238   7.884  14.006  0.1275  0.2083 -0.5101
31355W        W47164  18.700   2.887   1.498  0.1033  0.3338  0.1382
31356W        W47165   3.608   8.041   4.757 -0.1639 -0.1549  0.3178
31357W        W47166  14.935   7.633   4.286  0.0074 -0.0515  0.3485
31358W        W47167  12.087  14.636  14.993  0.3805 -0.5315  0.2054
31359W        W47168   1.343   1.153  13.639  0.1011  0.0181  0.2677
31360W        W47169   2.289  10.034  10.131 -0.1875  0.3379  0.2068
31361W        W47170  10.719  10.660  14.699 -0.1571 -0.1757 -0.1090
31362W        W47171   0.707   4.737  12.238 -0.3276 -0.3187  0.2279
31363W        W47172  14.992   7.435   1.502 -0.1495  0.1054 -0.1463
31364W        W47173  15.029   5.823   1.481 -0.0798  0.0889 -0.0144
31365W        W47174   0.562   1.776  13.708 -0.1886 -0.2027  0.1676
31366W        W47175  12.078  14.639   6.152  0.0166  0.0089 -0.2924
31367W        W47176  17.171  18.648   4.563 -0.0341  0.4238 -0.0444
31368W        W47177  14.754  15.378   5.965 -0.0148 -0.0002 -0.0367
31369W        W47178  18.722  11.008  10.035 -0.1245 -0.0535 -0.2784
31370W        W47179   5.782   4.805  14.025 -0.1486 -0.2180  0.1156
31371W        W47180  11.236   3.539  12.708  0.1444  0.3448 -0.2104
31372W        W47181   1.152  14.460  11.321  0.3214  0.0069 -0.2151
31373W        W47182   2.893   0.027  13.183  0.2774 -0.0903  0.3295
31374W        W47183   6.705  17.549   9.728  0.2299  0.0076  0.3176
31375W        W47184   8.488   9.665  14.630 -0.3053  0.1327  0.0977
31376W        W47185  15.789   9.930  14.734 -0.2804  0.0779  0.1028
31377W        W47186  13.054   5.618  11.083  0.0337  0.0280  0.2475
31378W        W47187  11.677  13.692  10.943 -0.1046  0.1044 -0.2593
31379W        W47188  13.333  16.250   6.270 -0.0116 -0.0697  0.0550
31380W        W47189  14.643   6.622   2.668  0.1542  0.0270  0.3868
31381W        W47190   3.103   5.621   4.625 -0.3132  0.1804  0.0023
31382W        W47191  11.058   8.287   3.231  0.1700 -0.2318  0.1041
31383W        W47192  12.239  12.042   4.921 -0.3198 -0.1516 -0.1833
31384W        W47193   6.176  14.457   2.600 -0.0202  0.2518  0.5250
31385W        W47194  12.734   0.354  11.645 -0.0037  0.0493 -0.3131
31386W        W47195  12.151  16.546   2.195 -0.3446 -0.0991 -0.0991
31387W        W47196   7.355  15.717   3.280 -0.0224 -0.0428 -0.1283
31388W        W47197   6.560   3.742   0.017 -0.0615  0.0045  0.0617
31389W        W47198  19.049  16.278  14.094  0.0321 -0.2147  0.1202
31390W        W47199  14.474  15.885  11.884 -0.2587  0.3397  0.0222
31391W        W47200  14.555  11.813  12.413 -0.2030  0.3120  0.2268
31392W        W47201   8.924   3.390  14.594  0.3981  0.1268 -0.0280
31393W        W47202   5.072   7.141   2.324  0.0988 -0.1193 -0.0025
31394W        W47203  10.584  15.850  14.327  0.0569  0.3008  0.1292
31395W        W47204   6.959  12.838   1.634 -0.0919  0.0968  0.0087
31396W        W47205   9.758  15.611  10.737  0.2987 -0.4134  0.1523
31397W        W47206   2.342  15.396   0.982 -0.0788 -0.0432  0.0742
31398W        W47207   1.296   3.945   1.447  0.2238 -0.1824 -0.1021
31399W        W47208   8.029  11.560  12.060  0.3097 -0.1610  0.1880
31400W        W47209  14.376   1.909   5.684 -0.0984  0.0052 -0.3419
31401W        W47210  19.054  15.344   9.881  0.2830  0.2871 -0.0468
31402W        W47211  13.272   6.649   3.590 -0.0873  0.0435 -0.0134
31403W        W47212   3.182   2.533   0.153  0.1186 -0.1004  0.2365
31404W        W47213   6.124   0.264   1.864 -0.2150 -0.2028 -0.3639
31405W        W47214   3.461  19.074  11.093 -0.6545 -0.2678 -0.1435
31406W        W47215  13.264   5.027   1.033 -0.1869  0.4298 -0.1473
31407W        W47216   3.910  13.128   4.819 -0.0499  0.0929  0.2654
31408W        W47217   3.441  19.117   3.370  0.1676  0.2139 -0.0984
31409W        W47218   2.580  14.299   4.395 -0.0053 -0.0074 -0.2287
31410W        W47219  17.371  17.868   0.902 -0.1741  0.3691 -0.0454
31411W        W47220  15.610   0.662   2.753 -0.2368 -0.3010  0.0962
31412W        W47221  12.537  12.215   0.258  0.0226 -0.0813 -0.1055
31413W        W47222   5.609  13.508   4.011 -0.0082 -0.1751 -0.3900
31414W        W47223  16.944  11.385  14.710 -0.2133  0.1301 -0.1813
31415W        W47224  18.493   2.367  14.958  0.2362  0.3969  0.0755
31416W        W47225   6.327   3.324   0.203 -0.0035 -0.2043  0.6709
31417W        W47226  18.578  18.911   2.325 -0.1408 -0.1504 -0.1469
31418W        W47227  16.706   3.265   3.082  0.2061  0.1608  0.2208
31419W        W47228  18.216  15.982  12.989 -0.4393 -0.0924 -0.0077
31420W        W47229   6.851   9.452  14.920 -0.2662 -0.0682 -0.2165
31421W        W47230   6.836   3.932   0.483 -0.0292  0.0765 -0.1708
31422W        W47231  13.201   3.588   3.194  0.1276  0.0691 -0.3341
31423W        W47232   0.976   1.870   4.753 -0.1912 -0.2502 -0.4883
31424W        W47233  12.873  11.615   1.501  0.4431  0.0187  0.4069
31425W        W47234   1.859   2.197  13.043 -0.0904 -0.0015  0.1616
31426W        W47235  18.069   5.417  10.056 -0.0277 -0.2036 -0.1234
31427W        W47236   7.253   3.214  14.725 -0.0397 -0.0822 -0.3612
31428W        W47237  11.347   7.971  10.969 -0.2656 -0.2064 -0.2294
31429W        W47238  12.871   2.729   3.296 -0.2110 -0.0501  0.1294
31430W        W47239  17.888   6.852   0.069  0.0534 -0.0206 -0.1429
31431W        W47240   6.583   4.964   0.944 -0.0581  0.1233 -0.1761
31432W        W47241  12.513   3.715  13.590 -0.0140  0.0054  0.0508
31433W        W47242  11.070  13.996   3.397 -0.0320 -0.1464  0.2642
31434W        W47243   6.527   6.927   2.919 -0.1998  0.3037  0.2681
31435W        W47244   6.211   3.285   3.082 -0.0304 -0.1902 -0.1251
31436W        W47245  11.809   5.612   2.800  0.1717 -0.0144 -0.0641
31437W        W47246   1.114   7.426  14.958 -0.1205  0.2911  0.1221
31438W        W47247   9.020  13.767   1.911 -0.0544 -0.3918  0.0375
31439W        W47248  10.808   2.259   2.811  0.2141  0.2481  0.1190
31440W        W47249  14.666   9.360   2.284 -0.3876 -0.0490  0.3703
31441W        W47250   0.502   9.865   1.867  0.1011 -0.1506 -0.4291
31442W        W47251  13.416   0.647   3.898 -0.4093 -0.0269 -0.0426
31443W        W47252  18.476   3.094  12.218  0.0865  0.0846 -0.0003
31444W        W47253  18.242   6.794   5.224  0.1824 -0.3865 -0.2361
31445W        W47254   1.565   3.777  14.670 -0.1263  0.0495  0.2925
31446W        W47255   6.377  17.517   0.089  0.0108 -0.2947  0.4521
31447W        W47256  13.999  10.294   5.826  0.1093 -0.0207  0.1657
31448W        W47257  17.813   6.693  10.550  0.0925 -0.1497 -0.1586
31449W        W47258  12.141   9.326  13.497  0.4490  0.0559 -0.2367
31450W        W47259   1.654  14.662  11.596  0.5366 -0.2817  0.0357
31451W        W47260   1.495   8.729  12.405  0.1743  0.4576  0.6221
31452W        W47261  14.736  13.722  12.142 -0.1046  0.1108 -0.2493
31453W        W47262  11.265   7.846   3.029 -0.1338 -0.3384  0.0067
31454W        W47263   0.743  13.514   4.042 -0.1403  0.1791 -0.3665
31455W        W47264   8.822   8.515   4.231 -0.0541 -0.2475  0.0852
31456W        W47265  17.498  15.699  13.171  0.1015  0.2394  0.2370
31457W        W47266  13.717   9.707  10.287 -0.0681 -0.4397 -0.0717
31458W        W47267  16.912  14.053  14.852  0.0238 -0.0546  0.5442
31459W        W47268  13.147   9.656  10.899  0.1622  0.0971 -0.0246
31460W        W47269  17.592  15.739  10.671 -0.1325  0.1675 -0.0058
31461W        W47270   3.822   8.950   4.906 -0.1488  0.1022  0.0614
31462W        W47271   3.543   0.752   0.143 -0.1295  0.2033  0.1074
31463W        W47272   5.913   7.962   0.882 -0.1026  0.1955 -0.1309
31464W        W47273  10.593   1.481   3.135 -0.0202 -0.0700 -0.3043
31465W        W47274  11.725  10.621   4.722  0.1758  0.0357  0.0649
31466W        W47275   4.512   1.055  10.794  0.1779  0.1349  0.1732
31467W        W47276  17.584   6.798  12.522  0.1333  0.0556 -0.1974
31468W        W47277  10.650   8.140  10.453  0.2165 -0.1492 -0.0149
31469W        W47278  14.541  14.157   2.340 -0.0713  0.0079 -0.2686
31470W        W47279  11.052   7.047  12.932 -0.1851  0.1073 -0.0812
31471W        W47280   3.338   3.600  12.583 -0.0701  0.0346  0.2474
31472W        W47281   8.860   1.175  12.825 -0.1217  0.1710 -0.0233
31473W        W47282  16.077  17.174  11.135  0.0067  0.2100 -0.0869
31474W        W47283  15.616   4.424   3.425  0.3324  0.3434  0.0497
31475W        W47284   6.427  13.849  11.825 -0.1929  0.4659  0.1420
31476W        W47285  13.790  17.272   4.018 -0.0679 -0.4069  0.1975
31477W        W47286  16.630   5.668  10.922  0.0666 -0.0210  0.3488
31478W        W47287  12.629   3.212   5.773 -0.1913 -0.0606 -0.1568
31479W        W47288   1.899   6.805  14.299 -0.3050  0.1606 -0.1088
31480W        W47289  15.967  18.916   3.652 -0.1346 -0.3751  0.3283
31481W        W47290   4.069   3.856  14.372  0.3005  0.4940 -0.1841
31482W        W47291   6.610  13.064  14.830  0.2017 -0.1621 -0.2008
31483W        W47292  12.873   6.072  10.613  0.2904 -0.0321 -0.0795
31484W        W47293   8.558   0.277   3.439 -0.0010  0.3999  0.1959
31485W        W47294  10.947  14.349   3.026 -0.3484 -0.1585 -0.0233
31486W        W47295   5.095  12.768  12.640 -0.2499 -0.1165 -0.5049
31487W        W47296   9.214   7.262   4.439  0.0212  0.1098  0.2539
31488W        W47297  16.961  11.525   5.172  0.3549 -0.0253 -0.1993
31489W        W47298  10.987  11.413  13.703  0.1741  0.0697  0.3257
31490W        W47299  14.911   5.823   0.922  0.2909 -0.0730  0.0619
31491W        W47300   2.238  15.261   4.674 -0.0740 -0.1124 -0.0845
31492W        W47301   5.222  15.239   4.503 -0.1387  0.0591 -0.1355
31493W        W47302   8.574   0.287  14.977  0.1553  0.3223  0.3105
31494W        W47303  16.146   8.429  13.994  0.1047  0.2206 -0.0782
31495W        W47304  13.297  12.376  10.762 -0.1129  0.0912  0.2507
31496W        W47305  17.528  13.576  11.747 -0.3532 -0.2321 -0.0140
31497W        W47306  11.828   3.486   0.487 -0.0284 -0.1245  0.1318
31498W        W47307  18.801   1.030  10.781 -0.2528  0.0212  0.1390
31499W        W47308  11.334   6.191  15.151 -0.2140 -0.1067  0.1552
31500W        W47309  15.672   9.187   1.003 -0.0269 -0.0641  0.2219
31501W        W47310   3.021  13.216  13.971  0.0249 -0.1351 -0.0221
31502W        W47311   4.363   3.740   3.840  0.1813  0.1033  0.3038
31503W        W47312  13.608   3.807   2.376  0.0246  0.2154 -0.0163
31504W        W47313  18.756   3.549  11.220  0.0619 -0.1361  0.0126
31505W        W47314  14.131  11.500   2.675  0.2431 -0.0481  0.1432
31506W        W47315   6.823   5.595   4.188 -0.1223  0.2033  0.2232
31507W        W47316  12.703   9.897   0.021 -0.3959  0.2317 -0.0374
31508W        W47317  14.715  15.859   1.813  0.2511  0.1119  0.1837
31509W        W47318  13.942   4.817   3.903  0.0626  0.2321 -0.0283
31510W        W47319  11.949  11.503  12.392  0.0159 -0.1855 -0.0340
31511W        W47320  11.114  10.044   3.491 -0.2965  0.0619  0.3394
31512W        W47321   9.378   3.724  13.283  0.1264  0.0859 -0.1464
31513W        W47322  18.501   9.880   0.709  0.0815  0.6647 -0.0465
31514W        W47323  15.936   0.334  12.826 -0.2426 -0.2531  0.1186
31515W        W47324   4.796   1.287  12.142 -0.2195  0.1495  0.2053
31516W        W47325   9.048  13.280   5.264  0.2581  0.1732 -0.1365
31517W        W47326  13.220  17.046  12.063 -0.2248  0.0968  0.1543
31518W        W47327  11.260  16.788   5.422  0.0188  0.2741 -0.0997
31519W        W47328  13.994   1.209  11.999 -0.3028 -0.0509  0.0307
31520W        W47329  15.421   6.119   9.916 -0.0124  0.1267  0.0558
31521W        W47330  15.998   6.297   3.495 -0.0823 -0.1358  0.0948
31522W        W47331   8.100  15.827   3.844 -0.1246  0.2093  0.0785
31523W        W47332   1.040   2.004   0.296  0.1445  0.2979 -0.0372
31524W        W47333   9.659   0.037   5.291 -0.2985  0.0657  0.0074
31525W        W47334  16.793   8.737  14.822 -0.0319 -0.2040  0.1872
31526W        W47335   6.326   0.625   0.433 -0.0642  0.0740  0.5405
31527W        W47336   9.140   3.910   3.989  0.3216 -0.0993 -0.1526
31528W        W47337  11.522  14.784   1.383  0.0433 -0.0568 -0.2253
31529W        W47338   2.076  12.345  15.181 -0.1339  0.2705  0.0759
31530W        W47339   2.825   7.992   2.247 -0.0127  0.0204 -0.2460
31531W        W47340  16.369  12.771  14.256  0.1489  0.0049  0.1730
31532W        W47341   0.291   7.652   5.142 -0.0168 -0.2087  0.1856
31533W        W47342  14.152  18.680   4.104 -0.2983 -0.3068  0.0394
31534W        W47343   7.746   1.311   4.944  0.0011  0.0869 -0.1835
31535W        W47344  15.218  18.060   5.163 -0.1704 -0.0266 -0.0732
31536W        W47345   8.217   9.219   2.466 -0.0305  0.0318  0.0752
31537W        W47346   8.046   1.650  10.594 -0.4165 -0.0940  0.0262
31538W        W47347  16.303  16.982   5.455 -0.2314 -0.0727  0.1641
31539W        W47348  11.228  15.472  13.560 -0.0350  0.2359 -0.1801
31540W        W47349  16.255   8.752  14.761 -0.0782  0.2646  0.0767
31541W        W47350  14.643  16.771   1.447  0.1082 -0.1063 -0.0562
31542W        W47351   2.572  15.687   1.406 -0.2303 -0.1756 -0.0489
31543W        W47352  13.557  15.956   3.680  0.1934 -0.1748  0.1394
31544W        W47353   9.607   7.068   1.184 -0.0127 -0.0170 -0.0361
31545W        W47354  16.881  19.057  11.646  0.0728 -0.2596 -0.3677
31546W        W47355  13.671  10.683  12.904  0.0876  0.3679  0.2352
31547W        W47356   8.317  15.036   2.664  0.2063  0.1762 -0.2084
31548W        W47357   0.881  10.887   5.605  0.2339 -0.0441  0.2536
31549W        W47358  12.476   5.966   0.787  0.1000  0.1240 -0.0012
31550W        W47359   1.933  14.799   0.453 -0.1003  0.0685 -0.0299
31551W        W47360  18.421   2.746   0.052  0.0709  0.0372  0.1116
31552W        W47361  17.049   6.966   1.566 -0.1082 -0.3232  0.1223
31553W        W47362   1.596   3.204  14.939 -0.2416 -0.0376 -0.0973
31554W        W47363   3.976  13.924  12.382  0.0670  0.3029  0.1574
31555W        W47364  15.106   4.233   2.246  0.3410 -0.0010 -0.0084
31556W        W47365  11.949  14.152  13.034 -0.2528 -0.1761  0.1313
31557W        W47366  10.859   3.699   0.985 -0.2115  0.0481  0.1138
31558W        W47367   6.916   2.692   0.958  0.0199 -0.0969  0.0010
31559W        W47368   5.302   2.963  14.189  0.0342 -0.1858 -0.0469
31560W        W47369   9.410  12.831  14.634  0.1810 -0.0057  0.1305
31561W        W47370   8.188  10.898   2.679 -0.1493 -0.1324 -0.1997
31562W        W47371  11.789  16.398   2.473 -0.2096  0.0093 -0.2849
31563W        W47372  11.695  15.055   5.273 -0.0721 -0.0537 -0.0721
31564W        W47373  14.236   2.784   4.383  0.1741 -0.2816 -0.0681
31565W        W47374   9.796   4.206   9.902 -0.2696  0.1577  0.0954
31566W        W47375   9.642   3.592  10.981  0.2833  0.1924 -0.2211
31567W        W47376  16.885  10.814  10.936 -0.1100  0.1655 -0.1876
31568W        W47377  15.555  16.085  13.285 -0.3472  0.1083  0.0950
31569W        W47378  15.244   3.713   2.177  0.0594 -0.1827  0.0317
31570W        W47379  16.525  15.700  13.595  0.0118 -0.1600 -0.2413
31571W        W47380  17.181   0.056   0.746 -0.2344 -0.1275 -0.3258
31572W        W47381   2.821  11.650  13.366 -0.1139 -0.3233 -0.1593
31573W        W47382  16.290  13.908   1.383  0.1481  0.3595  0.1767
31574W        W47383   2.684   9.117   4.755 -0.2276 -0.1847 -0.2509
31575W        W47384   3.977   5.603  13.943 -0.2756  0.0041  0.4565
31576W        W47385   7.517  18.404   0.388  0.3417  0.0944 -0.0320
31577W        W47386   9.911   3.395   3.951  0.1062 -0.3848 -0.0515
31578W        W47387  14.806  16.098  10.289 -0.0664  0.1117  0.0734
31579W        W47388   0.449  15.250  12.084  0.4021  0.0231 -0.0989
31580W        W47389   2.126  12.520  10.466 -0.1259  0.3605 -0.0231
31581W        W47390   9.826  12.928   5.027 -0.1724 -0.0285  0.1495
31582W        W47391  11.857  17.227  11.359 -0.3438 -0.0600  0.0220
31583W        W47392   7.838  15.972  11.833  0.2002 -0.2258  0.3463
31584W        W47393   0.184   6.387   0.722 -0.0290 -0.0195  0.0928
31585W        W47394  11.265   7.143  13.843 -0.0858  0.1713 -0.0296
31586W        W47395  13.218  11.328  11.475  0.0597  0.1430  0.0104
31587W        W47396   4.434   1.939  11.171  0.2877  0.0327 -0.0236
31588W        W47397   2.378  16.194   1.454  0.1795  0.2469  0.0359
31589W        W47398  18.388   5.970  15.143  0.0147 -0.1453  0.2820
31590W        W47399  10.688  18.629   0.353 -0.0594  0.0149 -0.0257
31591W        W47400   8.301  10.945   3.873 -0.1337  0.3074 -0.1817
31592W        W47401   0.205   3.425   1.401 -0.0963  0.7320  0.0921
31593W        W47402   7.234  13.538  14.383  0.0283  0.4852  0.2999
31594W        W47403   1.782   3.500   4.130  0.3458  0.1030  0.4347
31595W        W47404   8.856   1.814  11.464  0.1885  0.0303 -0.1074
31596W        W47405   3.935  14.173   3.260 -0.2259  0.1537  0.0638
31597W        W47406  16.279   5.397  11.254 -0.0637  0.3562  0.5505
31598W        W47407   4.985   6.427   8.948  0.3672  0.0618  0.0421
31599W        W47408  18.989  18.735  13.976 -0.1879 -0.1019  0.0282
31600W        W47409  15.332  12.740   3.080  0.2136  0.0193  0.2174
31601W        W47410   0.884   9.714   2.673 -0.0915 -0.3233 -0.3200
31602W        W47411  12.966  19.011  10.827  0.0230 -0.1376  0.0056
31603W        W47412   7.407  13.717   4.869  0.2691  0.1057  0.0545
31604W        W47413   1.107  17.430  10.015  0.0811 -0.0319  0.0937
31605W        W47414  12.145   3.091   0.492  0.0626  0.1374 -0.1182
31606W        W47415   6.828  13.653  13.126  0.0088 -0.0538 -0.1011
31607W        W47416  17.665   5.203   2.753  0.0409 -0.1970  0.0176
31608W        W47417  14.091   0.086  11.254  0.0599 -0.1982  0.0438
31609W        W47418   1.844   6.494   1.504  0.1508  0.1841 -0.1070
31610W        W47419  15.145   6.263   1.181 -0.0216  0.1254 -0.0666
31611W        W47420   0.345  14.836   3.879  0.1687  0.2187  0.0293
31612W        W47421   8.805  16.467  11.527  0.1975 -0.3056 -0.0805
31613W        W47422  14.933  11.445  12.864 -0.1226  0.1779 -0.0345
31614W        W47423  13.743   8.624  12.609  0.2012 -0.0424  0.2264
31615W        W47424  15.548   9.127  13.790 -0.0312  0.1413 -0.0416
31616W        W47425  16.772   0.518   4.491  0.2027  0.3325 -0.1817
31617W        W47426   2.218   7.173   9.892  0.2065  0.0473  0.2349
31618W        W47427   4.581  17.345   2.074 -0.1249  0.1669 -0.0524
31619W        W47428   6.900  12.809  12.527 -0.1136  0.2611  0.1214
31620W        W47429   0.463  16.127   2.197  0.0898 -0.2092  0.1276
31621W        W47430  12.367   5.516   2.903 -0.0465 -0.1667  0.0578
31622W        W47431  17.067   9.080   0.336 -0.1464 -0.0316 -0.0613
31623W        W47432   4.116  18.130   1.769  0.1665  0.3506  0.0172
31624W        W47433   8.661   2.901  14.360 -0.0144  0.4668 -0.3726
31625W        W47434   7.392  13.048   3.021 -0.0164 -0.0853  0.0091
31626W        W47435   9.187   3.492   3.708 -0.2629 -0.2444 -0.1376
31627W        W47436   9.864   4.533   0.745 -0.2774 -0.3630  0.0210
31628W        W47437   9.168   4.290  14.524  0.0420 -0.1804  0.2457
31629W        W47438   0.363   6.295  13.499 -0.0637 -0.1601  0.0726
31630W        W47439   3.754   0.256   3.133 -0.4732  0.1180 -0.1476
31631W        W47440   5.640   8.672   3.185  0.0425 -0.1689 -0.1335
31632W        W47441   5.169  10.576   1.533  0.1714 -0.0686 -0.0621
31633W        W47442   7.995  18.481  10.830 -0.0546  0.2940  0.1184
31634W        W47443  16.908  17.323   3.851 -0.0017 -0.1965 -0.1055
31635W        W47444   0.174   5.502  10.862  0.2144 -0.0943  0.1542
31636W        W47445  12.990  17.756  14.393 -0.0975 -0.4657  0.5992
31637W        W47446   9.470   9.901  13.226  0.3026 -0.0999 -0.0254
31638W        W47447  18.129  16.433   3.617 -0.2172 -0.1473  0.0472
31639W        W47448   3.187  16.430   2.584 -0.1388  0.1459  0.1796
31640W        W47449  18.170  16.668   0.029 -0.3463  0.1362 -0.0588
31641W        W47450  10.256  15.902   2.842 -0.1574  0.0072 -0.1153
31642W        W47451  12.670   2.785  15.072 -0.0692 -0.0595 -0.3766
31643W        W47452  14.582  17.624  14.652  0.3408  0.0230  0.1087
31644W        W47453   6.275  13.927  14.400 -0.0541 -0.1725  0.0640
31645W        W47454  11.637   1.456   1.131  0.0529 -0.0858  0.1210
31646W        W47455  16.275  17.213   1.357 -0.1878  0.1538  0.0801
31647W        W47456   8.958   8.423  13.664 -0.0462  0.0375  0.2618
31648W        W47457  14.380  12.955  14.866  0.0510 -0.2120  0.1378
31649W        W47458   3.222  10.476  14.814  0.3253  0.0845  0.3692
31650W        W47459  18.978  18.179   3.329 -0.2040 -0.1533  0.1571
31651W        W47460   7.457  13.613   5.382  0.0377 -0.0053  0.5372
31652W        W47461   9.571  10.831  13.913  0.2361  0.0007 -0.1568
31653W        W47462   4.456   5.178  10.268 -0.4461  0.0874  0.0192
31654W        W47463   2.829   5.488   3.139 -0.2251  0.3355  0.0891
31655W        W47464   2.893   8.174  13.398  0.2487 -0.0691 -0.0372
31656W        W47465   9.062   4.715  12.087  0.1439  0.2778 -0.4007
31657W        W47466   6.042   9.620  14.928  0.1374 -0.0415  0.0025
31658W        W47467  13.887   8.645   5.211 -0.0715  0.0975  0.0764
31659W        W47468  14.576   8.199  10.434 -0.1200  0.0773 -0.0336
31660W        W47469   0.048   0.427   0.119 -0.1193 -0.1011 -0.0362
31661W        W47470   5.179   7.019   2.950 -0.0549 -0.3374 -0.1378
31662W        W47471  17.935   4.417   4.150 -0.3233  0.2268  0.1099
31663W        W47472  15.418  12.991   0.351 -0.0237 -0.1782 -0.1019
31664W        W47473  18.978   9.741   3.015 -0.1571  0.3239 -0.3232
31665W        W47474  18.908   9.145   1.698 -0.1836  0.2090  0.0344
31666W        W47475  17.379   7.402  11.327 -0.2386  0.1224  0.1897
31667W        W47476  10.267   0.597  12.336 -0.1552 -0.0244 -0.3304
31668W        W47477   7.296  12.875  12.190 -0.4543  0.0028 -0.0309
31669W        W47478  10.475   0.381  15.062 -0.1510 -0.0814  0.0639
31670W        W47479  18.351  12.374  14.801 -0.2076  0.0403 -0.1120
31671W        W47480   7.960  13.859  13.648  0.2303  0.4392  0.2510
31672W        W47481  10.596   4.406  13.060  0.1320  0.3219 -0.3461
31673W        W47482   7.809   2.965  13.183 -0.0485 -0.3993 -0.2114
31674W        W47483  17.412   9.388  12.816 -0.3154  0.0070 -0.3750
31675W        W47484  13.480  17.999  11.645  0.1933  0.1358 -0.0024
31676W        W47485  14.918  17.127   3.429 -0.0213 -0.3165  0.1444
31677W        W47486  12.022   8.604   1.456 -0.2710 -0.1375 -0.1011
31678W        W47487  18.941  13.916   0.999  0.0225 -0.0462  0.3442
31679W        W47488   7.605  12.514  11.443 -0.0635 -0.0677 -0.1893
31680W        W47489   9.835  17.298   1.419 -0.0393  0.0436 -0.0839
31681W        W47490   3.513   3.114   0.553  0.2142 -0.3192 -0.0648
31682W        W47491  12.844   7.276  13.022  0.1082  0.2444 -0.0472
31683W        W47492   4.750  19.059   0.482  0.4046  0.4179 -0.1039
31684W        W47493   9.443   6.124  12.394 -0.0314 -0.1161  0.0328
31685W        W47494  10.427  12.779  11.563 -0.3000 -0.0995 -0.0202
31686W        W47495   2.358   5.642   3.001 -0.2403 -0.1919 -0.1009
31687W        W47496   8.554  11.984   1.686  0.3179  0.1013 -0.1568
31688W        W47497  16.932  14.545  11.272  0.1761  0.0683 -0.1627
31689W        W47498   3.763   4.677   3.387 -0.0278 -0.2244  0.2807
31690W        W47499  13.201   3.819   2.685  0.1773  0.1755 -0.1305
31691W        W47500   9.135  11.236  12.670 -0.1869 -0.2705 -0.1381
31692W        W47501  16.855  17.232   0.328  0.1357  0.0480  0.0862
31693W        W47502   3.559   8.015  12.641 -0.2100 -0.0484 -0.2603
31694W        W47503   2.524   9.806   0.855  0.0840  0.0049 -0.4365
31695W        W47504  16.113   5.582   1.186  0.2261  0.1395  0.3692
31696W        W47505  12.617   6.771   9.986 -0.1306  0.1893 -0.1381
31697W        W47506   1.492  16.851  12.682  0.2632  0.0260 -0.1288
31698W        W47507  11.143  16.498   5.802  0.3236  0.2237 -0.1185
31699W        W47508   5.679   5.190  14.699 -0.1497 -0.1303  0.3549
31700W        W47509   3.523  12.905   5.023 -0.3140  0.2108 -0.0560
31701W        W47510   6.085   6.845   4.143  0.2819 -0.2303 -0.2125
31702W        W47511  15.134   1.624   5.409  0.3951  0.4728 -0.0062
31703W        W47512   6.319   6.213   3.617  0.1140  0.1389 -0.2060
31704W        W47513   7.607  10.055  10.411  0.2194 -0.1065  0.0379
31705W        W47514   3.266  11.935  12.466  0.4000 -0.2386 -0.1931
31706W        W47515   9.821   1.077  11.765 -0.0875  0.0320 -0.0000
31707W        W47516  13.295   3.193  11.180  0.0801  0.0150  0.4541
31708W        W47517  13.858   4.852   3.410  0.2455  0.0124  0.2418
31709W        W47518  13.691  11.554  12.514 -0.0402 -0.0104  0.1267
31710W        W47519   6.181  10.195  11.447  0.0555  0.1972 -0.0913
31711W        W47520  13.911  13.082  11.759  0.1805 -0.0621  0.0055
31712W        W47521  18.442  16.083   4.709  0.1689  0.0536  0.2484
31713W        W47522  16.992  10.194   0.673 -0.2109 -0.1760 -0.0738
31714W        W47523   0.383   3.962  12.329 -0.3749 -0.1151 -0.0940
31715W        W47524  10.058   1.894  12.797 -0.0507 -0.1153  0.0854
31716W        W47525  14.957  14.312   2.017  0.1407 -0.1201  0.0831
31717W        W47526   0.112   5.497  13.156 -0.3463  0.3225  0.3288
31718W        W47527  15.143   5.718  12.814 -0.0450  0.2988  0.1131
31719W        W47528   2.544  17.029   4.942  0.0224  0.2422 -0.2769
31720W        W47529  14.339   8.678  11.731 -0.0064  0.0531  0.3330
31721W        W47530   0.858   9.345   0.565  0.1852 -0.0701 -0.0986
31722W        W47531  16.361   5.342  12.813  0.2204  0.0662  0.2451
31723W        W47532   1.508  12.856   3.856  0.0228  0.3602 -0.3721
31724W        W47533  18.923   8.327   0.879 -0.3302 -0.0651 -0.1021
31725W        W47534   8.049   3.948   4.708  0.2197 -0.1711 -0.1331
31726W        W47535   8.841  18.822   1.427  0.0429 -0.0245  0.1637
31727W        W47536  16.700  18.023   3.017  0.1855 -0.1894  0.0385
31728W        W47537   0.615  17.792  14.993  0.0905  0.2845  0.3178
31729W        W47538   0.047   1.097   2.762  0.1508  0.1428 -0.2541
31730W        W47539   9.868   2.991   0.627 -0.1559  0.0221 -0.1029
31731W        W47540   5.524   3.661   1.543  0.2132  0.0604  0.2918
31732W        W47541   6.387  13.083  13.266 -0.2922  0.0551  0.3970
31733W        W47542   2.511   1.565  13.537 -0.2548 -0.3880  0.6930
31734W        W47543  11.872  13.207   0.274 -0.1251 -0.3890 -0.1700
31735W        W47544  12.571  14.286  15.115  0.0738 -0.2469 -0.3174
31736W        W47545  10.379   5.037   1.987 -0.2253 -0.1322 -0.0808
31737W        W47546   6.998   8.693  13.307 -0.3949  0.0664  0.0139
31738W        W47547   8.796   5.344   2.875  0.0063  0.1041 -0.1954
31739W        W47548  11.064   8.870   1.043 -0.0670 -0.0728 -0.1092
31740W        W47549   5.859   0.809   0.566 -0.0797  0.1503  0.0787
31741W        W47550  14.892   5.278   2.324 -0.0615 -0.1678 -0.0097
31742W        W47551   1.274  10.979   4.186  0.3709  0.0541  0.0511
31743W        W47552   7.381  10.507   0.545  0.0847 -0.2388  0.1678
31744W        W47553  15.829   0.903   4.817 -0.0924 -0.2481  0.1320
31745W        W47554  18.148  17.937   4.556  0.0738 -0.1880 -0.0524
31746W        W47555   0.006  16.361   9.609  0.0910 -0.0105  0.0559
31747W        W47556   2.720  14.185  10.435 -0.1910  0.1953 -0.1007
31748W        W47557  11.726  16.931   0.733  0.0303  0.0108  0.0541
31749W        W47558   1.529   6.756   9.952 -0.1210  0.0836  0.1361
31750W        W47559   9.745  13.729   2.599  0.0926 -0.0158 -0.3204
31751W        W47560   1.399   0.529  13.628  0.2879  0.0109  0.2003
31752W        W47561  12.984   8.758  11.574  0.3951  0.0659 -0.0248
31753W        W47562  13.787  18.904  10.940 -0.2714  0.0220  0.1284
31754W        W47563   6.550  18.617  13.432  0.2166 -0.0210  0.1592
31755W        W47564   8.108   8.631   2.774  0.1648 -0.2082  0.0759
31756W        W47565   5.718  18.261   4.269 -0.0707 -0.0300 -0.2744
31757W        W47566  11.984   0.375  10.582  0.0614 -0.2665  0.1178
31758W        W47567  17.540   5.838   3.556  0.1019  0.3235 -0.1100
31759W        W47568   8.307  13.961   5.173  0.0373 -0.2991 -0.1368
31760W        W47569   6.639  15.398  12.900  0.2617  0.0803  0.0826
31761W        W47570   0.806  10.870   2.648  0.2670 -0.1691  0.0535
31762W        W47571   2.758   9.746   1.800  0.1480 -0.3012 -0.0617
31763W        W47572  14.952   5.629  12.013 -0.1355  0.2713  0.0922
31764W        W47573   6.666   2.045  13.434  0.2575 -0.0862 -0.2452
31765W        W47574  10.441   9.636  10.933 -0.2644  0.1369  0.6443
31766W        W47575   3.747   3.145   1.951 -0.1646  0.2389 -0.2183
31767W        W47576  17.159  10.163  14.875 -0.0068 -0.2093 -0.0442
31768W        W47577   7.978  15.818   2.272  0.0585 -0.2041  0.2136
31769W        W47578   1.864  13.497   2.670  0.1383  0.2257 -0.0896
31770W        W47579  14.573  14.840   1.532 -0.0716 -0.0513  0.0600
31771W        W47580  17.208   4.848  13.027 -0.1406  0.1873 -0.1262
31772W        W47581  18.239   6.507   0.022  0.0030 -0.3128 -0.0509
31773W        W47582  13.781  13.220  11.257  0.1574  0.3218 -0.0427
31774W        W47583  11.176  18.813   1.908  0.1013  0.1366  0.0553
31775W        W47584  14.481   1.943   3.313 -0.2997 -0.2614  0.0951
31776W        W47585  17.271   5.944   0.737  0.0304 -0.2700  0.3539
31777W        W47586  14.926   0.616   1.158 -0.1404 -0.0149  0.0792
31778W        W47587  18.966  15.737   0.969  0.1217 -0.0575  0.1211
31779W        W47588  11.258  19.097   4.312 -0.0339  0.2530  0.0055
31780W        W47589  11.120   1.030  12.010 -0.0267 -0.1351 -0.4278
31781W        W47590   8.552   3.895   1.413  0.1987 -0.0184 -0.1562
31782W        W47591   0.662   7.584   2.770  0.0822  0.3381 -0.0916
31783W        W47592   7.509   4.311   3.189  0.2452  0.1338  0.0351
31784W        W47593  10.466  12.998  14.494  0.1228  0.1154 -0.1717
31785W        W47594  14.126  11.100   3.147 -0.1752  0.0367  0.2023
31786W        W47595   0.693   9.775   1.015  0.0788  0.0660  0.0374
31787W        W47596  10.810   3.140   4.914 -0.2896 -0.3074 -0.1974
31788W        W47597   4.075  10.216  11.641 -0.3058  0.0801  0.4037
31789W        W47598   6.090  10.036  14.577  0.3939 -0.3253 -0.0916
31790W        W47599  14.237  11.443  12.256 -0.1707 -0.0164  0.2052
31791W        W47600  17.136   6.851   0.364  0.0449  0.3343  0.0326
31792W        W47601  16.322  12.437  11.260  0.0378  0.0039 -0.2556
31793W        W47602  18.168   1.569  14.326 -0.3470 -0.0925  0.0358
31794W        W47603   9.168   4.695   0.022  0.0357 -0.0146  0.2980
31795W        W47604  11.430  11.957  14.954 -0.0522  0.0410  0.1145
31796W        W47605   0.812   5.332  13.957  0.1530 -0.1133  0.2818
31797W        W47606  18.442   7.985  11.306  0.0526 -0.0233  0.0745
31798W        W47607  10.563   3.015   4.086 -0.0051 -0.2252  0.2238
31799W        W47608   7.307  18.792  13.484  0.0813  0.1121  0.3419
31800W        W47609  10.485  12.237  12.391 -0.1203 -0.1014  0.1262
31801W        W47610   4.658   6.445   5.125  0.3196 -0.1728  0.1286
31802W        W47611   1.558  17.458   1.532 -0.1886 -0.3930 -0.0527
31803W        W47612   6.757  13.160   4.936 -0.3818  0.0942 -0.0572
31804W        W47613  10.877   2.114   1.048  0.0873 -0.4380  0.0318
31805W        W47614  13.170  17.933  11.230 -0.1463 -0.1166 -0.2382
31806W        W47615   0.975  11.942  14.085 -0.0851 -0.0385 -0.2115
31807W        W47616   6.191   3.271  11.851  0.0139  0.2609  0.1702
31808W        W47617   9.786   7.556   2.482  0.4005  0.3198 -0.4004
31809W        W47618   9.432  14.836   0.802 -0.0325 -0.5707 -0.3644
31810W        W47619  18.694   6.475  13.031  0.1205 -0.0880  0.4101
31811W        W47620  14.921   4.158   4.498  0.1930 -0.3557 -0.0195
31812W        W47621   5.505   4.141  13.146 -0.1379 -0.0151  0.0286
31813W        W47622   4.067  15.894  10.818 -0.3224  0.1645 -0.0119
31814W        W47623  16.906  15.898   4.168  0.0283 -0.2925  0.0242
31815W        W47624   2.940   1.038  12.685 -0.1170 -0.0150 -0.0552
31816W        W47625   5.068   4.426  13.050 -0.1205  0.1882  0.1620
31817W        W47626   2.952   3.076   9.874  0.2419  0.1449 -0.0772
31818W        W47627   6.070  12.751   3.792  0.0601  0.0189 -0.4009
31819W        W47628  15.417  17.986   3.735  0.2044 -0.1185  0.1981
31820W        W47629  12.509  11.730  11.652  0.1000 -0.0718  0.1066
31821W        W47630   3.277  15.989  11.514 -0.0780  0.1798  0.1517
31822W        W47631   9.819  17.223   0.917 -0.1649 -0.1999 -0.2217
31823W        W47632  14.337   1.511   3.630 -0.1377  0.3456  0.2373
31824W        W47633   4.391  16.371   2.248  0.1760 -0.1595  0.1451
31825W        W47634  17.042   0.900   5.328  0.1129  0.0143 -0.2177
31826W        W47635  11.203   1.335  12.873 -0.2713  0.1929  0.0900
31827W        W47636  14.566  15.811   2.861  0.0826 -0.0366 -0.4381
31828W        W47637   2.297  13.325  11.564  0.0428  0.3022  0.2377
31829W        W47638  14.037   3.848   1.173  0.1084 -0.1519  0.1538
31830W        W47639   2.512   3.101   4.201  0.0895  0.0268  0.1434
31831W        W47640  16.268   5.236   0.923 -0.0586  0.2182 -0.1489
31832W        W47641   7.799   2.313  11.896  0.2007 -0.0251  0.0790
31833W        W47642   7.333   6.919  11.352  0.2547 -0.0296  0.0993
31834W        W47643   6.014  17.200   2.417  0.0021 -0.1034 -0.2351
31835W        W47644   7.571  18.179  12.618 -0.2363 -0.0171  0.0529
31836W        W47645   5.601  18.040   1.824  0.2606  0.2827 -0.3188
31837W        W47646  11.152  17.913   2.855 -0.2121 -0.1629 -0.1676
31838W        W47647   8.217  15.745  12.716 -0.1357  0.1562 -0.1681
31839W        W47648  18.971   9.812  14.609 -0.1569  0.2264 -0.5284
31840W        W47649   7.566   7.778  11.897 -0.0904  0.1141 -0.3277
31841W        W47650  11.579  16.270   1.836 -0.1181  0.1742 -0.0763
31842W        W47651  18.166   5.407  14.031  0.1341 -0.0660 -0.0340
31843W        W47652  17.028  17.993  13.885  0.0945 -0.0788  0.0308
31844W        W47653   3.108  16.436   1.565  0.3737  0.1417 -0.0601
31845W        W47654   4.138   1.652  12.546 -0.2075 -0.0039  0.0080
31846W        W47655  11.009   6.396  11.595 -0.1947 -0.2649 -0.2095
31847W        W47656   9.839   8.739   3.378 -0.0414  0.2663 -0.0540
31848W        W47657   2.101  11.810   4.100 -0.2395  0.1696 -0.1002
31849W        W47658  18.685  11.840   9.490 -0.2958  0.0772  0.1161
31850W        W47659   3.791  17.525  12.136 -0.2090  0.2104 -0.1154
31851W        W47660  19.102  17.657  12.287 -0.0048 -0.0782  0.3050
31852W        W47661   3.998   5.494  12.815 -0.0819 -0.0745  0.2952
31853W        W47662   6.238  11.654  14.899 -0.0275 -0.1472  0.1436
31854W        W47663  18.934  10.815  10.744 -0.0139  0.0131  0.1266
31855W        W47664  13.034  10.594  14.370 -0.2048  0.1978  0.3131
31856W        W47665  13.832   6.835  11.124 -0.0633 -0.1176 -0.2825
31857W        W47666   1.258   7.420  11.238  0.1673  0.1614 -0.2001
31858W        W47667  13.372   5.958   2.997 -0.1922 -0.0875 -0.2859
31859W        W47668  13.854  11.740  12.067 -0.1910  0.0059  0.1508
31860W        W47669  16.199  13.762   1.859  0.2278 -0.2006  0.0290
31861W        W47670   1.258  18.505  11.207  0.2126 -0.2733  0.1506
31862W        W47671  16.704   9.547  13.612  0.0868  0.0135 -0.0893
31863W        W47672   6.986  14.250  14.050 -0.3520 -0.0883 -0.0549
31864W        W47673  18.616   6.880   4.518 -0.1579 -0.3049  0.4209
31865W        W47674   1.761   6.013  11.009 -0.2049 -0.0579 -0.0376
31866W        W47675   5.263   1.342   3.602 -0.0265  0.0975 -0.2348
31867W        W47676  16.401  12.025  11.587  0.4012  0.0321 -0.3091
31868W        W47677  10.523  12.708   4.498  0.0743  0.1543 -0.0917
31869W        W47678   2.770   5.544   2.366  0.0554 -0.1182 -0.2192
31870W        W47679   0.016  10.204   4.587 -0.2964  0.1801 -0.1316
31871W        W47680   3.037   2.112   9.983  0.0970 -0.1334  0.0709
31872W        W47681  11.317   1.487   0.182  0.2726 -0.0282 -0.1546
31873W        W47682   9.885   6.376  11.234  0.0724 -0.1283 -0.0652
31874W        W47683  18.712   2.954  12.662  0.1300 -0.2500  0.0244
31875W        W47684   4.262   0.835   3.703 -0.3994  0.1457  0.2406
31876W        W47685   5.925   3.915  11.922 -0.0829  0.0490 -0.1590
31877W        W47686   5.716   7.029   3.820  0.1243  0.0218  0.1958
31878W        W47687   7.761  14.277   1.419  0.0586  0.3004 -0.1627
31879W        W47688   4.174   9.930  13.526  0.1424  0.0332  0.0441
31880W        W47689   5.069   9.548   4.800 -0.1703  0.0581 -0.2887
31881W        W47690  17.861   7.235  10.520  0.1042 -0.1982  0.0044
31882W        W47691   1.381  14.871   0.573  0.4338  0.2332  0.1432
31883W        W47692  16.278   8.180  14.987 -0.2622  0.1915 -0.1211
31884W        W47693  10.161  14.493   2.558 -0.2151  0.1274  0.0444
31885W        W47694  10.332  18.255   1.916 -0.3446  0.0646  0.0900
31886W        W47695  17.208   5.331   4.346 -0.1675  0.1063 -0.1114
31887W        W47696  16.136  16.832  12.999 -0.3815 -0.1180 -0.0622
31888W        W47697   5.724  13.319  14.307  0.0076  0.1391  0.1682
31889W        W47698  12.389   9.908   1.216  0.2490  0.1824  0.0151
31890W        W47699  11.856  12.437  10.587  0.0324  0.1756  0.0515
31891W        W47700   1.039  12.618   3.577  0.0332 -0.0093  0.1986
31892W        W47701  16.827  14.168   2.194 -0.2068 -0.1329 -0.1040
31893W        W47702  17.466   4.431  15.083 -0.2696 -0.0856  0.3488
31894W        W47703  10.284  18.548   5.468 -0.2014  0.0193 -0.0697
31895W        W47704  19.088   2.353  10.403 -0.1659 -0.2302 -0.0820
31896W        W47705   2.441  16.036   3.491  0.1046  0.0620 -0.0444
31897W        W47706   2.348  13.405   4.292 -0.0427  0.0730  0.2579
31898W        W47707  12.112   8.591   9.357 -0.1120 -0.1120  0.1150
31899W        W47708  13.391  11.633   1.509  0.0698  0.1008  0.1356
31900W        W47709  15.112   1.381  15.070  0.0089 -0.1395  0.0329
31901W        W47710   2.949  10.040  10.345 -0.1334  0.2205 -0.1489
31902W        W47711   6.063   0.567  12.431  0.3902  0.3110  0.2306
31903W        W47712   5.097  10.524  14.040  0.1311  0.3106  0.2330
31904W        W47713  18.840  11.756   2.601  0.1413 -0.1077 -0.1965
31905W        W47714  14.937   1.679  11.870  0.1925  0.1434  0.1801
31906W        W47715  12.399   7.418  13.257  0.3042 -0.4056 -0.0215
31907W        W47716   1.347  14.864   3.190 -0.1095  0.3194 -0.0945
31908W        W47717  10.015  13.855   4.901 -0.0320  0.2117 -0.0112
31909W        W47718  15.549   9.979  10.981 -0.2453  0.2989  0.0567
31910W        W47719  18.359  18.911   4.436  0.0092 -0.1661 -0.1106
31911W        W47720  13.572   4.966  12.808 -0.2800 -0.2021 -0.0158
31912W        W47721   9.809  18.599  12.035 -0.1161  0.0898  0.3071
31913W        W47722  12.934  12.123  11.828 -0.0941 -0.2591  0.0774
31914W        W47723  12.727   5.035   2.598  0.0828  0.2256 -0.0959
31915W        W47724   8.056  16.335  14.195 -0.0174  0.0034  0.1180
31916W        W47725   2.543  18.971   2.882  0.0142 -0.0347 -0.1716
31917W        W47726   4.580   9.481   0.714  0.2434  0.0053 -0.0566
31918W        W47727  13.573   2.179   0.973 -0.0381 -0.1591 -0.0421
31919W        W47728  14.242   6.139  11.782 -0.1798  0.1348 -0.3488
31920W        W47729  16.891  18.917   4.996  0.1406 -0.0043  0.1450
31921W        W47730  12.825   9.759   1.378  0.0890 -0.1879  0.0059
31922W        W47731   4.642  12.339  14.336 -0.2363  0.1276 -0.1948
31923W        W47732   5.896  12.864  13.155 -0.0125  0.1956 -0.4047
31924W        W47733  10.475   2.523   1.134  0.0711 -0.2360  0.1510
31925W        W47734   2.653   1.348  14.401  0.0358  0.1607 -0.0065
31926W        W47735   9.640  17.229  10.880 -0.0135  0.1661 -0.2134
31927W        W47736  10.066  18.155  13.350  0.2721  0.0696  0.0969
31928W        W47737  14.786  17.356   0.927  0.1808 -0.1795  0.2212
31929W        W47738  13.502   3.690  13.600 -0.2863 -0.0391 -0.2363
31930W        W47739  15.984  13.463   1.369 -0.1736  0.2395 -0.2481
31931W        W47740   3.137   4.012   5.205 -0.3716 -0.1510  0.1992
31932W        W47741   7.999   4.503  14.062 -0.2399  0.2060 -0.0032
31933W        W47742   6.048  11.033   3.604 -0.0329 -0.0224  0.1896
31934W        W47743   1.571   4.606  15.180  0.0021 -0.2733  0.0138
31935W        W47744  12.810  15.923   3.199 -0.2997 -0.0707 -0.2818
31936W        W47745  10.959  16.381   1.667  0.2690 -0.0816  0.1689
31937W        W47746  13.697   8.363  13.069 -0.1182 -0.1528 -0.0735
31938W        W47747  11.154   3.490  14.331 -0.1907  0.2364  0.0622
31939W        W47748  10.929  16.934  12.462  0.0023  0.0186 -0.2509
31940W        W47749   9.827  16.162   0.377  0.0076 -0.0366 -0.1900
31941W        W47750  11.526  18.690   0.680  0.2461  0.2575 -0.0326
31942W        W47751   1.702  13.348  12.847  0.0227  0.0162 -0.0649
31943W        W47752  10.290   8.462  10.534  0.3364  0.2300 -0.0072
31944W        W47753  17.138   6.583  13.861 -0.3380 -0.0112  0.0459
31945W        W47754   3.524  17.322   4.647  0.0849 -0.1364 -0.0291
31946W        W47755   4.835  10.977  13.852 -0.1075  0.1220  0.3964
31947W        W47756   5.126  12.435   3.299 -0.0671 -0.4865 -0.0710
31948W        W47757   6.807   2.232   0.659  0.2223  0.1912 -0.2302
31949W        W47758   2.036  17.624   1.428 -0.1542 -0.1526  0.1649
31950W        W47759  10.551  17.627   4.139 -0.2247  0.0177  0.1859
31951W        W47760  12.639  14.551   0.724  0.2413  0.4010  0.1866
31952W        W47761  13.710   5.530  10.378 -0.2522  0.4295  0.1309
31953W        W47762   6.503   5.507   0.964  0.3637  0.1047  0.0087
31954W        W47763   7.970   1.005   3.423 -0.0082  0.0980  0.1102
31955W        W47764  17.649   8.398  12.271 -0.0695 -0.2608  0.1908
31956W        W47765  17.571   8.646   3.788 -0.1679 -0.0940 -0.0248
31957W        W47766   3.508   2.192   0.371  0.0378  0.1334  0.3184
31958W        W47767  17.188   2.770  13.193 -0.1728 -0.0703 -0.0730
31959W        W47768  11.341   0.533  13.618  0.0186  0.3236  0.0646
31960W        W47769   0.494   6.206  10.684  0.2352 -0.0204  0.0784
31961W        W47770  16.154  14.305   3.986 -0.2612 -0.1240  0.0641
31962W        W47771   6.677  18.238  11.041 -0.1501  0.5500 -0.1430
31963W        W47772   2.583   5.249  10.569 -0.0041  0.0961  0.2258
31964W        W47773  12.098  16.010  14.137  0.1329  0.0570  0.0635
31965W        W47774   7.304   5.643  12.392 -0.0377 -0.1048  0.2196
31966W        W47775  11.217   5.323   2.365 -0.1236 -0.2479 -0.1537
31967W        W47776  15.255   4.994  14.624 -0.0064 -0.3068 -0.0615
31968W        W47777   7.211   0.508   1.932  0.0794 -0.3887 -0.0465
31969W        W47778  18.574  13.862   5.319  0.0801  0.1399 -0.0598
31970W        W47779   4.539   6.547  13.541  0.1278 -0.0905  0.1109
31971W        W47780  14.070   3.518   2.167 -0.0927 -0.0761  0.0121
31972W        W47781   9.272  15.432  11.957  0.2889  0.0388 -0.0157
31973W        W47782   1.066  11.138   2.291  0.1937  0.3636  0.1238
31974W        W47783   3.832   2.275   0.780 -0.0204  0.0503  0.2807
31975W        W47784   7.157  16.689   9.834  0.0901  0.0391 -0.0884
31976W        W47785  15.880   5.508   2.429 -0.2559  0.2395  0.1893
31977W        W47786  18.392   8.019  14.446 -0.0970 -0.3083  0.1083
31978W        W47787   4.372   2.459  12.709 -0.1771  0.1510 -0.3402
31979W        W47788   7.736  18.230   3.347  0.1177 -0.0706  0.2395
31980W        W47789   1.442  10.601  14.711  0.2610 -0.0774  0.2788
31981W        W47790   0.238   0.172   2.415 -0.3360  0.1572  0.2092
31982W        W47791   0.024   4.125   2.816 -0.0622 -0.2084  0.1706
31983W        W47792  14.105  17.668   1.635 -0.1626  0.0156  0.1063
31984W        W47793  15.206   2.116  12.188 -0.1010  0.1811 -0.1831
31985W        W47794   1.204  17.180   3.531 -0.0684  0.1790 -0.2939
31986W        W47795  16.432   9.342  10.781 -0.5320  0.4178  0.1116
31987W        W47796  15.384   7.898   0.815  0.3112 -0.1785 -0.1366
31988W        W47797   0.342  18.173   5.585 -0.4477  0.0626  0.0061
31989W        W47798  14.996  12.898  15.191  0.2223  0.0770  0.0393
31990W        W47799  11.831  12.192   0.401 -0.0877 -0.2274  0.2362
31991W        W47800   2.253  13.368  12.959 -0.1086 -0.1502 -0.1499
31992W        W47801  17.365  10.566   3.481  0.0883 -0.2123  0.0697
31993W        W47802  10.988   7.275  13.371 -0.3073 -0.3642 -0.0303
31994W        W47803   8.524   5.277   0.432 -0.0651 -0.1883 -0.3093
31995W        W47804   6.395  15.154   0.515  0.1572  0.3056  0.4348
31996W        W47805   2.799   5.770   5.185 -0.0348 -0.1006  0.2040
31997W        W47806  13.470  13.629  11.499  0.1634 -0.1719 -0.0999
31998W        W47807   4.764   6.895   2.669 -0.0601  0.1998  0.1936
31999W        W47808  12.729  11.084  13.580 -0.1504  0.0209 -0.2076
32000W        W47809  17.501  14.886   1.452 -0.0211 -0.2361 -0.0953
32001W        W47810   4.483  11.472   4.265 -0.0260  0.5928  0.1223
32002W        W47811   5.283  13.342  11.369  0.1052 -0.2746 -0.0444
32003W        W47812   6.506  12.972   3.691 -0.1685  0.0262 -0.1244
32004W        W47813   1.568   4.066  15.093  0.3576  0.2649 -0.0130
32005W        W47814  16.306   2.980  13.246 -0.2380 -0.0654 -0.0667
32006W        W47815  17.616  17.395   0.850  0.2331  0.0850 -0.2629
32007W        W47816   1.358  11.888   4.867 -0.1968 -0.0642  0.0454
32008W        W47817   8.904  10.325  12.255 -0.2208  0.0716 -0.0865
32009W        W47818   3.999   5.268   4.141 -0.0688  0.1372  0.1841
32010W        W47819  18.323   9.189  11.165  0.0086  0.0798  0.1096
32011W        W47820  12.703   6.787   4.704  0.2068  0.1930  0.0170
32012W        W47821   3.481  18.583   1.196 -0.2064 -0.0145  0.0543
32013W        W47822   0.948   7.544  10.816  0.2100  0.0710 -0.0216
32014W        W47823  12.084   7.452   1.253  0.0458 -0.1856 -0.0707
32015W        W47824   2.640  10.075  11.851  0.2321  0.0496 -0.0785
32016W        W47825  12.363  13.050   1.748 -0.0208 -0.1337  0.0997
32017W        W47826   4.539   6.642  10.516 -0.0806 -0.0237 -0.2490
32018W        W47827   2.595   6.903   1.759 -0.2206  0.2149  0.0312
32019W        W47828  13.372  16.130  11.676  0.0647 -0.1362 -0.1481
32020W        W47829  14.764  13.652  11.438 -0.1666  0.0007  0.0443
32021W        W47830   7.396  18.834  11.455  0.0007 -0.1984 -0.2351
32022W        W47831  17.911   1.657  11.587 -0.0996  0.2208 -0.0452
32023W        W47832  18.322   4.451   0.469  0.1668 -0.1029  0.0891
32024W        W47833   5.373  12.897  13.079 -0.1000  0.2731  0.0877
32025W        W47834  17.041   7.574  15.198 -0.2156 -0.1326 -0.2001
32026W        W47835   6.392   7.980   0.246 -0.2262  0.1677 -0.3646
32027W        W47836   6.153  17.992  14.422  0.1040 -0.1826 -0.0671
32028W        W47837  15.003   6.452  14.301  0.1576  0.2223  0.1281
32029W        W47838   3.216  18.594  12.808 -0.0833  0.1308  0.0228
32030W        W47839   9.567  17.177   4.342  0.1013 -0.1515  0.2818
32031W        W47840   8.465  15.541   4.719 -0.3747  0.2704  0.3444
32032W        W47841   0.807   6.266  14.575  0.2321  0.3682 -0.0492
32033W        W47842  16.712   7.577   4.746  0.2501 -0.1440 -0.3306
32034W        W47843  12.459   0.159   2.421  0.1454  0.1888  0.0368
32035W        W47844   2.031  17.817   4.285 -0.0292  0.1107  0.2509
32036W        W47845  16.772   6.011   0.677 -0.0858  0.0516 -0.0382
32037W        W47846   5.879   3.285  10.561  0.1749  0.4761  0.2174
32038W        W47847  18.312   7.255   3.802  0.2727 -0.0554 -0.1109
32039W        W47848  10.015   8.663   0.467 -0.0250 -0.0428  0.4597
32040W        W47849   3.661   3.220   4.092  0.0096  0.8051 -0.2909
32041W        W47850   2.665   7.374  10.636  0.3073  0.0709 -0.2743
32042W        W47851  13.537   8.964   0.540  0.1241 -0.1372  0.0576
32043W        W47852  12.697  12.190  12.616  0.1649 -0.1763 -0.1187
32044W        W47853   8.989  11.708   3.553 -0.2997  0.0249  0.0056
32045W        W47854   3.203   4.491  10.266 -0.2995 -0.1358  0.0208
32046W        W47855  18.543   8.878  10.841  0.3188  0.1147 -0.3752
32047W        W47856  14.387  12.778  12.561  0.1386  0.0617 -0.0138
32048W        W47857   8.697   2.730  13.007  0.0481  0.0806 -0.0932
32049W        W47858   1.207  16.484   3.052  0.2287  0.2240  0.1848
32050W        W47859   7.040  16.986   4.841 -0.0817 -0.0600  0.3199
32051W        W47860  15.982  12.196   4.572 -0.0546 -0.0257 -0.0046
32052W        W47861  12.157   7.491  14.908  0.0035 -0.0614 -0.0784
32053W        W47862  17.280   6.148  13.759 -0.2281 -0.0256 -0.1517
32054W        W47863  17.656  12.204  13.954  0.2127  0.0984 -0.2024
32055W        W47864   8.364   6.212  12.581  0.1752  0.1833 -0.0664
32056W        W47865  18.418   9.739  13.947 -0.2261  0.1467  0.0165
32057W        W47866   1.610   6.157   4.291  0.1605 -0.0899  0.2549
32058W        W47867   3.147   6.404   1.918 -0.0900 -0.1377 -0.2784
32059W        W47868   8.496  17.260   2.667 -0.0172  0.1646 -0.3457
32060W        W47869   4.512   1.758   4.622  0.1046  0.3247  0.3198
32061W        W47870  13.979  17.879  13.823 -0.0328 -0.1595 -0.0039
32062W        W47871   6.453  17.340   0.557  0.2998  0.3591  0.0581
32063W        W47872  10.723   5.004  12.239  0.3145  0.1249 -0.1757
32064W        W47873   4.666  13.061   3.535 -0.0387 -0.0708 -0.1892
32065W        W47874   6.145  13.210  13.739 -0.0846  0.0310  0.0948
32066W        W47875  13.968   4.018  14.839  0.4011  0.1887  0.1862
32067W        W47876  16.920  17.615   1.144 -0.0634  0.0716 -0.1714
32068W        W47877  17.615  10.995  12.088 -0.1300  0.5150 -0.1185
32069W        W47878   9.468   7.628  14.143 -0.2702  0.1919 -0.0484
32070W        W47879   0.092   5.403   3.522  0.1751 -0.1087  0.1523
32071W        W47880   9.006   7.964   5.219 -0.2873 -0.4829 -0.0775
32072W        W47881   6.745   9.701   0.725 -0.1888 -0.0831  0.0342
32073W        W47882   3.280  10.534  14.280  0.0399 -0.1078 -0.0766
32074W        W47883   8.638  15.026   4.903  0.0970  0.1675 -0.0324
32075W        W47884  16.808  13.211   5.931 -0.0800 -0.0801  0.1744
32076W        W47885   1.382   9.654   1.959 -0.1009  0.1220  0.1394
32077W        W47886  14.598   2.423   3.012 -0.1032  0.0171 -0.0309
32078W        W47887   8.322  11.369  11.126  0.3072 -0.2722  0.1346
32079W        W47888  12.268   3.966   0.759  0.1742  0.0316  0.1979
32080W        W47889   4.503   6.844   1.076 -0.0433 -0.2014  0.2655
32081W        W47890  17.554  18.886   3.581  0.2514  0.1576 -0.1871
32082W        W47891   0.561  13.550   1.562 -0.1052 -0.1930  0.0481
32083W        W47892   8.445   0.148   4.475  0.0224  0.1373  0.0978
32084W        W47893  13.396   8.152  12.630  0.0418  0.0142  0.1701
32085W        W47894  17.232  16.612  12.112  0.2181 -0.0612 -0.0405
32086W        W47895  11.854   1.954   2.294  0.1061  0.1489  0.1146
32087W        W47896  15.450  16.451  12.950 -0.0686  0.0432  0.1444
32088W        W47897  15.179   8.248  14.096 -0.0600  0.4001 -0.5134
32089W        W47898   9.484   3.570   0.090  0.2624  0.1607  0.1094
32090W        W47899  18.406  14.799   2.422  0.1279 -0.1618 -0.0715
32091W        W47900   1.437  19.051   2.716  0.1185  0.0205 -0.3394
32092W        W47901  14.107   1.170  13.514 -0.1143 -0.2434  0.0493
32093W        W47902  13.805  10.960  13.811  0.0435 -0.3223  0.0691
32094W        W47903  13.723  15.301   3.178 -0.0833 -0.0661  0.1452
32095W        W47904   0.705   2.506  11.840  0.1330 -0.0936  0.2145
32096W        W47905   1.729  13.806   0.919 -0.1089  0.0333  0.0239
32097W        W47906  18.037   1.997  12.703 -0.0401 -0.0111  0.2107
32098W        W47907  13.495   6.573  13.153  0.1260 -0.2622 -0.2539
32099W        W47908  12.128  18.371   2.396  0.1051 -0.0403  0.0779
32100W        W47909   0.609   5.479   3.548  0.1623  0.0933  0.3479
32101W        W47910   4.681   5.685  14.062 -0.0513  0.3408 -0.3679
32102W        W47911   5.693   0.401  11.142  0.2391 -0.4414 -0.0129
32103W        W47912   9.530  12.153  12.523  0.1526  0.2772 -0.2767
32104W        W47913   7.379   2.284   2.205  0.0096 -0.3381 -0.3098
32105W        W47914  17.936   9.759  11.701 -0.1955  0.0437 -0.2561
32106W        W47915   7.927   1.664  13.916 -0.0111  0.0984 -0.0708
32107W        W47916  16.808  13.084  11.403 -0.1122  0.0144 -0.1853
32108W        W47917   5.669   2.768  13.847 -0.5425  0.2764 -0.1055
32109W        W47918   2.140   2.578  11.866 -0.0918  0.3951 -0.0178
32110W        W47919   5.429   1.356  12.853 -0.1016  0.2995 -0.2135
32111W        W47920   3.206  12.313   2.731 -0.1026  0.0512  0.2209
32112W        W47921  10.653  10.432   2.361 -0.1362 -0.0682 -0.2718
32113W        W47922   0.113  15.914  13.840  0.3416  0.2020 -0.4625
32114W        W47923  17.210   2.767   3.705  0.0878 -0.1246 -0.2764
32115W        W47924  18.736  13.355   1.001 -0.0438  0.1997 -0.0932
32116W        W47925  14.703  11.294  13.291 -0.0151  0.0811 -0.1922
32117W        W47926  12.687  16.943  13.937  0.0677 -0.0546  0.1433
32118W        W47927   8.674   0.062   3.910 -0.1195  0.1269 -0.0668
32119W        W47928  10.205   3.783   4.792  0.1414 -0.0149 -0.2237
32120W        W47929   9.255  12.024  12.055  0.0929 -0.1147  0.1223
32121W        W47930  11.958   3.577   4.419 -0.0933  0.0931  0.0928
32122W        W47931   5.053   5.204   0.765 -0.0659 -0.1181 -0.1159
32123W        W47932   8.110  18.147  12.154  0.1105  0.1879  0.1699
32124W        W47933   6.066  14.541   1.941  0.0130 -0.0126 -0.0452
32125W        W47934   8.432  14.946   5.461  0.1709 -0.3634  0.1413
32126W        W47935   1.236   1.940   2.861 -0.3109 -0.0155  0.1467
32127W        W47936  18.785   6.248  13.466  0.2186  0.0021  0.0780
32128W        W47937   2.467  12.283  12.014  0.1322 -0.4712  0.0759
32129W        W47938  13.059   1.996   2.296  0.2199  0.1302  0.0468
32130W        W47939   0.633   9.066  14.557  0.0902  0.0134  0.2961
32131W        W47940   6.088   0.780  11.914  0.0444 -0.1200 -0.0034
32132W        W47941   8.850  10.755  10.582  0.0344  0.1327 -0.2523
32133W        W47942  14.263   2.818   2.559 -0.2259 -0.3387  0.0698
32134W        W47943   9.934  17.590   5.719  0.2849  0.2802 -0.2681
32135W        W47944   9.168  18.548   0.705  0.0568  0.2168  0.0739
32136W        W47945   6.604   0.275   2.144 -0.0363  0.2724 -0.0030
32137W        W47946  17.022  11.495   2.271 -0.0894 -0.3573  0.1192
32138W        W47947  18.536   9.597  10.223 -0.0739 -0.1149 -0.0177
32139W        W47948  13.775   0.874  13.916 -0.1654 -0.0902 -0.0281
32140W        W47949   4.994  12.915   0.190  0.2128 -0.1641  0.0641
32141W        W47950  18.307  16.485  12.206 -0.1364  0.2263 -0.0154
32142W        W47951  13.598   3.460   4.335 -0.0340 -0.2438  0.2921
32143W        W47952  18.106  17.911  14.643 -0.1704  0.1973 -0.2399
32144W        W47953  14.279   3.818   1.714  0.0113 -0.1540 -0.1612
32145W        W47954   6.163  18.887  13.970  0.3543  0.0021  0.0135
32146W        W47955   2.410  12.688   2.252 -0.0401  0.2428  0.1687
32147W        W47956  16.524  17.619  12.548  0.3933  0.1296  0.0629
32148W        W47957  14.444  15.155   4.211  0.5849  0.3756  0.3626
32149W        W47958  13.634  11.219   5.617 -0.2603  0.1341  0.0831
32150W        W47959   3.127   4.966   4.013  0.0331  0.1785 -0.0653
32151W        W47960   4.331   4.668  11.415  0.2010 -0.1827  0.1411
32152W        W47961  15.283  13.137   3.353 -0.1334 -0.2705  0.3648
32153W        W47962   0.959  15.920  13.624 -0.0495  0.3505 -0.0568
32154W        W47963  17.002  15.116   2.383  0.2110 -0.0688 -0.1286
32155W        W47964  10.157  15.309   2.037 -0.1570  0.1240 -0.0833
32156W        W47965   2.612  15.419  14.474 -0.1601  0.2233  0.0557
32157W        W47966  17.478  18.483  13.122  0.0538 -0.2242 -0.0359
32158W        W47967   3.418   3.587  13.080 -0.0848  0.0080 -0.0645
32159W        W47968  11.488  15.936   5.659  0.0326 -0.2117  0.0797
32160W        W47969  13.239  13.342   6.413  0.4256 -0.1934 -0.1380
32161W        W47970   6.971  11.838  13.354 -0.1087 -0.0471 -0.1197
32162W        W47971   4.916  11.593  12.587 -0.2041  0.1051 -0.2019
32163W        W47972   4.634  17.883  14.267 -0.1396 -0.1207  0.2533
32164W        W47973  14.051   5.824   6.137  0.0379 -0.2153 -0.2594
32165W        W47974   0.517   8.200  14.951 -0.2124 -0.0467 -0.0351
32166W        W47975  15.773   1.483  10.925 -0.1363 -0.2317  0.1357
32167W        W47976   3.116   6.386  12.956 -0.0721  0.2634 -0.2050
32168W        W47977   4.716   8.174  11.285 -0.1719 -0.3625  0.0731
32169W        W47978   2.104   4.933  13.077  0.1895 -0.1158 -0.0571
32170W        W47979   3.961   9.629  13.921 -0.2247 -0.2130 -0.0626
32171W        W47980  11.670  12.928  10.271 -0.1122  0.0542  0.1142
32172W        W47981   9.341   0.398   3.575  0.1314  0.0214  0.1088
32173W        W47982  16.533   4.237   3.965  0.2784 -0.2619 -0.0557
32174W        W47983  12.783  13.136   4.698 -0.1786  0.0409 -0.1329
32175W        W47984   9.010   6.538   1.655 -0.0729  0.0760  0.2206
32176W        W47985   0.047   1.434   0.239 -0.0554  0.2708  0.1813
32177W        W47986  11.209   9.116  12.216 -0.0673  0.2328 -0.1422
32178W        W47987   2.144   0.765   0.237  0.1356 -0.0914 -0.1234
32179W        W47988   7.623  11.457   0.149 -0.2027  0.0728  0.1862
32180W        W47989   8.791   7.860   2.114 -0.4842 -0.0605 -0.0160
32181W        W47990  18.217  18.035   2.779  0.1550 -0.1671 -0.2075
32182W        W47991  10.423   8.467   0.699 -0.0858 -0.0342  0.0227
32183W        W47992   3.488   8.141   3.187  0.1032  0.1246  0.0079
32184W        W47993  18.263   6.763   9.511  0.3189 -0.2436  0.1204
32185W        W47994   8.831  11.078   2.329  0.1612  0.1420  0.2376
32186W        W47995   6.457  15.251   3.238 -0.2516  0.1841 -0.1212
32187W        W47996   7.553   7.465  12.400 -0.1587  0.0901  0.0622
32188W        W47997   6.593  10.799   4.352 -0.1626 -0.1160  0.1570
32189W        W47998   9.602   5.792  11.926  0.2322 -0.0408 -0.0208
32190W        W47999   4.118  10.727   0.541 -0.2394  0.0520 -0.2012
32191W        W48000   8.117   2.816   1.390  0.0203 -0.5973  0.1466
32192W        W48001  13.351  11.883  13.186 -0.4182  0.0293  0.2562
32193W        W48002  19.032   3.326   5.653  0.0508  0.0188  0.2944
32194W        W48003  11.707  14.698   0.113  0.0754 -0.1061  0.0371
32195W        W48004   4.457   7.297  11.531 -0.0615 -0.2437  0.0028
32196W        W48005  13.112   2.584  14.782  0.3023 -0.1918  0.1766
32197W        W48006   6.610  14.870  10.431 -0.1123  0.0519 -0.2524
32198W        W48007   0.452   8.508  10.959  0.0702 -0.1510  0.2606
32199W        W48008  11.548  18.290   2.556  0.2091  0.1525 -0.0569
32200W        W48009  16.688   1.299  11.088  0.0354 -0.2573  0.1749
32201W        W48010  13.736  12.835   9.999  0.0214 -0.0814  0.0854
32202W        W48011   4.843   8.882  10.773  0.1944  0.1544  0.0233
32203W        W48012  14.865  17.965   4.283  0.0210  0.3794 -0.2829
32204W        W48013   9.794   4.117  11.569  0.0097 -0.0160 -0.0033
32205W        W48014  17.246   1.063  12.309 -0.0825  0.0935 -0.0160
32206W        W48015   1.972  18.196  12.433  0.3921  0.1016  0.0018
32207W        W48016  17.565   2.721  12.636  0.2219  0.3332  0.0299
32208W        W48017  11.278  10.892   5.099 -0.1793 -0.2085  0.1755
32209W        W48018  19.052  13.768   5.091 -0.0435 -0.0703 -0.0728
32210W        W48019   5.463  14.638  12.267 -0.0228 -0.0731 -0.0836
32211W        W48020   1.566  17.535  13.432 -0.4140  0.0668 -0.0121
32212W        W48021   9.173  11.191  13.989 -0.1218 -0.2044 -0.1156
32213W        W48022   4.491  16.091   4.595 -0.3256  0.2892  0.3143
32214W        W48023  11.165  18.198  14.850 -0.0103  0.0115  0.0813
32215W        W48024   6.117   1.423  13.726  0.1892 -0.2528 -0.0723
32216W        W48025   4.581   9.685  13.646 -0.1218  0.1975  0.0179
32217W        W48026   0.095   7.712  11.186  0.1489 -0.0175 -0.0355
32218W        W48027   7.444   6.191  15.206  0.1031  0.2906 -0.0183
32219W        W48028   8.786   2.175   5.166  0.0208  0.0223 -0.2110
32220W        W48029   4.388  18.839  11.446 -0.2635  0.2600 -0.0083
32221W        W48030  14.517  11.372   3.062  0.2887 -0.0243 -0.0222
32222W        W48031   0.227   0.819  13.095  0.0313 -0.0289 -0.1802
32223W        W48032  14.297   6.079   4.146  0.2772 -0.1472 -0.2790
32224W        W48033   9.515   4.545  10.065  0.2100 -0.0905  0.3463
32225W        W48034   6.242  17.964  13.632 -0.0126 -0.1209 -0.1446
32226W        W48035  11.352   7.483  14.552  0.2771  0.0800  0.0896
32227W        W48036   7.153  14.633  11.772  0.0594 -0.1329 -0.0395
32228W        W48037   2.385   9.972   2.699 -0.0228 -0.0426  0.0105
32229W        W48038   7.757   7.091   0.290 -0.3011 -0.0141 -0.0398
32230W        W48039  14.798  16.669   4.036  0.3600  0.0398  0.2435
32231W        W48040   5.655  10.925  14.692 -0.2625  0.2450  0.0675
32232W        W48041  15.109  18.915   3.331 -0.3348 -0.0881  0.1315
32233W        W48042  12.687  11.293   5.225  0.1278 -0.5752 -0.0861
32234W        W48043  12.556   7.205  14.122 -0.0611 -0.1936  0.0500
32235W        W48044   2.932   6.322   2.996  0.0425 -0.1974 -0.0014
32236W        W48045   0.453   8.353   3.206  0.2132 -0.0363 -0.1736
32237W        W48046  18.487  11.508   1.506 -0.3377  0.2989  0.1993
32238W        W48047   5.708  16.523  12.826 -0.1927  0.2627 -0.3563
32239W        W48048  11.367   3.703   0.307 -0.1440  0.0507  0.0919
32240W        W48049   9.129  10.720  12.692 -0.1166  0.1749 -0.1970
32241W        W48050   6.065   9.255   5.170 -0.3463 -0.1252  0.2792
32242W        W48051   6.035  13.870   5.391 -0.4051  0.1259  0.1276
32243W        W48052   6.321   7.646  14.086 -0.1183 -0.1971  0.1295
32244W        W48053  10.173   1.980  11.469  0.0069  0.0065 -0.4025
32245W        W48054  13.544  18.597  14.259  0.0051  0.0897  0.3024
32246W        W48055   6.641   5.607  11.134  0.6408 -0.0976 -0.1523
32247W        W48056   6.723  13.306   0.528  0.1652 -0.1162 -0.0280
32248W        W48057  19.158   5.600   4.473  0.1809 -0.2719  0.0103
32249W        W48058  10.616   1.007   2.934  0.3252  0.1416 -0.1000
32250W        W48059  18.423  17.503   0.615  0.0621 -0.3810 -0.0210
32251W        W48060  18.129  16.784   3.196 -0.0445 -0.0357 -0.0935
32252W        W48061  10.050  18.355  11.236 -0.2119 -0.1926 -0.1212
32253W        W48062  15.603   1.829  13.107  0.0149 -0.3840  0.2871
32254W        W48063  16.243   1.132  11.398 -0.0844  0.1926  0.2892
32255W        W48064  13.322   1.424  11.372 -0.1924  0.2588 -0.1906
32256W        W48065  14.405  16.624  12.176  0.1501 -0.0746 -0.0133
32257W        W48066  11.658   1.424  13.274  0.0488  0.1162 -0.0130
32258W        W48067   4.908   7.503   2.009  0.2228  0.1689  0.3340
32259W        W48068   7.777  15.493  12.643  0.1565 -0.0897  0.2414
32260W        W48069  11.209   6.637   4.702  0.0019 -0.0691  0.4022
32261W        W48070   8.344  10.342   4.684 -0.4479 -0.1833 -0.2046
32262W        W48071  13.433  14.770   5.144 -0.0471 -0.3334 -0.1337
32263W        W48072  16.659   0.913  14.960  0.0881  0.0244 -0.1692
32264W        W48073  18.827   2.139   3.343 -0.1198  0.1154  0.2423
32265W        W48074   0.721  16.521  11.429 -0.4248  0.1186  0.2324
32266W        W48075   5.834  16.579   1.838 -0.0519 -0.0739  0.2039
32267W        W48076  15.105   0.641   5.455 -0.2155  0.0334  0.2021
32268W        W48077  13.057  17.718   1.172 -0.2818 -0.1909 -0.0091
32269W        W48078  15.928  15.051   4.602 -0.0885  0.0214  0.2832
32270W        W48079  16.961   2.681  12.076  0.1299 -0.3536  0.0961
32271W        W48080   7.169   9.973   1.970  0.3180 -0.2993 -0.3464
32272W        W48081   7.636  18.028   1.734  0.2637  0.0052  0.1079
32273W        W48082   4.817  10.512  11.196  0.0252 -0.1118  0.1013
32274W        W48083  14.432   1.129  11.212 -0.0348  0.0461 -0.0550
32275W        W48084  15.623  15.491  11.726 -0.2640 -0.4483 -0.0076
32276W        W48085  12.175   4.082  11.552  0.2481 -0.3137  0.0868
32277W        W48086  13.655   4.244  14.437 -0.3040  0.2872 -0.1709
32278W        W48087   4.677   0.167  10.677 -0.2893  0.5066  0.5267
32279W        W48088   8.543  12.505   0.933 -0.0996 -0.0431 -0.1335
32280W        W48089   6.330   3.047   3.530  0.0278 -0.1654  0.1101
32281W        W48090  15.637  17.426  15.093  0.2747  0.1650 -0.2397
32282W        W48091  15.918   0.418  15.191  0.0350 -0.1017  0.0902
32283W        W48092   5.782   5.879   0.219  0.0582 -0.3094 -0.1257
32284W        W48093   2.559   8.376   0.550 -0.2902  0.0445 -0.2225
32285W        W48094  14.461   3.339   0.384 -0.3875  0.0629  0.0990
32286W        W48095  11.932   0.985   9.916 -0.3596 -0.2969  0.0121
32287W        W48096   6.172  15.777  12.073  0.0173  0.0117 -0.0557
32288W        W48097  11.493   5.179   3.935  0.2637 -0.3552 -0.3727
32289W        W48098  16.520  14.938   4.326 -0.0576  0.0116  0.1133
32290W        W48099   7.333  18.823   0.524  0.0490  0.1928 -0.2283
32291W        W48100  16.737  15.193  10.421  0.0786 -0.1221  0.0338
32292W        W48101   9.973   3.444   0.968 -0.1962 -0.1709 -0.0997
32293W        W48102  10.630   0.932   4.188  0.2008  0.1252 -0.1554
32294W        W48103  16.970   4.387   2.829 -0.0519  0.2185 -0.0039
32295W        W48104   5.090   7.383  10.397  0.1784  0.1685  0.2363
32296W        W48105  12.075   9.321  11.992 -0.0575  0.3013  0.0079
32297W        W48106  16.109  14.393   2.626 -0.0906  0.0742  0.1396
32298W        W48107   9.065  12.942  12.627 -0.1009  0.1026  0.2342
32299W        W48108   1.556  12.383  14.881 -0.0143 -0.0574  0.1538
32300W        W48109   4.365   7.709   0.235  0.0203  0.1773  0.1301
32301W        W48110  16.091   5.076  15.071 -0.0825 -0.0614 -0.2078
32302W        W48111  17.109   5.293  13.343  0.0907  0.1332  0.0447
32303W        W48112   0.864   1.666  12.578 -0.0393 -0.0736 -0.0012
32304W        W48113  17.956   5.632   2.773 -0.1643  0.0343  0.0611
32305W        W48114   3.232   3.369  10.295 -0.0517 -0.2139  0.5449
32306W        W48115   2.566  11.642  12.888  0.4067 -0.1880  0.0094
32307W        W48116  10.533  11.930   0.790 -0.0138 -0.1269 -0.2497
32308W        W48117  13.949  14.364   4.262 -0.2008 -0.1041 -0.2232
32309W        W48118  18.542  15.672   1.254  0.2385  0.1684  0.1397
32310W        W48119   1.674   6.695   4.630 -0.3195 -0.1500 -0.0988
32311W        W48120   9.509   6.900   0.687  0.0368  0.3201  0.1962
32312W        W48121   1.000   9.798  14.196 -0.0104  0.3693  0.3330
32313W        W48122  10.094   3.479   2.066 -0.4178 -0.2041 -0.0162
32314W        W48123  11.281  14.985  10.908 -0.1871 -0.4012  0.1414
32315W        W48124   9.089   9.519   3.553 -0.0738 -0.2491  0.1345
32316W        W48125   2.854   4.479   2.736  0.0095 -0.2319  0.3193
32317W        W48126   2.878   7.658   2.767  0.0254  0.3014  0.0728
32318W        W48127   1.104  16.667   3.578  0.2215  0.0137  0.1170
32319W        W48128   5.247   3.575   5.166  0.3584  0.5849 -0.0823
32320W        W48129  16.014   4.134   3.740 -0.1312 -0.0557  0.0277
32321W        W48130   1.108  12.205  11.329  0.0361  0.0467  0.1834
32322W        W48131   9.746  14.383   3.985 -0.0932 -0.1271 -0.0848
32323W        W48132  18.206   1.166   5.696  0.2635  0.0893  0.0348
32324W        W48133   0.178  14.469  11.992  0.0876  0.3642 -0.1592
32325W        W48134   6.222  16.653   0.381 -0.0595  0.1038  0.0848
32326W        W48135   2.923   4.582   3.221  0.3975 -0.3979 -0.1747
32327W        W48136   5.655  12.872  11.774 -0.0862 -0.2928  0.0151
32328W        W48137   0.088   2.953   0.134  0.3513  0.0119  0.0255
32329W        W48138   7.469   9.650  11.450  0.1098 -0.2762  0.3594
32330W        W48139   9.650   0.433   0.510  0.0244 -0.0394  0.2785
32331W        W48140  16.168   4.283   1.969  0.1329 -0.2064 -0.1203
32332W        W48141  11.648  17.255   5.072  0.3729  0.5086  0.2064
32333W        W48142   1.686   0.543  11.721  0.1853 -0.0477 -0.3902
32334W        W48143  17.303   1.828  11.679  0.0535  0.0459  0.2063
32335W        W48144   6.363  10.897  13.195  0.0416 -0.2486 -0.2415
32336W        W48145   9.987   1.692   4.774 -0.4536  0.0477 -0.3722
32337W        W48146  10.605   2.271   9.600  0.1438 -0.4809  0.4462
32338W        W48147   0.806   8.433   2.328 -0.1612  0.1442 -0.0161
32339W        W48148   1.243  14.008  14.961  0.1860  0.2375  0.2091
32340W        W48149   9.060   5.465   4.729  0.1502  0.0384 -0.0807
32341W        W48150   2.404   0.322  14.122 -0.0474  0.4765 -0.2166
32342W        W48151   3.433  14.912  14.159  0.0666  0.0244  0.0037
32343W        W48152   0.274  18.129   1.191  0.0329  0.0698 -0.2091
32344W        W48153  15.973   1.304  15.036 -0.2426  0.0499 -0.0013
32345W        W48154   3.158   0.070  11.496  0.0546  0.1255  0.0366
32346W        W48155  18.447   8.030  10.221  0.0638 -0.4499  0.1026
32347W        W48156   8.309  12.191  14.720 -0.0860 -0.1511  0.1310
32348W        W48157  18.599  14.139   0.283 -0.0244 -0.3369 -0.2236
32349W        W48158  14.382   7.455   5.039  0.1714 -0.4976  0.0206
32350W        W48159   1.050   7.048   4.066  0.1411  0.0644 -0.2245
32351W        W48160   3.544  17.419   2.807  0.1831 -0.0096 -0.1461
32352W        W48161  17.959  11.295  13.943 -0.0550  0.1556 -0.2583
32353W        W48162  11.016   2.802   4.343 -0.0847 -0.2711 -0.0879
32354W        W48163  18.728  18.412   1.369 -0.1827 -0.1099 -0.1315
32355W        W48164   6.007  14.588   3.165  0.1638 -0.1869  0.1717
32356W        W48165  10.704  12.190   4.308  0.2949  0.2993  0.2735
32357W        W48166   6.121   7.756  15.104 -0.3804  0.0434 -0.0992
32358W        W48167   9.494   6.548  14.826 -0.0879  0.0926 -0.1762
32359W        W48168   5.881   6.015  14.962 -0.0065  0.1292 -0.1382
32360W        W48169  17.237   2.965   1.203  0.2131 -0.2950  0.0720
32361W        W48170  15.848  10.304  12.688  0.2014 -0.0103 -0.2700
32362W        W48171  13.313   2.924   1.762 -0.3150  0.0382 -0.0389
32363W        W48172   2.288  14.052   0.982  0.1635  0.1107  0.1961
32364W        W48173   4.802   6.679   0.164  0.3296  0.0257 -0.2429
32365W        W48174  17.687  17.405  14.832 -0.0955  0.1906  0.3214
32366W        W48175  18.017  10.373   3.832 -0.0950  0.0535  0.4607
32367W        W48176  17.448   2.812  10.553 -0.1743  0.5257 -0.2374
32368W        W48177  16.902  10.171  14.433  0.1174  0.0870 -0.3005
32369W        W48178  12.832  15.453   1.296  0.0718 -0.0568 -0.1997
32370W        W48179   4.054  18.857  11.850 -0.1521 -0.1911  0.3874
32371W        W48180  10.488   0.657  13.983  0.0478  0.3784 -0.3239
32372W        W48181   4.305  18.269   4.842  0.1023 -0.1039 -0.1144
32373W        W48182  11.174  17.688  14.687 -0.1868  0.3206  0.1970
32374W        W48183  18.705  16.509  14.913  0.1725  0.3172  0.2704
32375W        W48184   1.156   2.653  12.740  0.2260  0.1128  0.0438
32376W        W48185  10.852   9.734  10.671  0.1860 -0.2258  0.0326
32377W        W48186   5.880  11.718  13.401  0.2643  0.1010 -0.2340
32378W        W48187   6.423   4.432   1.259  0.0792  0.1306 -0.0960
32379W        W48188   3.722  13.575   1.420  0.0136  0.1130 -0.1114
32380W        W48189  15.874  12.694  11.426 -0.3786 -0.3240  0.1808
32381W        W48190   2.308  16.626   2.372 -0.0361 -0.0195 -0.0202
32382W        W48191  11.723   6.129  11.359  0.1861 -0.1358 -0.1374
32383W        W48192   3.830  17.695   1.792  0.3544 -0.1004 -0.0308
32384W        W48193  17.078   5.714  12.325 -0.3948 -0.2360 -0.2777
32385W        W48194  15.723  12.039  10.916  0.2643 -0.0051 -0.0567
32386W        W48195   0.521  13.038   1.485 -0.0424  0.1243  0.1067
32387W        W48196  10.235   3.505  10.961  0.0942  0.0316 -0.3701
32388W        W48197   4.949  14.995   1.328  0.0517 -0.0678 -0.0925
32389W        W48198  10.197  13.437  12.613  0.3035 -0.0180  0.0112
32390W        W48199   7.172   3.737   2.127 -0.0284 -0.1279  0.3350
32391W        W48200   4.664   1.632   0.758 -0.0624 -0.1710 -0.0893
32392W        W48201  12.231   0.833  14.056 -0.2633 -0.0277  0.3456
32393W        W48202  18.388   5.569   5.844 -0.0932 -0.2952  0.1057
32394W        W48203   7.292  12.000   4.211  0.0769 -0.1274 -0.1767
32395W        W48204  15.888  11.197  12.819 -0.0577  0.0552  0.0603
32396W        W48205  18.000   7.650   0.511  0.0277 -0.1864  0.0985
32397W        W48206  15.602  17.668   1.830  0.1764  0.2393 -0.1793
32398W        W48207   0.478  13.988   4.346  0.0773  0.0616  0.0818
32399W        W48208   0.926   4.256   1.966  0.1426 -0.2106 -0.2004
32400W        W48209   1.377   7.224  10.803 -0.0603 -0.0915  0.1107
32401W        W48210  12.849   3.183  10.201  0.3031 -0.1933 -0.2675
32402W        W48211   5.265  17.936   3.576  0.2498  0.0589 -0.0340
32403W        W48212   9.992   7.032  13.203 -0.0299  0.2009 -0.0338
32404W        W48213   7.239   3.406   4.681 -0.1183  0.2174  0.1028
32405W        W48214   8.350   9.101   0.090  0.4712 -0.1292  0.1961
32406W        W48215   2.450   4.847   1.878 -0.3896  0.0489 -0.4248
32407W        W48216  12.586  11.547  13.483  0.1796  0.2693 -0.0856
32408W        W48217  15.236   8.985  11.522  0.2518  0.0927 -0.0259
32409W        W48218  18.930   1.629  14.495  0.0878 -0.0393  0.2103
32410W        W48219   5.875   6.778  10.660  0.0560 -0.2837 -0.1191
32411W        W48220   9.652   6.843  12.685 -0.2594 -0.1136 -0.3315
32412W        W48221   8.673  17.872  14.336 -0.0323  0.0328 -0.1581
32413W        W48222  11.229  14.584   5.110  0.1156 -0.2309 -0.0023
32414W        W48223  13.894  16.848  12.951  0.1143  0.3687 -0.0703
32415W        W48224   9.671   8.201   4.323  0.2179  0.3904  0.0686
32416W        W48225  14.486   1.756   0.589 -0.3231  0.1460 -0.2415
32417W        W48226   7.964  10.807   4.221 -0.1631  0.4287 -0.2332
32418W        W48227  14.028  18.206   2.532 -0.1546 -0.4257  0.1749
32419W        W48228   7.119  16.368   2.343 -0.1217 -0.0793 -0.1526
32420W        W48229  14.505   9.357   5.322 -0.2178 -0.0288 -0.2003
32421W        W48230   2.721  12.157   3.169  0.3497  0.1452  0.1781
32422W        W48231  12.279  11.121  13.302  0.2266  0.3072  0.3665
32423W        W48232  16.265   3.982   4.460  0.3327 -0.0929  0.0560
32424W        W48233   7.181   1.830   1.951 -0.0118  0.0215 -0.0105
32425W        W48234   9.520   8.813  14.014  0.0390 -0.1312 -0.1593
32426W        W48235   1.906   4.655  13.652  0.3147  0.1805 -0.1195
32427W        W48236  11.418  17.009  12.646  0.3663  0.0017 -0.2659
32428W        W48237  14.431  13.232  11.193  0.0763  0.1644 -0.1105
32429W        W48238   6.336  12.726  15.096 -0.4216 -0.0712 -0.0819
32430W        W48239  15.363  17.000   5.503  0.0119  0.1611  0.2420
32431W        W48240   9.400   1.130   0.255  0.1387  0.2911 -0.0313
32432W        W48241   8.721  18.248   3.274  0.2201 -0.1294 -0.1464
32433W        W48242   1.005  17.923   0.475 -0.2568  0.0994  0.3929
32434W        W48243  14.665  12.878   2.567  0.0645 -0.2452 -0.0292
32435W        W48244  13.650  12.737   4.987  0.2776  0.2010  0.1311
32436W        W48245   9.349   3.570  13.756  0.2107  0.3707  0.2526
32437W        W48246  12.578  16.564   3.689 -0.1469  0.0835 -0.1490
32438W        W48247   6.674  15.142   1.714 -0.0944  0.0905 -0.2281
32439W        W48248  15.869   3.870   0.626 -0.0424  0.0066  0.0041
32440W        W48249  13.600   0.007   3.380  0.2525 -0.1714 -0.0576
32441W        W48250  15.645  15.903   3.397 -0.0343 -0.0002 -0.5249
32442W        W48251   8.057   8.750  12.118  0.0954 -0.2289 -0.2591
32443W        W48252  14.785  12.964  12.789 -0.2723  0.4964  0.3044
32444W        W48253   5.759   0.859   4.248  0.0030  0.0190 -0.0268
32445W        W48254   7.592  18.258  15.129  0.0690  0.3098 -0.3116
32446W        W48255   8.450   3.920   5.126 -0.0944  0.0721  0.1176
32447W        W48256   9.087  19.057   3.588 -0.3332 -0.1943 -0.0987
32448W        W48257   9.068   2.033  14.485 -0.2978 -0.2505  0.0142
32449W        W48258   5.794   7.751  11.093 -0.0480 -0.2602 -0.0864
32450W        W48259  15.745   2.362  11.253  0.1476 -0.0155 -0.1103
32451W        W48260   3.353   6.250   0.070  0.1289 -0.1514  0.1739
32452W        W48261   4.767   6.165   1.790  0.2100  0.2296  0.2586
32453W        W48262   9.751  11.880  10.738  0.1984 -0.0185 -0.3509
32454W        W48263  10.523   2.412  12.778  0.0652  0.0341  0.2638
32455W        W48264  12.740   5.091   4.277  0.1143 -0.1671  0.4031
32456W        W48265   2.911   0.732  13.032 -0.0321  0.2628  0.0193
32457W        W48266  10.528  17.148   3.250 -0.0223  0.3171  0.0103
32458W        W48267  17.704   8.924  10.963 -0.3303 -0.2877  0.0421
32459W        W48268   8.672   2.462  11.780  0.3125 -0.3472  0.3025
32460W        W48269   9.777   3.101   2.881  0.3046 -0.2575 -0.1802
32461W        W48270  13.244   6.783   0.945  0.0103 -0.3278 -0.0014
32462W        W48271   0.909   0.186   0.309  0.3821  0.0426  0.1291
32463W        W48272  13.376  11.168   1.560 -0.0200 -0.1758 -0.0282
32464W        W48273  11.359  10.697  11.442  0.1897 -0.1711 -0.2919
32465W        W48274   2.299   9.223  13.514  0.0893 -0.1291 -0.0565
32466W        W48275  10.951   0.242  15.037  0.2055  0.1394 -0.0055
32467W        W48276   6.107  10.551   2.133 -0.0237  0.0477 -0.0726
32468W        W48277  14.058   2.030  13.953  0.2788  0.2356  0.0259
32469W        W48278  17.435  11.500   4.954  0.0600 -0.4646  0.0617
32470W        W48279   1.517  14.204   9.524 -0.1024 -0.1001 -0.1503
32471W        W48280   6.709  17.043   2.844  0.2119  0.2454  0.1060
32472W        W48281  17.013   1.677   3.023  0.0788 -0.3223  0.1536
32473W        W48282  12.126  13.135   4.298  0.0559 -0.0791  0.7082
32474W        W48283   5.670  16.602   0.444  0.0272  0.2230  0.0420
32475W        W48284  18.838   1.555  11.535  0.0282  0.3143 -0.0480
32476W        W48285   5.935   4.812  13.427 -0.0601 -0.1435  0.0773
32477W        W48286  13.196  13.169   1.412  0.2791 -0.4671  0.1602
32478W        W48287  18.045   2.447   1.435 -0.2012 -0.1223  0.1262
32479W        W48288   4.974  13.014   2.589 -0.2123 -0.2541 -0.1085
32480W        W48289  15.614   6.020   2.295  0.0401 -0.0177 -0.0858
32481W        W48290   8.191  15.828  13.274 -0.0849 -0.0808 -0.3618
32482W        W48291   2.097   4.125  11.618  0.4076 -0.1848  0.1970
32483W        W48292  18.434  11.156  13.758  0.0622 -0.0072 -0.1689
32484W        W48293   7.517   1.117   4.557  0.1247  0.1171  0.2426
32485W        W48294  14.869  18.254   4.746 -0.1210  0.0824 -0.0451
32486W        W48295   9.818   7.343  12.639  0.3964 -0.1549 -0.2253
32487W        W48296  17.978  15.575   0.705  0.0625 -0.2710 -0.1259
32488W        W48297   0.078  14.547   0.777  0.0745 -0.1802 -0.2423
32489W        W48298  18.828  11.564   5.352  0.0227  0.0155 -0.1798
32490W        W48299   6.750   5.527   2.224  0.0384 -0.0615  0.1970
32491W        W48300  15.231   1.080   5.004  0.0060  0.1183  0.0914
32492W        W48301   3.349   5.258  11.278 -0.0945  0.1111 -0.0219
32493W        W48302   7.146   5.597  13.225  0.0347 -0.0164  0.5058
32494W        W48303   1.112   9.122  11.042 -0.3717  0.2185  0.1115
32495W        W48304  18.728  11.797  11.920 -0.1707 -0.2584 -0.2523
32496W        W48305   5.764  14.997  12.664 -0.1200  0.0573  0.0776
32497W        W48306  15.656  17.569   0.484 -0.1090  0.0105  0.1706
32498W        W48307  13.848   0.379   4.229  0.1090  0.0468 -0.4852
32499W        W48308   1.731  18.757   2.293 -0.0648  0.3497 -0.0304
32500W        W48309   2.966  12.276   2.205 -0.2496 -0.1158  0.1342
32501W        W48310  17.328   5.509   1.471  0.1704  0.2519 -0.2897
32502W        W48311  16.037   3.905  13.939  0.0660  0.1453  0.0130
32503W        W48312   1.323   0.793  14.930 -0.3751 -0.1355  0.0234
32504W        W48313   9.368   0.108   1.829 -0.1655  0.2621 -0.2022
32505W        W48314   5.479   5.753  12.617 -0.0233  0.3722 -0.2344
32506W        W48315  18.275   1.408  11.159 -0.2407  0.1993 -0.1877
32507W        W48316   2.153   8.642  11.817  0.3444 -0.3487 -0.1616
32508W        W48317   0.373   6.817  13.471 -0.0585 -0.1952 -0.1908
32509W        W48318   8.335   5.377  13.932 -0.3592 -0.1893 -0.0728
32510W        W48319   3.361   4.424  14.745  0.0427 -0.2434 -0.0880
32511W        W48320   8.872   6.567  15.051  0.3637 -0.0543  0.0227
32512W        W48321   2.847   0.230  10.457  0.5713  0.0389  0.1835
32513W        W48322   8.627   9.515  13.656  0.0393 -0.1831  0.0670
32514W        W48323   5.259  15.570  12.096 -0.1247  0.0656 -0.1438
32515W        W48324  19.132  13.771   1.830  0.0358 -0.0618 -0.3545
32516W        W48325   3.366  14.487  13.880 -0.0012 -0.0070 -0.0078
32517W        W48326   2.778  11.540   2.283 -0.0964  0.2130 -0.0880
32518W        W48327   7.914   9.819   4.589 -0.2062  0.0494 -0.4339
32519W        W48328   2.605   1.895  15.218 -0.1374  0.0709 -0.0785
32520W        W48329  19.040   1.551   3.445  0.1603 -0.0636  0.0614
32521W        W48330   8.436  14.949  14.625  0.2480  0.1882 -0.1709
32522W        W48331  11.769   0.357  11.862  0.4213 -0.3240  0.0996
32523W        W48332   0.460   8.691   1.954  0.1839  0.3675  0.0766
32524W        W48333  11.868   4.294  12.426 -0.1415  0.0139 -0.1439
32525W        W48334  10.350  12.806  13.174  0.0001  0.1560 -0.1751
32526W        W48335  12.500   1.929  13.288  0.0914 -0.1146  0.2015
32527W        W48336   1.770   2.809   3.255  0.0851 -0.0584  0.0168
32528W        W48337   6.432  18.617   1.452  0.0871 -0.0599  0.1303
32529W        W48338   1.201   6.127   1.938 -0.0160  0.1903  0.2272
32530W        W48339   7.605   1.959   3.574 -0.2585  0.2460  0.2107
32531W        W48340   0.879  18.105   0.026  0.1003 -0.0666  0.2032
32532W        W48341  12.465   5.967   4.455 -0.3950  0.1409  0.1466
32533W        W48342   1.110  12.913  13.973  0.0456  0.2765 -0.2484
32534W        W48343   1.769  14.566   9.872 -0.0573  0.1443 -0.0425
32535W        W48344  14.741  11.451   1.279 -0.3845  0.0858 -0.2380
32536W        W48345  19.074  16.260  14.677 -0.2979 -0.3556 -0.2022
32537W        W48346  16.835  10.861  12.321 -0.3687  0.1536  0.3033
32538W        W48347  18.161  16.146  11.153  0.0434 -0.0166 -0.1323
32539W        W48348  14.903   8.911   2.488 -0.1718  0.1247  0.1068
32540W        W48349   9.561   8.228   5.042  0.0857 -0.3549  0.3955
32541W        W48350   3.755  16.525  11.914 -0.0280  0.1153 -0.1212
32542W        W48351  11.534  12.423  11.416  0.0913  0.3952  0.2127
32543W        W48352   9.050   0.777   4.578 -0.1112  0.0897  0.3464
32544W        W48353   6.814  16.173   3.706  0.0364  0.5457 -0.2269
32545W        W48354   3.376   9.289   0.508  0.0577 -0.0142  0.0075
32546W        W48355   0.411  13.522  10.240  0.2801  0.1166 -0.1338
32547W        W48356   7.006  14.806   0.074  0.4367  0.2556 -0.1077
32548W        W48357  13.645  10.334   0.393  0.3443  0.2843  0.0712
32549W        W48358   9.457  19.042  12.618  0.1233 -0.6068  0.1613
32550W        W48359  16.523   5.490   0.003  0.0756  0.0955  0.1858
32551W        W48360   1.414   6.905   3.802  0.0484  0.0847 -0.1542
32552W        W48361  12.118   0.738  11.862  0.3047  0.1906 -0.0296
32553W        W48362  15.144  18.599   4.515  0.0231 -0.1135  0.1910
32554W        W48363  11.042  13.432   2.855  0.1953  0.0496  0.1294
32555W        W48364   1.939   9.895  14.177  0.0667 -0.1493  0.1853
32556W        W48365   8.387  10.848  13.546  0.2080 -0.4058  0.0479
32557W        W48366   4.057   5.508  13.335 -0.2379  0.0905  0.3380
32558W        W48367   4.813  10.990  11.303  0.2378  0.2493 -0.0517
32559W        W48368  15.481  12.745   0.769  0.2470  0.0433  0.3178
32560W        W48369   8.160   6.668   3.380  0.3656 -0.3172  0.0068
32561W        W48370   0.540   3.790  12.802  0.3094 -0.1877  0.3133
32562W        W48371   0.344   2.017  11.230  0.0971  0.0453 -0.2593
32563W        W48372  11.824  13.841  14.049 -0.2908  0.0705  0.0106
32564W        W48373   2.637   2.393  15.015 -0.2421 -0.5055 -0.4154
32565W        W48374   5.779  14.644  10.508 -0.0113 -0.1145  0.0511
32566W        W48375  18.494  11.810  11.134 -0.0212 -0.0367 -0.2362
32567W        W48376  18.917  12.191   9.725 -0.4067  0.1766  0.0129
32568W        W48377   0.906  17.394  11.023  0.1451  0.0458  0.0253
32569W        W48378   6.249   3.199  11.350 -0.2629  0.1213 -0.0277
32570W        W48379  15.668   5.803  12.080  0.0590 -0.0437  0.0437
32571W        W48380  16.897  15.309   5.481  0.3652 -0.0169  0.4571
32572W        W48381   8.551   0.670  12.155 -0.1583  0.3350  0.0192
32573W        W48382  12.442   1.677   3.077 -0.2415 -0.1564 -0.1358
32574W        W48383   1.277   1.374   2.840 -0.3050 -0.1548  0.0812
32575W        W48384   6.803  18.221  10.544  0.1304 -0.2774 -0.0563
32576W        W48385   9.295  17.404   2.866 -0.3621 -0.0358 -0.2284
32577W        W48386  11.234   7.073   1.383 -0.1310 -0.0507 -0.2059
32578W        W48387  13.342  15.138   4.810  0.1482 -0.0089  0.0048
32579W        W48388  10.126  10.436   0.725  0.0899 -0.1497 -0.0844
32580W        W48389  17.697  18.424   2.118  0.0776 -0.1842  0.0202
32581W        W48390  13.510   3.737  14.624 -0.0366 -0.4981  0.2684
32582W        W48391   2.986   0.197  10.962  0.1959 -0.1308 -0.1252
32583W        W48392   3.823  14.743  11.318  0.2641  0.1697  0.0902
32584W        W48393   0.367   3.640  10.884 -0.0543 -0.1231  0.0450
32585W        W48394   7.578  11.559   9.864 -0.1666  0.0656 -0.0184
32586W        W48395  14.329  12.826  11.754 -0.0395  0.0875 -0.0297
32587W        W48396   1.402   9.113  13.739 -0.0577  0.1425  0.1293
32588W        W48397  10.336   2.631   2.150 -0.2243  0.1455 -0.2380
32589W        W48398  18.849  13.506  13.603 -0.0409 -0.1710 -0.0695
32590W        W48399  14.849  18.291  14.861  0.0734 -0.0306 -0.2071
32591W        W48400  12.944   5.134   5.611 -0.0018  0.0999 -0.1220
32592W        W48401  16.219  14.871  12.220  0.3471  0.2510 -0.2110
32593W        W48402   0.646  14.863  11.530 -0.4352  0.2750  0.0716
32594W        W48403  11.937   1.317  10.353 -0.2257 -0.0845 -0.3452
32595W        W48404  18.908   4.251   2.364 -0.2408 -0.0282 -0.0985
32596W        W48405   9.374   0.900   5.641 -0.0275  0.5902 -0.0349
32597W        W48406   4.295  11.750  11.401  0.1038  0.0370  0.2739
32598W        W48407   2.999  11.639  11.628  0.1386  0.1402  0.1346
32599W        W48408   0.029  18.619   1.483 -0.1742 -0.1209 -0.1977
32600W        W48409  14.884   1.589  14.050  0.2137 -0.2267  0.2533
32601W        W48410   2.522   9.385  15.188 -0.1821  0.1760 -0.1178
32602W        W48411  10.996  15.552   3.555  0.6215  0.0099 -0.1716
32603W        W48412   1.405   7.135   9.037  0.0096  0.1890 -0.0600
32604W        W48413  16.036   0.664  13.545  0.3025 -0.2606  0.1713
32605W        W48414   1.190   2.735  10.392 -0.1846 -0.0908  0.2134
32606W        W48415  13.578  17.012  13.323 -0.2418 -0.1961 -0.3126
32607W        W48416  15.810  15.813  13.657 -0.1603 -0.4592 -0.0980
32608W        W48417  14.854   4.504  11.977 -0.1574 -0.1195  0.2535
32609W        W48418  13.830  12.524   4.035 -0.0660 -0.0973  0.2721
32610W        W48419   4.240  17.273   2.440 -0.1173 -0.0366 -0.2911
32611W        W48420   5.122   9.116   1.412 -0.0575 -0.3806 -0.1006
32612W        W48421  11.660   3.994   0.613  0.0274  0.3114 -0.1556
32613W        W48422   9.903  17.324  11.483 -0.3882 -0.0206 -0.1982
32614W        W48423   1.881   1.447  14.874  0.2093 -0.2459 -0.2241
32615W        W48424  10.706   7.228   1.335 -0.2289 -0.1249 -0.3131
32616W        W48425   7.450  19.006   2.219  0.1929 -0.0749  0.3803
32617W        W48426   1.463  14.901  10.619 -0.1035  0.0483 -0.1855
32618W        W48427   9.286  15.736   0.118  0.3419 -0.0631  0.2307
32619W        W48428   9.017   0.278   2.247  0.1739 -0.0835 -0.0438
32620W        W48429   1.465  11.530  11.954 -0.0921  0.2501  0.3971
32621W        W48430  10.098   0.261   4.578  0.3315  0.2585 -0.2355
32622W        W48431  12.227  18.674   1.104 -0.1310  0.0370 -0.3384
32623W        W48432   8.942   4.806   2.936  0.1457 -0.3437 -0.0698
32624W        W48433   6.875   1.427  15.163  0.1216  0.1878  0.2071
32625W        W48434   7.584  13.638   0.623 -0.1898  0.1695  0.1087
32626W        W48435  16.733   1.302   2.207 -0.0327  0.0547  0.5149
32627W        W48436   6.990  16.504  11.186  0.0674  0.0666 -0.6015
32628W        W48437   8.601   4.701  12.402  0.0628  0.1198 -0.1921
32629W        W48438   8.786   9.226   2.254 -0.1432 -0.0860  0.2498
32630W        W48439   6.777   3.947  11.318 -0.2289 -0.1014 -0.0608
32631W        W48440  12.675  12.592   0.735 -0.3328 -0.1138  0.0200
32632W        W48441  18.390  16.706   0.679 -0.0520 -0.1321 -0.2289
32633W        W48442  10.030   2.245   4.954  0.0374 -0.0166 -0.1711
32634W        W48443   0.522   3.132  15.111 -0.0539  0.0917 -0.1331
32635W        W48444  10.593  10.028   2.041 -0.1090 -0.1310 -0.2175
32636W        W48445  15.418  16.066  13.916  0.1139 -0.3573  0.1000
32637W        W48446  14.211  16.768  14.620  0.2059 -0.1342 -0.1231
32638W        W48447   9.071  11.590   0.492  0.0107 -0.2206 -0.1220
32639W        W48448  11.752   7.703   3.268 -0.0711 -0.2485  0.3025
32640W        W48449  13.450   6.574   1.429  0.1085  0.0776 -0.0156
32641W        W48450  18.808   0.877  13.989 -0.2420  0.3671 -0.5941
32642W        W48451   1.101   0.062   2.372  0.2288 -0.2359 -0.1727
32643W        W48452   0.494   4.346   1.623 -0.1076  0.0709 -0.1097
32644W        W48453  17.867   7.186  13.689 -0.3352 -0.2610  0.1429
32645W        W48454  14.900   5.427   3.003 -0.2736  0.3671  0.1535
32646W        W48455   4.934   5.806   4.137  0.0317 -0.0499  0.0854
32647W        W48456  17.204  18.742  11.680  0.1911 -0.0002  0.1908
32648W        W48457   8.270  14.119  11.653  0.0767 -0.0812 -0.1330
32649W        W48458  14.254  17.719   0.457  0.1648  0.1522 -0.0676
32650W        W48459   9.572  18.236  13.518  0.1128 -0.1474 -0.1274
32651W        W48460   6.223  14.755   4.292 -0.0145  0.0392 -0.0889
32652W        W48461   7.653  13.222   0.919  0.1013  0.0837  0.3300
32653W        W48462  10.610   1.181   0.123  0.1544  0.2753 -0.0597
32654W        W48463   3.142   8.645   1.241  0.4478  0.0931 -0.0198
32655W        W48464   3.239   6.135   1.517 -0.0003  0.2416 -0.0655
32656W        W48465  16.482   2.009  12.649 -0.1621 -0.1489  0.2489
32657W        W48466  10.610   1.792  10.298  0.1593  0.0390 -0.1083
32658W        W48467   4.084  17.209   4.253  0.0266  0.0577 -0.2782
32659ION     NA48468  12.783  11.430   5.808  0.0409 -0.1961  0.1877
32660ION     NA48469   5.412  18.785   3.555 -0.0796 -0.0245  0.0541
32661ION     NA48470  16.014   3.220   5.644  0.0104 -0.0224 -0.1597
32662ION     NA48471   3.211   2.062   4.609 -0.0363 -0.4886  0.1051
32663ION     NA48472   4.408   9.007   4.387  0.2294  0.0176  0.1839
32664ION     NA48473   4.692   2.601  12.341 -0.1427 -0.1038  0.0641
32665ION     NA48474  13.265  17.437   5.915  0.0953 -0.2610 -0.2075
32666ION     NA48475  17.668   2.193  14.307 -0.2051  0.0156  0.2242
32667ION     NA48476   5.678  14.924  14.981 -0.1097 -0.1560 -0.2146
32668ION     NA48477   9.859   5.792   9.123  0.0449 -0.0969 -0.0389
32669ION     NA48478   5.082  11.051   9.969  0.3091  0.0192  0.2848
32670ION     NA48479   2.683  17.490   9.347  0.1832 -0.0579  0.0900
32671ION     NA48480  11.737   6.304   9.294  0.0736  0.1196 -0.1661
32672ION     NA48481   2.089   0.271   5.233  0.1321 -0.1507 -0.0954
32673ION     NA48482   2.889   5.094  13.520  0.0928  0.2742  0.2688
32674ION     NA48483   2.657  14.140   0.651 -0.2839 -0.1672 -0.0261
32675ION     NA48484   5.040  15.508   9.496  0.1907 -0.1092  0.0343
32676ION     NA48485  16.715  14.277   5.643 -0.1832 -0.0202 -0.1515
32677ION     NA48486  13.230   2.764  13.759  0.2772  0.1963  0.2769
32678ION     NA48487   2.920  16.286   0.982  0.0713 -0.1458  0.3682
32679ION     NA48488   4.795  13.352   9.624 -0.1759 -0.3497 -0.2134
32680ION     NA48489  16.546  16.545  10.082 -0.2824 -0.0501  0.0975
32681ION     NA48490   9.112  12.267   5.405  0.2158  0.3036 -0.0626
32682ION     NA48491  15.270  16.546   4.078 -0.0185 -0.1876  0.1199
32683ION     NA48492   3.264  18.804   9.394 -0.1777 -0.3047 -0.2652
32684ION     NA48493  16.053   9.357   0.747 -0.0552 -0.0402 -0.2503
32685ION     NA48494   6.547  16.247   5.346  0.0470  0.1470  0.1684
32686ION     NA48495   1.144   8.491   5.135 -0.0052 -0.2298 -0.1169
32687ION     NA48496   7.316   8.990  13.625  0.1463  0.1825  0.0017
32688ION     NA48497  15.077  16.821   5.871 -0.0520 -0.0373  0.1593
32689ION     NA48498   8.194   1.866   5.066 -0.3836  0.0523 -0.3952
32690ION     NA48499   2.844   5.833  14.536 -0.1636  0.1903 -0.1720
32691ION     NA48500   6.864   1.098   9.884  0.0025  0.0163  0.1560
32692ION     NA48501   9.311   4.002   5.255 -0.2719 -0.0670 -0.1041
32693ION     NA48502   9.382   1.913   0.817  0.2919 -0.1262  0.1260
32694ION     NA48503   0.412   4.210   9.560  0.0943  0.1459  0.1280
32695ION     NA48504   0.362   5.107  14.096  0.1779 -0.4038  0.1442
32696ION     NA48505  16.196  17.170  10.689  0.2030  0.0449  0.1825
32697ION     NA48506   1.319  12.411  11.838  0.0034  0.1086 -0.3536
32698ION     NA48507  12.771  19.118  12.526  0.0422 -0.0418  0.0518
32699ION     NA48508   6.543   0.885   1.366 -0.3881  0.1668  0.1034
32700ION     NA48509   6.425  14.948  10.040  0.1820  0.2802  0.2466
32701ION     NA48510   2.104   8.328   1.164 -0.5012 -0.0597 -0.0773
32702ION     NA48511   9.763  12.218  10.328  0.0532 -0.1262 -0.0059
32703ION     NA48512   3.656  17.486   9.376  0.3944 -0.2098 -0.2421
32704ION     NA48513  10.284   4.850   9.458  0.1819  0.0139 -0.0598
32705ION     NA48514   9.077   3.543   4.391  0.0124  0.0544  0.1814
32706ION     NA48515  11.706   1.875   2.840 -0.2267  0.0688 -0.2022
32707ION     NA48516   4.441   0.895   1.934  0.1557 -0.5350  0.1886
32708ION     NA48517   2.342  11.287   9.525  0.1124  0.0864  0.1546
32709ION     NA48518  18.253   6.446   4.913  0.0386 -0.1301 -0.1079
32710ION     NA48519  18.158   2.797  13.497 -0.0413  0.0979  0.1244
32711ION     NA48520  10.760  14.656   5.243  0.1767 -0.1137 -0.3500
32712ION     NA48521  18.772  18.276  13.857  0.1867  0.0368  0.0288
32713ION     NA48522   6.615  13.386   3.443 -0.1789 -0.2355 -0.0437
32714ION     NA48523   1.843   5.980   9.422  0.0864  0.2110  0.1261
32715ION     NA48524   4.453  13.038   5.271 -0.0063 -0.1432 -0.0637
32716ION     NA48525   2.744  11.624   4.642  0.1888  0.1407  0.4116
32717ION     NA48526  12.033  18.423   9.845  0.0131  0.1219  0.2334
32718ION     NA48527   2.850   6.710   5.342  0.0130 -0.0213  0.0257
32719ION     NA48528   5.780  10.236   5.258 -0.1469  0.1940 -0.4019
32720ION     NA48529  18.301   9.528   5.279 -0.0599  0.0386  0.0771
32721ION     NA48530   2.772   9.855  14.547 -0.0967 -0.1692  0.0174
32722ION     NA48531   7.964   9.503   1.528 -0.1689  0.1518  0.2247
32723ION     NA48532   8.748  10.773   9.778  0.1316  0.0456  0.1454
32724ION     NA48533   8.634   6.062   1.144 -0.2757 -0.1916 -0.3093
32725ION     NA48534  17.702   7.282   9.858 -0.0062  0.3169 -0.0417
32726ION     NA48535   8.141  15.696  10.826 -0.2427  0.2163  0.0983
32727ION     NA48536  14.632  13.302  10.584  0.0730  0.1145  0.0432
32728ION     NA48537  17.617   6.089   5.594  0.2938  0.2349 -0.0485
32729ION     NA48538   4.788  13.269  11.442  0.1680 -0.1993  0.1077
32730ION     NA48539  15.329  12.169   1.492  0.2347 -0.1285  0.2577
32731ION     NA48540  10.953   3.749   9.492 -0.1369  0.1159  0.2587
32732ION     NA48541   3.301   8.946   0.853 -0.1779  0.0837 -0.0547
32733ION     NA48542  10.718  11.763  10.552  0.0138  0.0093  0.1084
32734ION     NA48543  14.519   2.343   9.965 -0.0223 -0.0169  0.0560
32735ION     NA48544   3.303  15.486  11.516 -0.2207 -0.2375  0.1819
32736ION     NA48545   7.499   2.214   5.445 -0.1676  0.0244  0.0266
32737ION     NA48546  11.037   0.958  10.179  0.1322  0.2886 -0.1222
32738ION     NA48547   9.168  13.108   5.888  0.1328 -0.0983 -0.0962
32739ION     NA48548   0.811  12.054   9.414  0.1144  0.1819 -0.0400
32740ION     NA48549   0.695   3.304   9.930  0.1186 -0.0524 -0.4149
32741ION     NA48550  13.839   3.509  13.970 -0.0115  0.0260 -0.3071
32742ION     NA48551   4.877   5.239   0.296 -0.0694  0.2421  0.3464
32743ION     NA48552  11.232   8.463   4.509  0.0989 -0.1515 -0.3235
32744ION     NA48553  10.376  13.369  10.378  0.2080  0.1018  0.0885
32745ION     NA48554   7.856  14.181  15.159 -0.3299 -0.1702 -0.0669
32746ION     NA48555   3.145   7.016   9.341  0.2074 -0.0919 -0.3782
32747ION     NA48556  13.397   2.124  13.120 -0.0394 -0.0440  0.1667
32748ION     NA48557  12.372  15.011   6.025 -0.0717 -0.1409 -0.1997
32749ION     NA48558   8.668  11.396   9.792 -0.1427  0.1045  0.2405
32750ION     NA48559  14.440   0.336   2.757 -0.1933  0.0470  0.0805
32751ION     NA48560   4.876   5.304   9.334  0.2431 -0.0412  0.4992
32752ION     NA48561  12.739  17.835   9.979 -0.1715 -0.0804 -0.4133
32753ION     NA48562   3.837  13.195   9.505 -0.0535 -0.2776  0.1781
32754ION     NA48563   2.510  18.936   1.399 -0.2469  0.2424 -0.1051
32755ION     NA48564   1.406   4.691  12.746  0.0584 -0.0422  0.0327
32756ION     NA48565  13.294   7.117  14.812  0.1254  0.1274  0.2066
32757ION     NA48566  14.214  16.785  10.985  0.1399  0.4779  0.5048
32758ION     NA48567  12.222   3.730  14.404 -0.2047 -0.1972 -0.1327
32759ION     NA48568   9.751  18.495   1.615 -0.2726 -0.2105 -0.1455
32760ION     NA48569  12.519   1.760  10.926  0.0318  0.1817 -0.1520
32761ION     NA48570   1.581   8.709   9.223 -0.2902  0.0019 -0.1473
32762ION     NA48571  16.057  16.848  14.777  0.0799  0.0218 -0.0833
32763ION     NA48572  17.030   7.683   5.656  0.0262 -0.0237 -0.0057
32764ION     NA48573   5.052   8.027   9.184 -0.0390  0.0806  0.0352
32765ION     NA48574   7.200   7.308   9.537  0.1985  0.1405 -0.0034
32766ION     NA48575   4.590   4.259  12.644 -0.0577  0.2419  0.0123
32767ION     NA48576   8.846   4.910   9.671 -0.2734  0.3117  0.2065
32768ION     NA48577  10.409   5.311  11.905 -0.3465  0.1326 -0.2379
32769ION     NA48578   1.088  10.592   2.296  0.1774  0.3881 -0.1754
32770ION     NA48579  18.746  17.172   1.473 -0.1336  0.1332  0.1093
32771ION     NA48580   2.452   5.342   9.004 -0.2684  0.1396  0.2521
32772ION     NA48581   0.485   3.149   0.409  0.3868  0.1246 -0.0621
32773ION     NA48582  10.114  17.248   9.947  0.2247 -0.0131 -0.3144
32774ION     NA48583   5.901  10.647   9.708 -0.0159 -0.1024  0.2260
32775ION     NA48584  11.147   6.807  12.451 -0.1174 -0.0674 -0.1838
32776ION     NA48585  12.566   8.159   0.482 -0.1770  0.3603 -0.1139
32777ION     NA48586  13.935  11.653   9.996 -0.3889 -0.1040  0.2368
32778ION     NA48587   8.330  17.013  13.729  0.0408  0.0006 -0.0599
32779ION     NA48588   4.915  17.636   2.929  0.2677 -0.0678  0.0432
32780ION     NA48589  18.664  17.913   2.907 -0.0635  0.0337  0.0580
32781ION     NA48590  17.483   6.678   9.717  0.0986 -0.0252 -0.0748
32782ION     NA48591   8.726  15.244   9.764  0.0734 -0.0107  0.2356
32783ION     NA48592   4.957  12.618   1.240  0.0838 -0.0801 -0.1086
32784ION     NA48593  10.113  13.970   1.218 -0.0795 -0.0609  0.0866
32785ION     NA48594  17.067   9.574   9.761  0.3058  0.3395  0.0939
32786ION     NA48595  13.239  14.119   4.780 -0.2535  0.0271  0.0134
32787ION     NA48596  17.182  10.281  13.308  0.0712  0.1354 -0.1661
32788ION     NA48597   1.746   4.064   1.563 -0.2293 -0.0487 -0.1983
32789ION     NA48598   2.045  15.604  10.033  0.3196 -0.2225  0.2606
32790ION     NA48599   7.804   1.752   0.550  0.0228  0.0801  0.3491
32791ION     NA48600  12.335   9.900   5.067  0.0382 -0.0249  0.0952
32792ION     NA48601  15.813   2.257   1.065 -0.1911  0.0914  0.1825
32793ION     NA48602  17.002   8.853   9.681 -0.0903 -0.2101 -0.3738
32794ION     NA48603  10.974  13.008   3.540  0.0968 -0.2379  0.0546
32795ION     NA48604   4.750   3.144   9.429  0.1554  0.1123 -0.1250
32796ION     NA48605   4.855  17.101   0.579 -0.0013  0.1154  0.0362
32797ION     NA48606   0.942  18.267  14.286 -0.0121 -0.1601  0.0673
32798ION     NA48607   5.798   5.033   5.176  0.0533 -0.2790  0.1543
32799ION     NA48608  15.879   6.522   5.978  0.3935 -0.3911  0.0731
32800ION     NA48609  15.151  10.554   5.788 -0.1726  0.1048 -0.0647
32801ION     NA48610  18.738   1.094   9.876  0.2743  0.1833 -0.1405
32802ION     NA48611   0.103   2.823   4.731 -0.1276 -0.1175  0.1641
32803ION     NA48612   4.445  13.432  14.956 -0.2832 -0.0223 -0.3681
32804ION     NA48613  11.265   3.579  11.971 -0.0157 -0.0861 -0.0162
32805ION     NA48614   4.183   1.496   5.006 -0.0071 -0.0271  0.0231
32806ION     NA48615  11.132   5.122  10.129 -0.1061 -0.0364  0.1664
32807ION     NA48616   3.795  16.194  15.140 -0.4411  0.0773  0.0537
32808ION     NA48617  16.806  12.102  12.995  0.0453  0.0006  0.2495
32809ION     NA48618   5.267   0.153   1.534  0.0987 -0.2846  0.3643
32810ION     NA48619   1.987  18.109   3.760 -0.0765  0.2516  0.1750
32811ION     NA48620   8.750  13.496   1.138  0.2787  0.3099  0.0537
32812ION     NA48621   2.221  12.752   0.216 -0.2502 -0.0212  0.1319
32813ION     NA48622   7.968   5.030   9.467  0.1593 -0.3523 -0.1303
32814ION     NA48623  17.909  18.574  13.491  0.1177  0.1547 -0.1883
32815ION     NA48624  10.771  16.794  10.347  0.2673 -0.1399 -0.0776
32816ION     NA48625   2.976   5.141  10.236 -0.1465 -0.0650  0.1435
32817ION     NA48626  11.899  12.687   0.290  0.0654 -0.0848 -0.0708
32818ION     NA48627   6.274   0.295   9.838  0.0763  0.2527 -0.0354
32819ION     NA48628  16.438   9.422  14.279  0.3262 -0.1702  0.2160
32820ION     NA48629   2.578   3.203   0.040  0.2236 -0.2072  0.3393
32821ION     NA48630   6.132  16.306   4.844 -0.1026 -0.0017 -0.0506
32822ION     NA48631   1.736  12.000  13.992  0.2250 -0.1354 -0.0788
32823ION     NA48632   7.838  17.022   5.452  0.1197  0.2011 -0.0571
32824ION     NA48633   6.318  13.031   9.568  0.3408  0.4184  0.1965
32825ION     NA48634  17.890  14.605  14.910 -0.3350  0.2935 -0.1157
32826ION     NA48635  10.064   4.878   5.086  0.0139  0.2046  0.0331
32827ION     NA48636   5.767  10.285   3.183  0.2229 -0.0262 -0.1311
32828ION     NA48637  12.911  16.500   3.290  0.5145 -0.2046  0.0325
32829ION     NA48638  12.846  12.913   1.829  0.0391  0.0742  0.1032
32830ION     NA48639  15.702   2.155   4.769  0.1544 -0.0987  0.0992
32831ION     NA48640  16.264  15.354  12.526  0.1265  0.2063 -0.2723
32832ION     NA48641   7.126  16.900   5.344 -0.1448  0.0457  0.0278
32833ION     NA48642  17.460  17.725   9.797  0.2070 -0.0363 -0.1812
32834ION     NA48643   7.867  15.709  10.025 -0.0924 -0.0795  0.1410
32835ION     NA48644   9.970   3.958   9.505 -0.1780  0.2348 -0.1852
32836ION     NA48645  13.869  15.623   4.050 -0.0376  0.2491 -0.1826
32837ION     NA48646  16.957  16.419   2.262  0.2322  0.0281  0.3462
32838ION     NA48647  11.394  14.729  10.090  0.1290  0.1595  0.1065
32839ION     NA48648   7.773   0.674   4.328  0.1296  0.1849 -0.1228
32840ION     NA48649  16.973   2.022   6.012  0.1624  0.1266 -0.2389
32841ION     NA48650  13.726   4.576   9.828  0.3021  0.0052  0.2910
32842ION     NA48651  16.462  10.797   5.025  0.2193  0.2625 -0.0284
32843ION     NA48652   9.001  17.383   9.739 -0.1477 -0.0993 -0.0434
32844ION     NA48653   0.658  10.161   9.351  0.0791 -0.0221  0.3034
32845ION     NA48654   8.827   1.680   2.732  0.0037 -0.1807 -0.0843
32846ION     NA48655  10.912   5.323   4.386  0.0920 -0.4119 -0.2131
32847ION     NA48656  18.837   9.860   1.989 -0.1189 -0.1953 -0.1058
32848ION     NA48657   0.120   0.378   9.760 -0.1586  0.1927 -0.1523
32849ION     NA48658  16.566  18.642  14.272 -0.3427 -0.1006  0.0143
32850ION     NA48659  10.266  18.044   5.528  0.2352 -0.0832 -0.0409
32851ION     NA48660  10.054  16.490   9.866  0.6092  0.1430  0.1514
32852ION     NA48661  13.917  12.981   6.051  0.2178 -0.3510 -0.3072
32853ION     NA48662  10.027  13.428   5.838  0.2645 -0.0329 -0.0784
32854ION     NA48663   7.984   6.534   9.700  0.0341 -0.1218 -0.1838
32855ION     NA48664   9.290  10.401  14.778 -0.1928 -0.3407 -0.0677
32856ION     NA48665  12.417   2.611   2.168 -0.0206  0.0895  0.2162
32857ION     NA48666  18.860  10.694   5.548 -0.1242  0.0160  0.3048
32858ION     NA48667   1.229   4.744   9.350  0.0120  0.0563  0.0427
32859ION     NA48668   9.252  15.899   4.279  0.2934  0.1218 -0.2732
32860ION     NA48669  17.109  12.667  11.300 -0.0684 -0.2108 -0.0079
32861ION     NA48670  10.886   6.256   1.872 -0.1328 -0.2094 -0.1603
32862ION     NA48671   9.501  17.894  13.906  0.0648 -0.2948  0.4072
32863ION     NA48672  13.036  16.528  15.079 -0.5079  0.1864 -0.3908
32864ION     NA48673   5.525  17.554  13.243 -0.0283  0.0547 -0.2548
32865ION     NA48674  11.862  17.583   1.833  0.3331  0.0953 -0.3175
32866ION     NA48675  17.237  11.291   5.569 -0.0606 -0.1262 -0.1358
32867ION     NA48676  17.597   5.396  10.193  0.3130  0.2286 -0.1771
32868ION     NA48677  10.741  10.902  10.103  0.2262 -0.3566 -0.2108
32869ION     NA48678  11.392   8.823  14.914 -0.3560 -0.1639 -0.5806
32870ION     NA48679   1.574  17.819   9.345  0.4677  0.0717  0.1742
32871ION     NA48680  10.180   0.315  11.490  0.1918  0.0827 -0.4234
32872ION     NA48681   8.820  18.842   0.515  0.0552 -0.1867  0.1583
32873ION     NA48682  18.667  17.005  13.882  0.2176  0.0702 -0.1585
32874ION     NA48683   5.492  10.552   0.971  0.1126 -0.2618  0.1665
32875ION     NA48684   7.870  14.393   2.221  0.2049 -0.0028  0.2671
32876ION     NA48685   4.257   3.251   4.613  0.0255 -0.0932 -0.2426
32877ION     NA48686   3.568   9.476   3.680  0.1155 -0.2231 -0.3544
32878ION     NA48687  16.543   4.028   6.012 -0.3627  0.2444  0.1035
32879ION     NA48688   3.616   4.524   4.906 -0.1549  0.0921 -0.1550
32880ION     NA48689  13.966   7.854   2.300 -0.2074  0.0421 -0.0874
32881ION     NA48690   2.234  15.686   4.406 -0.3200 -0.1466  0.1448
32882ION     NA48691  16.062  13.545  14.471  0.2932 -0.2291 -0.1627
32883ION     NA48692  11.164  13.002  10.482  0.0963 -0.1040 -0.0368
32884ION     NA48693   7.420   8.371   9.401  0.1308 -0.0589 -0.1918
32885ION     NA48694   1.256  10.681   9.444  0.0012  0.3079  0.2097
32886ION     NA48695  11.052  13.048   0.514 -0.0787 -0.1967 -0.3272
32887ION     NA48696   2.595   2.522   2.046 -0.1338 -0.2410 -0.2872
32888ION     NA48697  11.001  19.076  10.090 -0.0280  0.3138  0.2489
32889ION     NA48698  11.160   9.089  10.257 -0.1279 -0.0063 -0.2019
32890ION     NA48699  11.577  10.959   4.226 -0.2138  0.1657 -0.4423
32891ION     NA48700  14.538   9.178   9.505 -0.4170  0.2730 -0.1032
32892ION     NA48701  17.832  17.794   0.667 -0.1554  0.1400  0.3933
32893ION     NA48702  13.726   0.955   3.083  0.3460  0.0794 -0.1293
32894ION     NA48703   1.896  11.824  11.353 -0.4011  0.0698 -0.0636
32895ION     NA48704  13.433   5.646   3.756  0.0334 -0.0822  0.1235
32896ION     NA48705   5.352   8.386   9.480  0.0257 -0.0888  0.2366
32897ION     NA48706  18.268   1.180  14.607  0.0650  0.0606  0.2942
32898ION     NA48707   6.240   8.573  10.865  0.3876 -0.0336  0.4066
32899ION     NA48708   8.237   2.345   1.671  0.0562 -0.0544  0.0993
32900ION     NA48709   6.126   9.642   9.737  0.4238 -0.0966  0.1689
32901ION     NA48710   7.820   8.972   3.076 -0.0491 -0.2897 -0.2118
32902ION     NA48711  12.145   7.048   4.475 -0.0868  0.0366 -0.3526
32903ION     NA48712  12.713  17.941   5.753  0.2521  0.0872 -0.1733
32904ION     NA48713   3.168   5.746   9.282  0.1485  0.2017  0.2456
32905ION     NA48714   6.626   1.980   5.224 -0.0163  0.1784 -0.2281
32906ION     NA48715  13.903  10.113  13.665  0.2234  0.1392  0.0394
32907ION     NA48716   4.127   0.067   4.038 -0.1697  0.1639  0.1245
32908ION     NA48717  18.909  14.679   9.600  0.0742 -0.0597  0.1214
32909ION     NA48718   6.365   5.732   9.611 -0.0549  0.2106  0.3398
32910ION     NA48719   8.691  18.625  12.345  0.1030  0.1184  0.3083
32911ION     NA48720   0.610   5.103  12.571 -0.2990 -0.1104  0.2731
32912ION     NA48721  10.581   9.542  15.042 -0.2470 -0.1787 -0.0903
32913ION     NA48722  18.286   3.274  14.833 -0.2165  0.0998  0.0144
32914ION     NA48723  16.612   6.521   9.551 -0.4832 -0.1164  0.1211
32915ION     NA48724   2.372   9.260   9.364 -0.0359  0.0519  0.0968
32916ION     NA48725  13.901   5.737  13.318 -0.2230  0.1993  0.1725
32917ION     NA48726   1.174  10.658   0.387  0.2081  0.2465 -0.2306
32918ION     NA48727   2.056  14.692  13.991 -0.1893  0.0161  0.0895
32919ION     NA48728   9.491  11.427   9.966 -0.2294 -0.1932  0.0536
32920ION     NA48729  17.252  17.701   4.613 -0.0017 -0.0414 -0.1197
32921ION     NA48730   1.161   5.106   5.043  0.2494  0.1834 -0.2371
32922ION     NA48731   6.475   2.344   5.576 -0.0744  0.0534 -0.2260
32923ION     NA48732   0.629   5.197   1.540 -0.2356 -0.1017 -0.1776
32924ION     NA48733  12.679  16.844  10.052  0.1987  0.0825  0.0579
32925ION     NA48734  15.689  12.315  10.494  0.0834  0.1049  0.0519
32926ION     NA48735  13.646   9.283  14.195  0.1804 -0.1340  0.0357
32927ION     NA48736   2.083   6.194  10.309  0.2542 -0.0807 -0.0759
32928ION     NA48737   0.374  13.721   0.418  0.1152 -0.3253  0.1286
32929ION     NA48738  18.196  12.390   5.646  0.0236  0.1250 -0.0929
32930ION     NA48739   3.902  17.384  11.697 -0.1200 -0.1319  0.1101
32931ION     NA48740  16.804   5.979   9.700 -0.0151 -0.0149  0.0478
32932ION     NA48741  16.450   3.169   0.602  0.1655 -0.1017  0.0284
32933ION     NA48742  17.345   3.861   2.722 -0.1799  0.1497  0.1765
32934ION     NA48743   1.932  12.156   9.730  0.0116 -0.3170  0.0926
32935ION     NA48744   4.954   2.748  13.926  0.0945 -0.4757 -0.1321
32936ION     NA48745   1.997   8.587   4.741 -0.2941  0.0226 -0.0027
32937ION     NA48746   7.895   7.093   5.065 -0.0294 -0.5716  0.0123
32938ION     NA48747  14.487  11.238   4.965 -0.0484 -0.0772  0.0986
32939ION     NA48748  18.382  12.943  10.016  0.2038 -0.2945  0.1951
32940ION     NA48749  14.481   2.349   4.652  0.2308  0.2901 -0.0269
32941ION     NA48750  17.295  12.658   5.602 -0.3311 -0.1018 -0.0942
32942ION     NA48751  11.755  11.989   4.927 -0.0013  0.1702  0.2314
32943ION     NA48752  14.180   4.018   2.380  0.2329  0.0233  0.0678
32944ION     NA48753  15.750   2.642  10.324  0.2904 -0.1496  0.0225
32945ION     NA48754   3.379  13.581  13.733  0.0008  0.0263 -0.3633
32946ION     NA48755   2.735  18.453  11.441 -0.3763 -0.0482 -0.4403
32947ION     NA48756   5.747  15.336   4.789 -0.0926 -0.0981 -0.4704
32948ION     NA48757   6.790   1.655   4.858 -0.2164 -0.1674 -0.0963
32949ION     NA48758   7.843   9.444   2.688 -0.1667 -0.2094  0.2776
32950ION     NA48759   8.858   5.401   9.577 -0.2645  0.0880  0.2170
32951ION     NA48760  13.952   0.707  13.332 -0.1776  0.0418  0.0866
32952ION     NA48761  11.127  17.088   5.766 -0.0250 -0.0696 -0.1695
32953ION     NA48762   6.065   3.068   5.407  0.1956  0.2343 -0.1079
32954ION     NA48763  17.686   1.452  10.472  0.1127  0.0084 -0.2023
32955ION     NA48764  19.079   1.619   2.967  0.3071 -0.1877  0.1383
32956ION     NA48765   8.530  17.755   5.461 -0.2641 -0.2531  0.0842
32957ION     NA48766   6.200   5.209   9.416 -0.0958  0.1375  0.1230
32958ION     NA48767  15.745   2.505  14.086 -0.4400 -0.3431 -0.3485
32959ION     NA48768   2.329  13.305  12.432 -0.1728  0.2633  0.3312
32960ION     NA48769   6.057   6.125   9.879 -0.0450  0.2747  0.2557
32961ION     NA48770  12.853   9.129   9.611  0.0439  0.1474  0.1880
32962ION     NA48771   4.230  16.649   9.317  0.0187  0.1443 -0.2007
32963ION     NA48772   7.755  10.392  13.119 -0.0755  0.1122 -0.0055
32964ION     NA48773   1.567  15.367   4.598 -0.1843 -0.0611 -0.0410
32965ION     NA48774   9.877  13.836  10.074  0.0684  0.3912 -0.3112
32966ION     NA48775  18.996   6.047   4.621 -0.0187 -0.0405  0.0867
32967ION     NA48776   1.943   9.983   9.710  0.0549  0.1743 -0.0317
32968ION     NA48777   4.094   5.619   9.309  0.1812  0.2387  0.0234
32969ION     NA48778  12.248  10.494   3.055 -0.0917 -0.1582  0.2634
32970ION     NA48779  16.292   6.317   5.217  0.2835  0.1999  0.0652
32971ION     NA48780  10.757   2.325  13.630 -0.1709  0.0927  0.1704
32972ION     NA48781   0.746  18.938   9.662  0.2087 -0.3064 -0.0246
32973ION     NA48782   4.203   4.328  10.608  0.3033 -0.3443  0.0602
32974ION     NA48783   3.342  11.124   5.065 -0.0717 -0.2126 -0.5565
32975ION     NA48784  11.047  17.855  13.477  0.3559  0.1756  0.3851
32976ION     NA48785  11.463   4.601   9.359 -0.1570 -0.0935  0.0031
32977ION     NA48786  12.464  15.457   4.952 -0.1453 -0.1433 -0.0778
32978ION     NA48787  18.704  13.668   3.707 -0.1039 -0.2558 -0.0826
32979ION     NA48788  15.235  10.028   5.719  0.0791  0.2917 -0.2922
32980ION     NA48789   5.769  14.176  12.184  0.1028 -0.3252  0.3202
32981ION     NA48790   2.754   4.945   2.271  0.0070  0.1114  0.1379
32982ION     NA48791   3.204   6.401   1.096  0.4303  0.4576 -0.1989
32983ION     NA48792   7.533  11.205   5.678  0.2921 -0.1753  0.0413
32984ION     NA48793   8.767   3.933   9.503 -0.3376  0.2209  0.0800
32985ION     NA48794  18.043  17.309   5.676 -0.3192 -0.3579 -0.5102
32986ION     NA48795  13.396   1.255   0.671  0.3796 -0.1961  0.1931
32987ION     NA48796   2.844  10.080   5.102 -0.0357 -0.3282  0.2209
32988ION     NA48797   2.790   0.538   9.544  0.4724  0.6132  0.1204
32989ION     NA48798   6.391   5.091   4.596 -0.1756 -0.1967  0.2870
32990ION     NA48799   0.149   1.599  12.213 -0.0012  0.0616 -0.2973
32991ION     NA48800  16.300  15.394   3.175  0.0395  0.0696  0.2473
32992ION     NA48801  16.080   0.634   5.267  0.0802  0.0189 -0.0160
32993ION     NA48802   3.488   0.953   9.348 -0.1927 -0.0803  0.0213
32994ION     NA48803   9.650  17.233   5.918  0.6432  0.2400  0.0179
32995ION     NA48804   7.418   2.668   3.188 -0.1583  0.0191 -0.1346
32996ION     NA48805   9.864  11.475   2.533  0.0933 -0.2073 -0.3115
32997ION     NA48806  14.675   6.966   9.530 -0.0784 -0.0939 -0.1509
32998ION     NA48807  19.045  18.076  14.663 -0.0735  0.2968 -0.2410
32999ION     NA48808  15.661   5.174  10.029 -0.3111  0.0478 -0.1085
33000ION     NA48809  13.268  14.156   2.809  0.1697  0.4644  0.0110
33001ION     NA48810   3.763   9.893   9.817 -0.2289 -0.2158 -0.0422
33002ION     NA48811  12.297   4.208   3.790 -0.1992 -0.0543  0.2101
33003ION     NA48812   7.941   3.725   9.557 -0.0221 -0.2552 -0.2083
33004ION     NA48813   1.754  16.149   5.068  0.1944 -0.1768  0.2564
33005ION     NA48814  10.241  10.106   2.397 -0.2355 -0.0846 -0.0672
33006ION     NA48815   0.665  14.705   9.534  0.5763 -0.1902  0.1847
33007ION     NA48816   9.485  10.367   0.003 -0.0866 -0.1603  0.0055
33008ION     NA48817   0.896  16.968   9.666 -0.4257 -0.0584  0.1043
33009ION     NA48818  12.312   3.281   4.026 -0.3012 -0.3275 -0.3233
33010ION     NA48819   1.508   5.292   2.770  0.0680 -0.1159  0.0746
33011ION     NA48820  11.427   1.561   5.290  0.2810  0.2681 -0.0404
33012ION     NA48821   0.860   6.571  13.558 -0.0429 -0.0834 -0.1256
33013ION     NA48822   9.616  15.312   3.771  0.1273 -0.1206 -0.1640
33014ION     NA48823   4.794   9.270  12.656  0.1185 -0.2766  0.2208
33015ION     NA48824   9.045   7.599   9.508 -0.0469  0.1773 -0.0905
33016ION     NA48825  16.676   5.006   0.204 -0.0854  0.0206 -0.0141
33017ION     NA48826   3.960   5.606  14.995  0.0980 -0.3487 -0.0317
33018ION     NA48827  10.935   1.322  13.301 -0.0169 -0.1633 -0.0711
33019ION     NA48828   5.377  14.444   5.242  0.2245  0.0284  0.0767
33020ION     NA48829   3.429  18.117   5.251  0.1023  0.0848  0.0855
33021ION     NA48830   4.014   6.454  13.490  0.1964  0.0464  0.0807
33022ION     NA48831  15.881  13.215   0.358 -0.1987  0.0584 -0.3370
33023ION     NA48832   5.808  16.069   1.604  0.0271 -0.0828 -0.1851
33024ION     NA48833   1.990  16.921  13.499 -0.3839 -0.0334  0.0735
33025ION     NA48834   8.355   8.390   1.393  0.0008  0.1586  0.2494
33026ION     NA48835   9.600  11.995   0.816 -0.1621  0.2195 -0.0327
33027ION     NA48836  10.249  16.582   5.722  0.1026 -0.3207  0.0214
33028ION     NA48837   5.603  17.557   9.539  0.2978  0.0454  0.1827
33029ION     NA48838   8.779   6.847   4.992 -0.1178 -0.0208  0.0564
33030ION     NA48839  13.021  17.102  13.029 -0.3681 -0.1336 -0.1546
33031ION     NA48840   1.482   6.930   9.506 -0.2646 -0.1662 -0.0229
33032ION     NA48841  15.646   7.250  13.670 -0.0328  0.0895  0.2540
33033ION     NA48842  12.566   5.280   9.672  0.0402  0.0846 -0.0861
33034ION     NA48843   5.414   2.243   0.451  0.0614  0.2229  0.2505
33035ION     NA48844   7.440   2.979  12.526 -0.0311 -0.0804  0.1001
33036ION     NA48845   2.439   1.502   9.478 -0.2281  0.2582  0.0278
33037ION     NA48846   9.685  18.599  14.664 -0.1874  0.1959 -0.1500
33038ION     NA48847  15.982  15.622  10.051 -0.3816  0.0767  0.1359
33039ION     NA48848  16.382  10.152   9.892  0.2766  0.2323 -0.1031
33040ION     NA48849  16.119  10.183   5.582  0.1051  0.0742 -0.2218
33041ION     NA48850   1.995   4.745   0.122 -0.1986 -0.2217 -0.3173
33042ION     NA48851   2.103  12.686  14.285 -0.2058 -0.0297 -0.3266
33043ION     NA48852  10.265   9.177  14.164 -0.0369 -0.3767 -0.0395
33044ION     NA48853   3.746  18.784  12.590 -0.0432 -0.0571  0.1876
33045ION     NA48854  16.131  15.836   5.315 -0.1337  0.1427  0.0206
33046ION     NA48855   0.308  16.430  11.145 -0.2374 -0.1019  0.1215
33047ION     NA48856   5.554  12.660  13.504 -0.3346  0.3097 -0.1658
33048ION     NA48857  16.098   3.871   1.688  0.1916 -0.1212  0.1143
33049ION     NA48858   4.287   1.000   9.479  0.1848 -0.0593  0.0726
33050ION     NA48859  15.499  18.677  10.363  0.0754  0.1558  0.0968
33051ION     NA48860   4.234  12.025  14.755  0.1576  0.2214  0.3320
33052ION     NA48861  15.813   7.463  14.998  0.0622 -0.1378  0.0967
33053ION     NA48862  18.339  18.267  11.947  0.3598  0.1311  0.0764
33054ION     NA48863   0.379  15.986   9.792  0.1236 -0.2699  0.0874
33055ION     NA48864  16.681  14.326  13.517  0.2336  0.0303 -0.0283
33056ION     NA48865  10.279   7.565  12.554 -0.0344  0.1367  0.2584
33057ION     NA48866   3.212  10.882   9.638 -0.0721  0.0988 -0.0882
33058ION     NA48867   6.136   4.763   0.996 -0.0479 -0.0223 -0.0110
33059ION     NA48868  17.264  15.133   3.640 -0.0077  0.1621 -0.0687
33060ION     NA48869   6.662   4.680  10.473  0.0329  0.0104  0.2094
33061ION     NA48870   9.716  18.745   0.332  0.0651  0.3189  0.0552
33062ION     NA48871   1.695   6.738   2.444  0.1330  0.1908  0.2201
33063ION     NA48872  18.301  14.556   4.353 -0.1609 -0.0292 -0.1415
33064ION     NA48873   6.478  12.802   1.888 -0.1311 -0.1949 -0.1349
33065ION     NA48874  13.040   7.410   4.035  0.0204 -0.1828 -0.0002
33066ION     NA48875  18.565   3.283   1.146 -0.2631 -0.0888  0.1174
33067ION     NA48876   9.110  10.346   3.068 -0.1563  0.0538  0.1972
33068ION     NA48877  17.585  13.653   5.378  0.0326  0.2969  0.0372
33069ION     NA48878  17.165  18.137  10.584 -0.1166  0.0008 -0.2199
33070ION     NA48879  18.352  16.208  14.066 -0.1794 -0.0821  0.1470
33071ION     NA48880  12.104  13.160   6.382  0.0266  0.1874  0.3210
33072ION     NA48881  18.115  10.560   9.642  0.0559 -0.0008  0.1849
33073ION     NA48882  10.739   1.083   3.438 -0.1309  0.0452 -0.0284
33074ION     NA48883  18.775   1.937   1.498  0.0405  0.2037  0.0980
33075ION     NA48884  14.650  10.106   9.665 -0.0129 -0.2532 -0.0819
33076ION     NA48885   6.891   3.537   5.659 -0.2366  0.3092 -0.1779
33077ION     NA48886  13.595   3.012   2.731  0.1506 -0.0496 -0.1389
33078ION     NA48887  18.372  12.158  10.764 -0.0029  0.2164  0.2017
33079ION     NA48888   0.618   7.006   9.587 -0.1086  0.0718  0.0485
33080ION     NA48889   3.153  11.032  12.415 -0.0434  0.1704  0.6018
33081ION     NA48890   4.963   2.341   3.769  0.1344 -0.1969  0.0660
33082ION     NA48891   3.900   7.590   9.331 -0.1850  0.1766  0.0351
33083ION     NA48892  12.454  18.388  13.612  0.0005  0.3267 -0.3130
33084ION     NA48893  16.314   4.295  10.854  0.1710 -0.0952  0.0897
33085ION     NA48894  17.143   4.517  10.364  0.0093  0.0438  0.0624
33086ION     NA48895   6.715   4.641   5.096 -0.1214  0.0850  0.1234
33087ION     NA48896  11.779  17.410   3.207  0.0166 -0.1215 -0.1989
33088ION     NA48897  18.539  18.919   3.181  0.1547  0.1061 -0.4564
33089ION     NA48898  16.426  14.531   4.600  0.2091  0.1721 -0.1847
33090ION     NA48899  11.115  18.314   5.657  0.2522 -0.0396  0.0812
33091ION     NA48900   1.114  13.884   9.450  0.0593  0.0983 -0.0138
33092ION     NA48901   5.206   8.270  11.449 -0.0938 -0.0166 -0.1689
33093ION     NA48902  13.883   0.980  10.345 -0.0215  0.5776  0.2728
33094ION     NA48903   0.074   2.678   9.571  0.1404  0.0679 -0.1580
33095ION     NA48904   1.026   7.710   9.550 -0.2278 -0.0049 -0.0506
33096ION     NA48905  10.613  15.565   0.538 -0.1976 -0.4039  0.1977
33097ION     NA48906   6.226   2.140   2.170 -0.5139 -0.0250  0.2041
33098ION     NA48907  17.386  15.070  13.794 -0.0134 -0.2286 -0.0663
33099ION     NA48908   2.616  17.978  13.623  0.2105  0.2491  0.1198
33100ION     NA48909   9.350  11.889   5.818  0.1184  0.3733  0.1005
33101ION     NA48910   0.648  18.740   5.619  0.2398  0.2242  0.2394
33102ION     NA48911  15.907   8.293   1.815  0.0839  0.4243 -0.0699
33103ION     NA48912   9.380   0.217  10.077 -0.0300 -0.3173 -0.0614
33104ION     NA48913   1.124  14.545  13.658  0.1445  0.0047 -0.1360
33105ION     NA48914   3.197  17.407   5.138 -0.1166  0.4919  0.1120
33106ION     NA48915  13.061  15.988  14.469 -0.2145 -0.0505  0.0772
33107ION     NA48916   4.268  16.864   2.147 -0.0192 -0.2609  0.1200
33108ION     NA48917   7.811  19.040   2.594 -0.0630 -0.0033  0.2503
33109ION     NA48918  14.661   7.724   5.354  0.0050 -0.1193 -0.2287
33110ION     NA48919   2.787  12.614   2.588  0.1161  0.0795  0.1069
33111ION     NA48920  15.148   4.574   9.734  0.0592 -0.0245 -0.1023
33112ION     NA48921   1.475   7.538  13.055  0.0447  0.1066  0.1004
33113ION     NA48922  11.060   6.752   9.332  0.1644 -0.0655  0.3660
33114ION     NA48923   4.421  14.193   9.254 -0.0229  0.0099  0.1821
33115ION     NA48924  12.228  15.901   2.911  0.0244  0.0908  0.0543
33116ION     NA48925   0.422  18.055   0.119 -0.0299  0.1330 -0.3635
33117ION     NA48926  13.280   1.986   3.300 -0.1362  0.1164  0.4075
33118ION     NA48927   3.423   4.287  12.434 -0.1824 -0.0220  0.0906
33119ION     NA48928  13.038   8.359   0.725  0.1052 -0.1920 -0.0813
33120ION     NA48929  12.240  16.359   1.167  0.3208  0.3923 -0.0403
33121ION     NA48930   0.491   8.752   9.955  0.1705 -0.0369  0.3380
33122ION     NA48931   0.142   8.056   4.337  0.0216 -0.0496 -0.0025
33123ION     NA48932   9.564  15.800  12.159  0.0428  0.4411  0.0705
33124ION     NA48933   3.779  10.532  11.311 -0.3736 -0.0193 -0.3067
33125ION     NA48934  12.137   2.412   3.834  0.2242  0.2334  0.1005
33126ION     NA48935   6.157   7.091   3.250  0.1595  0.4938  0.0540
33127ION     NA48936  13.641  13.194   1.151 -0.0970 -0.1370  0.0666
33128ION     NA48937   1.546   3.905   9.519 -0.0157  0.0734 -0.1229
33129ION     NA48938   4.540  12.287   9.738 -0.0232  0.2222  0.1850
33130ION     NA48939  14.846   9.201   3.914 -0.3066  0.3411  0.0894
33131ION     NA48940  12.403  16.173   9.956  0.0136  0.1140 -0.0383
33132ION     NA48941   9.918  15.053  12.315  0.0325  0.1422  0.1907
33133ION     NA48942   7.104   9.285   9.730 -0.1524  0.0848  0.1203
33134ION     NA48943   4.450   7.789  12.876 -0.0787  0.0361  0.0015
33135ION     NA48944   5.121   9.873   9.666  0.1351  0.0139  0.0535
33136ION     NA48945   6.058   1.051  14.726  0.0123  0.0384 -0.2219
33137ION     NA48946   0.375   4.545  13.249  0.0006  0.0325 -0.0927
33138ION     NA48947   2.643  12.696   9.528  0.2181 -0.1302  0.0989
33139ION     NA48948  11.492   3.929   4.274 -0.4564  0.0872  0.3098
33140ION     NA48949   5.336  13.305  12.766  0.0595  0.1506 -0.1136
33141ION     NA48950   8.257   8.298   9.643 -0.1616 -0.1630 -0.1305
33142ION     NA48951  12.127   1.186   1.282  0.0200  0.0449 -0.1790
33143ION     NA48952   7.910   3.333   5.369 -0.3664 -0.1837  0.2616
33144ION     NA48953  12.539  10.881   1.121  0.2688 -0.0783  0.1367
33145ION     NA48954  17.733  12.264   9.955 -0.2466 -0.2195 -0.3290
33146ION     NA48955   4.764   8.589   2.755  0.2835  0.0797  0.1060
33147ION     NA48956  16.692   3.089  12.163 -0.4258 -0.1299 -0.4483
33148ION     NA48957   6.039   5.941   3.987  0.1481 -0.1392  0.1670
33149ION     NA48958   1.517   4.063   2.772 -0.0064 -0.2586 -0.1013
33150ION     NA48959   4.486  18.346  11.318 -0.1927  0.0432  0.3732
33151ION     NA48960   9.825   9.833   5.558  0.3013 -0.1616 -0.0667
33152ION     NA48961   9.315   9.240   9.997 -0.2273  0.0163 -0.1030
33153ION     NA48962  15.245  10.747   9.996 -0.3299 -0.1579  0.1231
33154ION     NA48963   2.105   9.035   2.281 -0.0837 -0.1048  0.1299
33155ION     NA48964   6.670   8.964   1.748  0.0101  0.0151 -0.0638
33156ION     NA48965   2.149   1.809   5.525 -0.0806  0.0285  0.3434
33157ION     NA48966  11.027   9.237   1.800 -0.0865  0.3797 -0.2397
33158ION     NA48967   6.980  13.622  11.590  0.2236 -0.1431 -0.2211
33159ION     NA48968  18.044  16.200  10.062  0.0183  0.0823  0.3017
33160ION     NA48969   3.968  11.349  12.386 -0.1719  0.0667 -0.1104
33161ION     NA48970  10.739   8.457   3.696  0.0685 -0.1750  0.4023
33162ION     NA48971   8.852   3.889  10.524 -0.2433 -0.0484  0.1860
33163ION     NA48972   2.832   0.592  14.037 -0.4718  0.0326 -0.1573
33164ION     NA48973   2.551  14.416   9.474 -0.0829  0.0719  0.3669
33165ION     NA48974  12.655   0.393   9.918 -0.0916 -0.0947 -0.0037
33166ION     NA48975  11.257   9.225   4.961  0.1309 -0.0167  0.0216
33167ION     NA48976  13.520  16.433  10.310 -0.0238  0.1514  0.1068
33168ION     NA48977   5.091   5.669   4.961  0.0492  0.1110 -0.0145
33169ION     NA48978  17.240   4.917   4.554 -0.3183 -0.4283 -0.0091
33170ION     NA48979  16.732   1.012   3.274  0.0506  0.0416  0.1446
33171ION     NA48980   2.896   7.724   3.305  0.0833  0.2206  0.1334
33172ION     NA48981   3.564  12.141   1.088 -0.0625  0.2877  0.1371
33173ION     NA48982   2.756  16.206   9.318 -0.0820  0.0247  0.0785
33174ION     NA48983   3.404   0.919  12.513  0.0451 -0.0611  0.0286
33175ION     NA48984   8.794  10.277   5.625 -0.1144  0.3186  0.0234
33176ION     NA48985  12.213  17.821   4.562  0.0638 -0.1423  0.1221
33177ION     NA48986   3.943   9.799   3.105 -0.0171  0.0085  0.0053
33178ION     NA48987   7.416  13.897   1.585  0.3521  0.1890  0.2671
33179ION     NA48988  13.554  14.138   6.152 -0.2119 -0.1159 -0.0995
33180ION     NA48989  15.582   9.529   9.785 -0.0369  0.0467 -0.4648
33181ION     NA48990   9.103  14.121   3.215  0.2245  0.0730  0.0841
33182ION     NA48991   3.372  17.009   9.278 -0.0893 -0.2236  0.0386
33183ION     NA48992  11.489  15.656   0.054  0.2655 -0.1004  0.0256
33184ION     NA48993   7.457  17.090   9.905  0.0586 -0.0734  0.1016
33185ION     NA48994   7.047   7.278   5.081  0.2075  0.1079  0.1195
33186ION     NA48995   4.028  18.698   9.009 -0.1816  0.1646  0.0171
33187ION     NA48996  10.277  11.424   1.142 -0.0578 -0.0112 -0.0542
33188ION     NA48997  12.296   2.927   0.056  0.4754 -0.0294 -0.1853
33189ION     NA48998  18.281  12.867  11.810  0.2029  0.0449  0.2422
33190ION     NA48999   2.449   1.914  14.382  0.1058 -0.2223 -0.0474
33191ION     NA49000   9.291   2.606   3.941  0.4426 -0.1300  0.1366
33192ION     NA49001   9.954   0.787  10.345  0.2013  0.0004 -0.5033
33193ION     NA49002   7.360  12.991   2.420  0.0819 -0.0080  0.1299
33194ION     NA49003   5.560  11.219   2.689  0.0644 -0.1399  0.3428
33195ION     NA49004  17.069   0.397  14.464  0.0889  0.1102  0.1657
33196ION     NA49005  12.962  10.459   5.741 -0.1763 -0.3967 -0.0869
33197ION     NA49006   1.302   0.488   9.429  0.6668  0.1738 -0.0533
33198ION     NA49007  16.918   6.779   5.806 -0.2076  0.1438 -0.0619
33199ION     NA49008  15.965   2.265   5.899 -0.0473 -0.0244 -0.1037
33200ION     NA49009   8.903   7.498  14.943 -0.2856  0.1165  0.2292
33201ION     NA49010   6.696  11.942   1.227  0.1087  0.3497 -0.1299
33202ION     NA49011  14.177   8.154   3.148  0.1600  0.0665 -0.1185
33203ION     NA49012  11.389   0.087   2.678 -0.2171  0.0556  0.0048
33204ION     NA49013   7.646  10.641   5.125  0.0578  0.0636  0.4025
33205ION     NA49014   6.830  10.295   3.809  0.0113  0.2343 -0.0334
33206ION     NA49015  11.164   9.646  14.283  0.1536 -0.3062  0.0863
33207ION     NA49016  17.563  17.276   5.943  0.0333 -0.0867  0.1720
33208ION     NA49017  15.260   4.543   0.820 -0.3268 -0.1122 -0.1179
33209ION     NA49018  11.501   2.739   2.696  0.0562  0.1467 -0.0981
33210ION     NA49019  15.150   3.244  10.218  0.1702 -0.0094  0.1439
33211ION     NA49020  18.023  19.160  10.096 -0.1069  0.0445 -0.0580
33212ION     NA49021   7.285   2.050  10.178 -0.1358  0.5458  0.0277
33213ION     NA49022  17.024  13.312  12.376  0.0128  0.0680  0.1819
33214ION     NA49023  18.350   7.404   2.214 -0.0569  0.1878  0.1513
33215ION     NA49024  12.524   2.086   9.677 -0.0555 -0.0583 -0.4565
33216ION     NA49025   7.347   7.920   2.052  0.0035  0.5986  0.3768
33217ION     NA49026  12.556   9.110   5.431 -0.5323 -0.1984 -0.0661
33218ION     NA49027  10.632  17.974  11.551 -0.0458 -0.2633 -0.0380
33219ION     NA49028  17.094  17.388   2.256  0.2556 -0.1089 -0.3269
33220ION     NA49029   2.668  10.970   4.414  0.0518  0.0156 -0.0754
33221ION     NA49030   7.486  12.692  10.733 -0.1784 -0.0502 -0.0150
33222ION     NA49031   2.990   4.671   9.332  0.0912 -0.0888  0.0895
33223ION     NA49032   6.353   8.543   9.466 -0.5936  0.0553 -0.0401
33224ION     NA49033  12.763  16.936   4.372 -0.0326 -0.0021  0.3363
33225ION     NA49034   9.767  14.994   1.801 -0.1217  0.0831 -0.0057
33226ION     NA49035   3.451  14.171   9.488  0.3453 -0.1108  0.0196
33227ION     NA49036  18.201  12.455   0.220 -0.1381  0.0418 -0.2208
33228ION     NA49037   4.569   7.028   9.468 -0.0653 -0.3795 -0.0196
33229ION     NA49038  17.378   5.243   5.977 -0.0210  0.1826  0.2602
33230ION     NA49039   4.249  10.932   9.666  0.2217  0.2493 -0.1863
33231ION     NA49040  16.873   8.479  10.585  0.2702 -0.0681 -0.1404
33232ION     NA49041   2.363  11.431   3.074  0.0124  0.0184 -0.3161
33233ION     NA49042   8.773   0.476   4.260 -0.0571  0.1554  0.0788
33234ION     NA49043  13.836  10.578   9.722 -0.3227 -0.1133 -0.0078
33235ION     NA49044  11.548  17.491  11.035 -0.2031 -0.0788 -0.0488
33236ION     NA49045  18.007  12.938   3.323  0.0299  0.2983 -0.2004
33237ION     NA49046   9.538   8.425   2.451  0.1031  0.4545 -0.0040
33238ION     NA49047  14.634  18.121  11.610  0.1173 -0.2171  0.4863
33239ION     NA49048  15.384   5.528   9.696 -0.1912 -0.2369 -0.2168
33240ION     NA49049  18.779  17.718   9.853 -0.1159 -0.2583 -0.1680
33241ION     NA49050  12.318  11.944  13.864  0.1030 -0.0714  0.1698
33242ION     NA49051  16.613   1.913   5.439 -0.0016  0.4857 -0.1107
33243ION     NA49052   1.162  17.055   4.838  0.1395 -0.2065  0.0999
33244ION     NA49053   2.582  12.921   3.916 -0.1626 -0.3115 -0.2492
33245ION     NA49054   1.213  17.158  13.576  0.1371 -0.1366 -0.0661
33246ION     NA49055  17.432   7.860   1.716 -0.1229 -0.0689  0.1704
33247ION     NA49056   5.128  18.627   9.452  0.3133 -0.2101 -0.1622
33248ION     NA49057  16.246  18.025  10.512 -0.0536  0.4117  0.0480
33249ION     NA49058   7.082  18.222  10.116 -0.0090 -0.4812 -0.2223
33250ION     NA49059  14.673   7.566   9.464 -0.0262  0.1040  0.0159
33251ION     NA49060   4.460  15.182   2.690 -0.3285  0.1762 -0.3339
33252ION     NA49061  14.195   4.401   1.890  0.0132  0.2091  0.0505
33253ION     NA49062   4.283   8.888   5.664  0.0273  0.2640 -0.1115
33254ION     NA49063   3.096   6.162   4.975  0.1388 -0.0896  0.2972
33255ION     NA49064   5.525  13.675   5.386  0.2060 -0.0023 -0.0026
33256ION     NA49065   8.421   5.900   5.157 -0.0115  0.1319  0.0066
33257ION     NA49066   4.609  17.934   9.151 -0.0386  0.0849 -0.1596
33258ION     NA49067   5.550   4.026   2.290  0.0013  0.0886  0.1829
33259ION     NA49068  10.399  13.739   0.032  0.2183 -0.0350  0.4376
33260ION     NA49069  17.197   8.379   5.128 -0.1785  0.1621 -0.0373
33261ION     NA49070   0.958  10.198   0.685 -0.2762  0.4078  0.1252
33262ION     NA49071  10.885  17.871  10.315  0.0241 -0.2532  0.0309
33263ION     NA49072   8.215  10.554   9.830 -0.2151 -0.1458  0.2776
33264ION     NA49073  12.347  16.479  13.434 -0.3177  0.2521 -0.1644
33265ION     NA49074   0.342   6.063  13.051  0.2286 -0.0270  0.3109
33266ION     NA49075  12.428  11.693   5.462 -0.1880  0.0848  0.3896
33267ION     NA49076   2.325   3.691   4.100 -0.1443  0.1684  0.1624
33268ION     NA49077  13.935  19.110  10.535  0.0668  0.2265 -0.0860
33269ION     NA49078   5.128   6.543   1.785 -0.1264 -0.0407 -0.0064
33270ION     NA49079   0.377   8.344   1.361 -0.1978 -0.0855 -0.2941
33271ION     NA49080  18.828   4.345   9.936 -0.0467 -0.2379  0.1490
33272ION     NA49081  15.997  18.673   2.680  0.1858 -0.1547  0.0670
33273ION     NA49082  12.850   1.347   5.539  0.0332 -0.0040  0.1813
33274ION     NA49083  13.330  13.218  10.051 -0.0924 -0.2131 -0.2811
33275ION     NA49084   6.037   7.718   9.694 -0.0397  0.2027  0.1510
33276ION     NA49085   7.222   4.364   9.478 -0.0606  0.0455 -0.3471
33277ION     NA49086  12.607   0.607   2.287 -0.1200 -0.0361 -0.0718
33278ION     NA49087   8.879   1.303   2.400  0.0621 -0.6997 -0.1106
33279ION     NA49088   7.707  16.250   5.337 -0.0917  0.0690  0.1900
33280ION     NA49089   4.532   2.682  10.310  0.1921 -0.0094  0.0475
33281ION     NA49090  11.862   7.415  13.308  0.0405 -0.1995  0.0033
33282ION     NA49091  18.129  11.988   3.088 -0.3660 -0.3312 -0.0038
33283ION     NA49092   1.421  13.123   4.750 -0.1998  0.1123  0.1505
33284ION     NA49093   6.128  18.217   9.782  0.0136 -0.0470 -0.0476
33285ION     NA49094   2.628  11.776   9.382  0.0652 -0.1680 -0.0600
33286ION     NA49095   2.060   1.722   1.612 -0.0865 -0.0641 -0.1879
33287ION     NA49096  11.312   8.771   9.637  0.3639  0.0679 -0.3852
33288ION     NA49097   8.587  18.730   6.159 -0.1807 -0.1379  0.1657
33289ION     NA49098   7.687  10.103   9.702  0.0555 -0.0619  0.0175
33290ION     NA49099  13.534  12.422  10.254  0.1065 -0.2482  0.3022
33291ION     NA49100   3.948   7.550   0.601 -0.2926  0.0303  0.1443
33292ION     NA49101   2.732  10.011   9.365  0.0421 -0.3585  0.3436
33293ION     NA49102  17.284  16.062   9.780 -0.0948  0.3133  0.0741
33294ION     NA49103  10.283   9.468   0.949 -0.0055  0.0078  0.0870
33295ION     NA49104   7.422  14.908   9.892 -0.0594  0.1923  0.2881
33296ION     NA49105  10.009   1.814   5.263 -0.2269 -0.0997  0.1045
33297ION     NA49106  16.169   3.584  10.461 -0.1933  0.3460  0.0345
33298ION     NA49107  15.096  17.732   5.996 -0.0310 -0.1787  0.1588
33299ION     NA49108   9.273   4.788   3.343 -0.0214 -0.0694 -0.0635
33300ION     NA49109  17.544  16.593   5.299  0.1018  0.1429 -0.4784
33301ION     NA49110   7.207   2.934  10.365 -0.0212 -0.5053  0.2588
33302ION     NA49111   7.119  15.229  12.531  0.2172 -0.3471 -0.2691
33303ION     NA49112  16.372   2.007  10.189 -0.1154  0.2026 -0.0852
33304ION     NA49113   0.900   3.856  12.455 -0.1257 -0.0264 -0.3353
33305ION     NA49114   3.814   1.840  13.816  0.1081 -0.2046  0.1591
33306ION     NA49115   1.398  18.231   5.118 -0.0301 -0.1858 -0.1035
33307ION     NA49116   3.814   4.359   9.340  0.3136 -0.2306  0.2196
33308ION     NA49117   2.618  13.157   1.089 -0.1088 -0.1902  0.2466
33309ION     NA49118  17.095   9.887   5.529 -0.0651 -0.0287  0.1163
33310ION     NA49119   2.373  12.525  13.325 -0.1603 -0.0662  0.0862
33311ION     NA49120  12.558   6.729   1.630  0.0379  0.0716  0.0941
33312ION     NA49121   3.503  14.921   2.584 -0.2254  0.1360 -0.1614
33313ION     NA49122   3.870   5.793   5.178  0.0682 -0.0032  0.1638
33314ION     NA49123  16.752  13.738  10.222 -0.1822  0.0992  0.2862
33315ION     NA49124  12.970   3.512   9.867  0.1644 -0.0291 -0.2175
33316ION     NA49125   5.761  17.123   9.476 -0.3480  0.0250  0.0203
33317ION     NA49126  10.431   2.599   5.467  0.3338 -0.2830 -0.3214
33318ION     NA49127   0.540  18.066   9.826  0.2353 -0.3257 -0.0553
33319ION     NA49128  19.137   4.059   4.991 -0.0774 -0.2095 -0.1965
33320ION     NA49129   6.620  10.724   0.452  0.0600 -0.4280  0.1329
33321ION     NA49130  11.074  15.062   3.531  0.0830  0.0151  0.1596
33322ION     NA49131   5.025   1.444   9.497 -0.0642 -0.1628  0.0100
33323ION     NA49132   2.635   3.860   5.062  0.0371 -0.3982 -0.1378
33324ION     NA49133  11.515   4.795  14.681 -0.3517  0.0373 -0.1552
33325ION     NA49134   9.708  11.222  15.087  0.0492  0.0900  0.1067
33326ION     NA49135  14.884   6.761   1.780 -0.0046  0.0970 -0.1392
33327ION     NA49136   6.501  18.704   5.424 -0.1752 -0.1515 -0.0563
33328ION     NA49137   1.040   1.232  12.293  0.0591  0.0615 -0.1990
33329ION     NA49138  14.366   0.297   5.653  0.0337  0.2256 -0.3352
33330ION     NA49139   4.696  10.065   9.532  0.2074 -0.0199  0.2278
33331ION     NA49140   4.347   9.219   9.501  0.1502  0.2406  0.1403
33332ION     NA49141   7.750  18.412   5.797 -0.4257 -0.0261  0.2320
33333ION     NA49142  15.955  13.482   6.089  0.3805 -0.1580 -0.0529
33334ION     NA49143  10.267  18.572  10.252  0.2704 -0.0500 -0.3135
33335ION     NA49144   8.767   1.429   4.170  0.0934 -0.0029 -0.3227
33336ION     NA49145  10.983  10.028   5.118  0.1133 -0.2827  0.0948
33337ION     NA49146   5.116   4.030  10.121  0.0302 -0.0437  0.1148
33338ION     NA49147   1.282  18.773   9.398  0.3324  0.0109  0.1640
33339ION     NA49148  18.224  10.763   0.331  0.0606  0.2920 -0.0247
33340ION     NA49149   6.103   4.276   2.136  0.1482  0.0912  0.2353
33341ION     NA49150   0.909   4.534   4.984  0.0255 -0.0794 -0.1353
33342ION     NA49151   3.851  17.775  13.969  0.1562 -0.1057 -0.2077
33343ION     NA49152  18.960   9.896   5.551  0.0755 -0.1196 -0.0300
33344ION     NA49153   7.097  17.352   5.140 -0.0071  0.0732  0.0310
33345ION     NA49154   5.094  16.425   9.440  0.0386 -0.1241 -0.0596
33346ION     NA49155   3.407   9.492   9.823 -0.0831  0.0976 -0.1299
33347ION     NA49156   6.060  17.483   4.815 -0.2167 -0.0071  0.2293
33348ION     NA49157  16.078  14.134  10.081  0.1787 -0.2009  0.3981
33349ION     NA49158   3.708   6.853  10.729  0.3328  0.2536  0.0895
33350ION     NA49159  11.981   6.223  14.421  0.0330  0.0032  0.0766
33351ION     NA49160  18.138   4.530  10.505 -0.3852 -0.3766  0.2770
33352ION     NA49161   9.648  15.171   9.801  0.1324  0.0451 -0.1486
33353ION     NA49162  14.974  13.827   6.250 -0.1914  0.0503  0.1611
33354ION     NA49163  13.555   2.686   9.597  0.1803  0.0257 -0.1223
33355ION     NA49164  13.413  14.826   1.473  0.2519 -0.0161  0.0827
33356ION     NA49165   3.106   3.724   9.211  0.0525  0.2575 -0.0287
33357ION     NA49166   6.366  15.019   9.372 -0.1000 -0.4600 -0.1803
33358ION     NA49167  14.389  12.489  10.306 -0.2603  0.3036  0.2042
33359ION     NA49168   5.421  14.233   4.513  0.0307  0.0943 -0.1365
33360ION     NA49169   8.919  18.467  10.299 -0.0248  0.2625 -0.2914
33361ION     NA49170   3.136  11.036   5.494 -0.0617  0.3036 -0.0352
33362ION     NA49171  11.345   0.588  15.029 -0.2915 -0.0505  0.1676
33363ION     NA49172   7.251  14.567   5.202 -0.0619  0.1129  0.3337
33364ION     NA49173  15.939  10.440  14.447  0.1898  0.3749 -0.0410
33365ION     NA49174   1.081  18.675   4.031 -0.0477 -0.1154  0.0419
33366ION     NA49175  13.561   3.924   3.270 -0.2857 -0.3930  0.2595
33367ION     NA49176  15.895   1.418   4.407 -0.3812  0.1747  0.3827
33368ION     NA49177   9.076   8.423   5.007 -0.0039  0.0900 -0.0755
33369ION     NA49178  13.482  14.028  10.348 -0.2241 -0.1610  0.2729
33370ION     NA49179  18.169  14.999   5.287 -0.0372 -0.1447 -0.1021
33371ION     NA49180  16.111   4.846   5.693  0.0559  0.0754 -0.1261
33372ION     NA49181  13.843   4.572   5.188  0.1590  0.0676 -0.1961
33373ION     NA49182   8.602   2.328   9.720  0.3669  0.3459 -0.1907
33374ION     NA49183   7.747   5.134  15.143  0.0366  0.0120  0.0528
33375ION     NA49184   6.637   5.171   9.140  0.0542 -0.0385  0.1514
33376ION     NA49185  10.676   3.039   9.785  0.2116  0.0170 -0.0494
33377ION     NA49186   6.166  11.018  10.004  0.1063  0.1389  0.1350
33378ION     NA49187  11.999  17.370   0.531 -0.2176  0.1580 -0.2210
33379ION     NA49188   0.768   2.183   9.578 -0.0325 -0.2453 -0.2230
33380ION     NA49189   2.224   1.118  13.502  0.2156 -0.0003 -0.2782
33381ION     NA49190  16.516   8.611   9.537  0.0089 -0.0761 -0.3113
33382ION     NA49191  16.584   1.585  12.411 -0.2140 -0.3384 -0.4736
33383ION     NA49192  11.722   9.371   5.337  0.1063  0.1233 -0.0126
33384ION     NA49193   8.258  19.060   3.530  0.5661 -0.0815 -0.0096
33385ION     NA49194   0.042   7.239   3.911  0.1639  0.2414 -0.1201
33386ION     NA49195   2.024  10.986   5.031  0.1905 -0.1147 -0.3257
33387ION     NA49196   4.994   0.441   9.339 -0.1985  0.1208  0.1079
33388ION     NA49197  13.887   7.613   9.550 -0.1630  0.0032 -0.0197
33389ION     NA49198   4.771   4.919  14.173 -0.1473 -0.1254 -0.0118
33390ION     NA49199  11.361   2.881   0.829  0.0302 -0.2212  0.2164
33391ION     NA49200  14.433  13.617   5.323  0.2279 -0.1930  0.0773
33392ION     NA49201   6.724   0.096   4.824  0.1773 -0.1513 -0.2100
33393ION     NA49202   3.538  16.197  10.693 -0.1135  0.0350  0.1496
33394ION     NA49203  14.964   8.616   0.291  0.3860 -0.0039 -0.2494
33395ION     NA49204  13.892   1.636   5.829  0.0139  0.0395  0.0899
33396ION     NA49205  13.004   6.051   9.563 -0.1529  0.0503  0.2813
33397ION     NA49206  17.812  12.058   2.256 -0.0411 -0.0555 -0.1194
33398ION     NA49207  17.688   1.301  14.109 -0.2015 -0.0191 -0.0406
  19.16209  19.16209  15.21823
